Control file title. For DL_FIELD 4.10
49984
    1MOL     C1    1   0.597   7.150   3.434 -0.3818  0.5428  0.0392
    1MOL     C2    2   0.448   7.110   3.456 -0.2117 -0.1509 -0.5544
    1MOL     C3    3   0.421   6.970   3.417 -0.7457  0.6247  0.6461
    1MOL     N4    4   0.403   6.859   3.390  0.1025  0.5429 -0.2022
    1MOL     H5    5   0.609   7.259   3.433 -1.2806  0.6446 -0.7427
    1MOL     H6    6   0.630   7.133   3.331  3.8448 -0.1427  1.4511
    1MOL     H7    7   0.373   7.168   3.403  0.5999  1.0437 -0.4314
    1MOL     H8    8   0.668   7.093   3.493  0.5476 -2.1240 -3.5176
    1MOL     C9    9   0.418   7.124   3.610 -0.3745  0.3650 -0.0747
    1MOL    C10   10   0.418   7.265   3.656  0.3695 -1.2954  0.4342
    1MOL    C11   11   0.333   7.344   3.561  0.2711  0.4144 -0.7497
    1MOL    N12   12   0.265   7.405   3.485 -0.4485  0.6207  0.4278
    1MOL    H13   13   0.329   7.069   3.639 -0.6591  0.2338 -1.1714
    1MOL    H14   14   0.501   7.077   3.662 -0.8107  1.5756  1.7622
    1MOL    H15   15   0.518   7.297   3.628 -0.5145  0.5912 -0.7071
    1MOL    C16   16   0.378   7.287   3.807  0.2337 -0.0215 -0.4725
    1MOL    C17   17   0.224   7.288   3.839 -1.4338 -0.7195 -0.3035
    1MOL    C18   18   0.173   7.153   3.846  0.1804 -0.6061 -0.8978
    1MOL    N19   19   0.134   7.039   3.844 -0.1923  0.1835 -0.5373
    1MOL    H20   20   0.443   7.220   3.863 -1.1015  0.1706  1.3482
    1MOL    H21   21   0.417   7.381   3.844 -1.3336  0.1057  0.9308
    1MOL    H22   22   0.184   7.335   3.749  1.2197  1.3171 -0.4985
    1MOL    C23   23   0.189   7.374   3.966 -0.3078 -0.3166  0.3330
    1MOL    C24   24   0.179   7.526   3.920 -0.1516 -0.0879  0.8822
    1MOL    C25   25   0.071   7.569   3.840  0.2371  0.0756  0.0997
    1MOL    N26   26   8.296   7.609   3.772  0.1346  0.7552  0.2067
    1MOL    H27   27   0.094   7.343   4.008  0.7845 -2.3671  1.4096
    1MOL    H28   28   0.264   7.352   4.043  2.7011 -1.1883 -2.7109
    1MOL    H29   29   0.256   7.549   3.846  2.0983  0.6981  3.4098
    1MOL    C30   30   0.195   7.624   4.032  0.3909 -0.6476 -0.3097
    1MOL    C31   31   0.073   7.638   4.128  0.0025  0.5140  0.5842
    1MOL    C32   32   0.045   7.516   4.194 -0.0971  0.7898 -0.8793
    1MOL    N33   33   0.024   7.416   4.244  0.0375 -0.4009  0.3576
    1MOL    H34   34   0.281   7.604   4.096 -1.3028 -2.9769  1.2648
    1MOL    H35   35   0.213   7.719   3.981  0.3489 -1.1781 -1.3413
    1MOL    H36   36   8.292   7.660   4.076 -0.3428 -2.3668 -0.0954
    1MOL    C37   37   0.098   7.758   4.214  0.5039  0.6362  0.4119
    1MOL    C38   38   8.298   7.798   4.317 -0.1151  0.0433 -0.5839
    1MOL    C39   39   8.256   7.702   4.426 -0.3468  0.0282 -0.4536
    1MOL    N40   40   8.218   7.628   4.505 -0.3086  0.4579  0.2583
    1MOL    H41   41   0.193   7.747   4.266  1.1677 -0.3448 -0.9565
    1MOL    H42   42   0.122   7.840   4.147 -0.6387 -0.4744 -1.4083
    1MOL    H43   43   8.205   7.807   4.261 -0.6765 -4.2260 -0.5069
    1MOL    C44   44   0.022   7.933   4.379 -0.3681 -0.6753 -0.1113
    1MOL    C45   45   8.228   8.005   4.458  0.2999  0.0038  0.2957
    1MOL    C46   46   8.098   7.993   4.390 -0.0542  0.5246 -0.1691
    1MOL    N47   47   8.001   7.969   4.335 -0.4407 -0.6374  0.5279
    1MOL    H48   48   0.115   7.927   4.437  0.4234  3.6744 -0.7521
    1MOL    H49   49   0.047   7.998   4.295 -0.5313  1.2299  1.2782
    1MOL    H50   50   8.248   8.112   4.456 -1.6128  0.3522 -1.4030
    1MOL    C51   51   8.224   7.972   4.608 -0.1896 -0.3334 -0.2230
    1MOL    C52   52   8.104   8.021   4.693 -0.5689 -0.6651  0.3877
    1MOL    C53   53   7.977   7.962   4.654  0.5550  0.5879  0.5083
    1MOL    N54   54   7.872   7.916   4.626  0.2146 -0.0462  0.2432
    1MOL    H55   55   8.218   7.863   4.614  0.9018 -0.3448  0.7408
    1MOL    H56   56   0.003   8.001   4.658 -1.3805  0.4413  1.5527
    1MOL    H57   57   8.094   8.125   4.661 -1.0040 -0.8233 -0.0084
    1MOL    C58   58   8.130   8.025   4.846 -0.0771 -0.2824  0.3721
    1MOL    C59   59   8.006   8.072   4.930 -0.6613 -0.2378 -0.0562
    1MOL    C60   60   7.924   7.951   4.960 -0.7160  0.0153  0.2003
    1MOL    N61   61   7.857   7.861   4.986  0.2456  0.2349 -0.7766
    1MOL    H62   62   8.169   7.927   4.875  0.9630 -0.6734 -2.1542
    1MOL    H63   63   8.216   8.089   4.868 -0.2841  0.0620  0.1832
    1MOL    H64   64   7.936   8.128   4.868 -1.0800 -2.3843 -1.5952
    1MOL    C65   65   8.054   8.144   5.057  0.0501 -0.6218  0.4559
    1MOL    C66   66   8.076   8.293   5.042  0.4684 -0.7120  0.0737
    1MOL    C67   67   8.172   0.037   4.953 -0.1548  0.4101  0.1868
    1MOL    N68   68   8.254   0.077   4.881  0.0442 -0.4048 -0.5871
    1MOL    H69   69   7.978   8.135   5.135 -1.2359  2.1532 -0.4008
    1MOL    H70   70   8.140   8.090   5.097  0.8516  2.5356  3.1406
    1MOL    H71   71   8.126   0.016   5.133  1.7496  2.0629 -1.6217
    1MOL    C72   72   7.940   0.049   5.035  0.2288  0.0756 -0.0282
    1MOL    C73   73   7.928   0.191   4.968  0.1686  0.0853  0.1412
    1MOL    C74   74   7.969   0.193   4.826  0.1486 -0.0736  0.1030
    1MOL    N75   75   7.998   0.201   4.716 -0.4359  0.2228 -0.2207
    1MOL    H76   76   7.861   8.295   4.999 -1.7351  1.4101  1.7362
    1MOL    H77   77   7.922   0.059   5.142 -1.7956 -0.5793 -0.2758
    1MOL    H78   78   8.002   0.258   5.013  0.7692 -0.8396  0.5560
    1MOL    C79   79   7.782   0.242   4.990  0.5661 -0.5831  0.2742
    1MOL    C80   80   7.745   0.382   4.926 -0.1445 -0.0197  0.0853
    1MOL    C81   81   7.854   0.484   4.941 -0.7454  0.7478 -0.7308
    1MOL    N82   82   7.939   0.561   4.955  0.5219  0.4065 -0.2683
    1MOL    H83   83   7.725   0.162   4.942 -1.0122  1.6694 -1.7632
    1MOL    H84   84   7.766   0.240   5.098  1.0446 -0.2910  0.3506
    1MOL    H85   85   7.653   0.421   4.970  0.7152  2.6931 -0.4018
    1MOL    C86   86   7.708   0.368   4.783 -0.1051 -0.2456  0.0983
    1MOL    C87   87   7.555   0.355   4.759 -0.9461 -0.2754  0.1162
    1MOL    C88   88   7.508   0.229   4.819 -0.1608  1.4656  0.1516
    1MOL    N89   89   7.466   0.129   4.859 -0.3516 -0.2555 -0.5048
    1MOL    H90   90   7.748   0.458   4.735 -0.4283  1.3317  2.7093
    1MOL    H91   91   7.751   0.272   4.753  0.6621 -0.7923  2.8517
    1MOL    H92   92   7.544   0.339   4.651 -1.6337  1.3374 -0.0708
    1MOL    C93   93   7.468   0.476   4.795  0.5523  0.4454 -0.0787
    1MOL    C94   94   7.336   0.488   4.717  0.1327  0.1278  0.9289
    1MOL    C95   95   7.246   0.376   4.734  0.9007  0.6610  0.5074
    1MOL    N96   96   7.175   0.281   4.743  0.5674 -0.5590 -0.1202
    1MOL    H97   97   7.441   0.490   4.900  2.2013 -0.2473  0.4587
    1MOL    H98   98   7.520   0.567   4.766 -0.1828  0.0885 -2.5997
    1MOL    H99   99   7.369   0.492   4.613  1.1377 -0.2171  1.2245
    1MOL   C100  100   7.270   0.626   4.729  0.1452  0.0320  0.0806
    1MOL   C101  101   7.147   0.644   4.635 -0.6929 -0.5466 -0.3896
    1MOL   C102  102   7.027   0.568   4.680 -0.2063  1.0340  1.1298
    1MOL   N103  103   6.926   0.510   4.712  0.0859  0.0660  0.1548
    1MOL   H104  104   7.226   0.636   4.828  1.8343  0.4536  0.8056
    1MOL   H105  105   7.338   0.710   4.715 -1.0138  0.6994 -1.8256
    1MOL   H106  106   7.174   0.584   4.548  0.1070 -0.3290 -0.2904
    1MOL   C107  107   7.117   0.789   4.590 -0.6482 -0.4039  0.3331
    1MOL   C108  108   7.069   0.878   4.704  0.6445 -0.6217  0.2922
    1MOL   C109  109   7.170   0.904   4.811  0.3803 -0.2066 -0.4190
    1MOL   N110  110   7.247   0.927   4.890 -0.1189  0.0610 -0.3327
    1MOL   H111  111   7.205   0.827   4.539 -1.4300 -1.7009 -2.0680
    1MOL   H112  112   7.044   0.777   4.509 -1.2768 -0.8006  0.9468
    1MOL   H113  113   6.983   0.832   4.753  1.5580 -2.4701  0.2233
    1MOL   C114  114   7.016   1.011   4.650  0.2977 -0.6825  0.4998
    1MOL   C115  115   6.977   1.105   4.766 -0.6716  0.4294 -0.4236
    1MOL   C116  116   7.040   1.239   4.743  1.1796  0.1262 -0.2670
    1MOL   N117  117   7.089   1.340   4.721  0.1622 -0.1840 -0.0469
    1MOL   H118  118   7.096   1.055   4.592 -0.0214 -0.0690  0.5220
    1MOL   H119  119   6.935   0.984   4.582  1.3158 -0.5556 -0.7729
    1MOL   H120  120   7.014   1.079   4.866  0.0641  3.1854  0.0586
    1MOL   C121  121   6.828   1.122   4.775  0.0135  0.1685  0.5638
    1MOL   C122  122   6.738   1.006   4.839 -0.8309  0.1076  1.1402
    1MOL   C123  123   6.818   0.933   4.939  0.6788  0.0878  0.3781
    1MOL   N124  124   6.882   0.873   5.014  0.5082  0.6795  0.7375
    1MOL   H125  125   6.802   1.214   4.829  0.5513 -0.2740  1.5960
    1MOL   H126  126   6.795   1.136   4.672  1.9668 -0.0095 -0.1064
    1MOL   H127  127   6.724   0.935   4.757  0.0011 -0.8637  1.8433
    1MOL   C128  128   6.608   1.068   4.893 -0.5118 -0.8361 -0.3883
    1MOL   C129  129   6.525   0.951   4.961  0.8723 -1.1812  0.2368
    1MOL   C130  130   6.571   0.954   5.099  0.4867 -0.2144 -0.0910
    1MOL   N131  131   6.608   0.956   5.211 -1.0114 -0.4342 -0.1655
    1MOL   H132  132   6.640   1.145   4.963  0.0771 -1.3081 -0.1309
    1MOL   H133  133   6.561   1.122   4.812  0.5483  0.9896  0.1901
    1MOL   H134  134   6.553   0.859   4.910 -0.5851 -1.0966 -0.7363
    1MOL   C135  135   6.372   0.967   4.933 -0.3384  0.0584 -0.0337
    1MOL   C136  136   6.303   0.860   5.013  0.4004  0.8271 -0.0417
    1MOL   C137  137   6.162   0.874   5.022 -0.6399  0.6103  0.9657
    1MOL   N138  138   6.052   0.892   5.028  0.3542  0.4540  0.2868
    1MOL   H139  139   6.334   1.064   4.966 -2.1959 -1.5222  2.6328
    1MOL   H140  140   6.349   0.952   4.828  0.8532  2.2536 -0.6445
    1MOL   H141  141   6.343   0.885   5.112 -0.0277 -0.5845  0.5078
    1MOL   H142  142   6.343   0.762   4.985  0.4310  0.5039  1.0925
    2MOL     C1  143   2.096   6.128   3.207  0.0499 -0.2128  0.2571
    2MOL     C2  144   2.189   6.244   3.248  1.0842 -0.2093  0.2253
    2MOL     C3  145   2.262   6.283   3.128 -0.4673 -0.2532  0.1469
    2MOL     N4  146   2.319   6.308   3.029  0.5681  0.5394 -0.1938
    2MOL     H5  147   2.016   6.160   3.141 -0.7903 -2.6884  0.0469
    2MOL     H6  148   2.041   6.078   3.286  1.8929 -1.7968  0.5964
    2MOL     H7  149   2.264   6.187   3.304  0.6887 -2.3909 -1.4003
    2MOL     H8  150   2.159   6.052   3.161  0.8489  1.0039 -0.6995
    2MOL     C9  151   2.124   6.358   3.329 -0.4524 -0.6157  0.0616
    2MOL    C10  152   2.050   6.316   3.459 -0.0602  0.1175 -0.2902
    2MOL    C11  153   2.131   6.217   3.522  0.0301  0.4045 -0.4106
    2MOL    N12  154   2.195   6.136   3.577 -0.6675 -0.0498  0.7201
    2MOL    H13  155   2.199   6.434   3.346  0.6388 -1.0981 -2.5238
    2MOL    H14  156   2.053   6.403   3.260 -0.6253 -0.1187  0.5539
    2MOL    H15  157   1.957   6.262   3.439 -0.4438  0.2723  1.0407
    2MOL    C16  158   2.021   6.443   3.539 -0.4675  0.4268 -0.2356
    2MOL    C17  159   1.929   6.407   3.661 -0.1168  0.5522  0.0907
    2MOL    C18  160   2.009   6.341   3.762 -0.2423  0.2616  0.4201
    2MOL    N19  161   2.073   6.298   3.840  0.3144  0.1130 -0.2290
    2MOL    H20  162   2.107   6.500   3.575 -0.6123  0.0270  0.7469
    2MOL    H21  163   1.963   6.508   3.474 -0.7295 -0.4239 -0.8548
    2MOL    H22  164   1.847   6.339   3.639 -0.2219 -0.0653  2.2560
    2MOL    C23  165   1.881   6.544   3.731  0.5089  0.2466 -0.5476
    2MOL    C24  166   1.790   6.639   3.652 -0.1887 -0.2006  0.5082
    2MOL    C25  167   1.654   6.575   3.673 -1.2714 -0.1241 -0.5016
    2MOL    N26  168   1.548   6.530   3.679  0.6083 -1.0174  0.1145
    2MOL    H27  169   1.829   6.521   3.823  4.0567  0.2987  1.5967
    2MOL    H28  170   1.973   6.594   3.764  0.0997  0.3399  0.4759
    2MOL    H29  171   1.811   6.643   3.545 -1.9045  2.8031  0.2543
    2MOL    C30  172   1.798   6.788   3.714  0.5475 -0.2127  0.3821
    2MOL    C31  173   1.705   6.884   3.643  0.4356 -0.5007  0.2021
    2MOL    C32  174   1.671   6.841   3.504 -0.8522  0.5990  0.3535
    2MOL    N33  175   1.650   6.806   3.396  0.0678 -0.2821  0.4896
    2MOL    H34  176   1.785   6.801   3.821 -0.5841 -0.3751  0.2671
    2MOL    H35  177   1.906   6.802   3.713  0.3881  1.2004  1.7976
    2MOL    H36  178   1.742   6.986   3.634 -0.5204 -0.3476 -2.6622
    2MOL    C37  179   1.569   6.905   3.719 -1.0343  0.2569  0.1399
    2MOL    C38  180   1.451   6.972   3.639  0.2572  0.3308  0.2751
    2MOL    C39  181   1.486   7.091   3.554 -0.1025 -1.2939  0.5501
    2MOL    N40  182   1.515   7.185   3.492 -0.0451 -0.3925 -0.1505
    2MOL    H41  183   1.550   6.806   3.758 -1.5751  0.0701 -0.5807
    2MOL    H42  184   1.578   6.963   3.811 -0.7813 -1.1153  0.9836
    2MOL    H43  185   1.399   7.013   3.725 -2.3715 -2.2399  0.0065
    2MOL    C44  186   1.356   6.862   3.579  0.1095 -0.1662 -0.0941
    2MOL    C45  187   1.206   6.896   3.585 -1.4617 -0.5666 -0.3208
    2MOL    C46  188   1.171   7.030   3.528 -0.4509  0.3972  0.4084
    2MOL    N47  189   1.155   7.135   3.481 -0.2424  0.3588 -0.2177
    2MOL    H48  190   1.388   6.855   3.475  1.8740  3.3934  0.1694
    2MOL    H49  191   1.377   6.762   3.618  0.0147  1.0515  3.1932
    2MOL    H50  192   1.180   6.918   3.688 -0.4956  1.0031 -0.3996
    2MOL    C51  193   1.120   6.778   3.538 -0.3780  0.1614 -0.4701
    2MOL    C52  194   1.142   6.735   3.387  0.0261 -0.1133 -0.2090
    2MOL    C53  195   1.252   6.638   3.372  0.5736 -0.1740 -0.2039
    2MOL    N54  196   1.336   6.561   3.358 -0.4940  0.3113  0.1760
    2MOL    H55  197   1.147   6.690   3.596 -1.3235  0.0714 -0.1679
    2MOL    H56  198   1.016   6.805   3.557 -0.7719 -1.8216  0.3138
    2MOL    H57  199   1.176   6.827   3.339  0.1534  0.3294  0.7003
    2MOL    C58  200   1.003   6.696   3.316  0.1058  0.4003  0.6372
    2MOL    C59  201   0.885   6.794   3.306 -0.5467  0.1557 -0.5019
    2MOL    C60  202   0.917   6.923   3.254  0.0745  0.3392 -0.6739
    2MOL    N61  203   0.943   7.026   3.209  0.6697 -0.5253 -0.2420
    2MOL    H62  204   1.038   6.657   3.221  2.2377  1.4380  0.9598
    2MOL    H63  205   0.974   6.620   3.389 -0.3399  0.7765  0.8548
    2MOL    H64  206   0.868   6.807   3.413 -1.7806 -0.5064 -0.6080
    2MOL    C65  207   0.747   6.739   3.263  0.4548 -0.5845 -0.4337
    2MOL    C66  208   0.720   6.768   3.112  0.4453 -0.2904  0.3305
    2MOL    C67  209   0.817   6.680   3.038  0.3569 -0.3950  0.2304
    2MOL    N68  210   0.881   6.611   2.972  0.0244 -0.0466 -0.1282
    2MOL    H69  211   0.736   6.632   3.279 -0.6125 -0.7333 -2.0757
    2MOL    H70  212   0.669   6.796   3.315  0.4905  0.4398 -1.4920
    2MOL    H71  213   0.746   6.871   3.086  0.1876 -0.3085 -0.0088
    2MOL    C72  214   0.577   6.759   3.065  0.2392  0.0633  0.5021
    2MOL    C73  215   0.519   6.621   3.078  0.0577  0.3504 -0.2089
    2MOL    C74  216   0.494   6.575   3.218 -0.3352  0.1658  0.3804
    2MOL    N75  217   0.469   6.537   3.325  0.4717  0.5489 -0.5096
    2MOL    H76  218   0.515   6.835   3.113 -0.9078 -0.3948 -0.2426
    2MOL    H77  219   0.566   6.796   2.963 -2.9725 -1.8919  0.0550
    2MOL    H78  220   0.586   6.554   3.023 -1.3356 -0.8775 -0.4478
    2MOL    C79  221   0.382   6.635   3.000  0.5125  0.2678  0.2842
    2MOL    C80  222   0.298   6.504   2.982 -0.4160 -0.0483 -0.1098
    2MOL    C81  223   0.152   6.538   2.967 -0.1673  0.1668 -1.0544
    2MOL    N82  224   0.039   6.554   2.962 -0.1010 -0.7517  0.1574
    2MOL    H83  225   0.327   6.709   3.059  1.0028  0.3625  0.6241
    2MOL    H84  226   0.401   6.685   2.905  1.1723  0.1735  0.3643
    2MOL    H85  227   0.308   6.438   3.069  0.1801  1.4120  0.9434
    2MOL    C86  228   0.356   6.421   2.864  0.2991 -0.4102 -0.3939
    2MOL    C87  229   0.272   6.300   2.818  0.2369 -0.3752  0.4459
    2MOL    C88  230   0.367   6.205   2.757 -0.2011  0.3017  0.3687
    2MOL    N89  231   0.441   6.130   2.715 -0.2780 -0.4984 -0.0621
    2MOL    H90  232   0.365   6.483   2.775 -0.4870 -2.2604 -1.8015
    2MOL    H91  233   0.460   6.393   2.877  1.6284  3.5624 -1.8215
    2MOL    H92  234   0.200   6.338   2.745  0.0247 -1.3628  0.1243
    2MOL    C93  235   0.201   6.215   2.922  0.1902  0.6675  0.4311
    2MOL    C94  236   0.134   6.087   2.866  0.2123 -1.2181  0.6625
    2MOL    C95  237   0.099   6.001   2.988 -0.2441 -0.5025 -0.0751
    2MOL    N96  238   0.072   5.942   3.083 -0.1271 -0.6032  0.4876
    2MOL    H97  239   0.281   6.184   2.990 -1.2187 -1.4752  1.1638
    2MOL    H98  240   0.123   6.269   2.975  1.0347  0.6702  1.7234
    2MOL    H99  241   0.207   6.024   2.816 -1.5774 -1.4905 -1.6809
    2MOL   C100  242   0.014   6.107   2.775 -0.0739 -0.4321 -0.2909
    2MOL   C101  243   0.001   6.000   2.666 -0.3490  0.0712  0.0380
    2MOL   C102  244   8.248   5.880   2.715 -0.0262 -0.4302 -0.2729
    2MOL   N103  245   8.198   5.782   2.749 -0.9787  0.4286 -0.1694
    2MOL   H104  246   8.245   6.115   2.846  0.4346  0.5388  0.1980
    2MOL   H105  247   0.035   6.203   2.727 -0.7274  1.2276  2.6076
    2MOL   H106  248   0.101   5.964   2.642  0.5593  2.1092  0.6636
    2MOL   C107  249   8.270   6.041   2.530 -0.9622  0.3794 -0.4720
    2MOL   C108  250   8.307   5.946   2.415 -0.2307 -0.6989  0.1568
    2MOL   C109  251   8.213   5.965   2.305  0.4673  0.3520 -0.0716
    2MOL   N110  252   8.140   5.989   2.214 -0.4560 -0.3897  0.2323
    2MOL   H111  253   8.163   6.063   2.533 -0.9632  0.1580  1.9705
    2MOL   H112  254   8.311   6.141   2.517  0.1136 -0.0544 -0.4262
    2MOL   H113  255   8.296   5.843   2.450 -0.3391 -1.2440 -1.4108
    2MOL   C114  256   0.141   5.962   2.371 -0.5178  0.8164  0.1487
    2MOL   C115  257   0.205   5.858   2.273 -0.2851 -0.9618  0.7043
    2MOL   C116  258   0.157   5.720   2.296  0.6236 -0.0590 -0.1296
    2MOL   N117  259   0.111   5.618   2.322  0.0490 -0.4726  0.0647
    2MOL   H118  260   0.154   6.065   2.338  0.1649  0.4434 -0.7694
    2MOL   H119  261   0.213   5.954   2.452  0.5883  0.9650 -0.8061
    2MOL   H120  262   0.314   5.848   2.277 -0.1578  0.4078  0.9190
    2MOL   C121  263   0.187   5.917   2.133 -0.8633  0.0626 -0.2424
    2MOL   C122  264   0.272   6.035   2.097  0.5198  0.0046 -0.4314
    2MOL   C123  265   0.407   6.024   2.147 -0.6223  0.5988 -0.0721
    2MOL   N124  266   0.516   6.006   2.184 -0.1158 -0.0400  0.0291
    2MOL   H125  267   0.210   5.839   2.060  1.9677  3.2120 -2.9170
    2MOL   H126  268   0.088   5.948   2.099 -0.4278 -0.5022 -2.0941
    2MOL   H127  269   0.223   6.117   2.149 -1.8560 -1.4248 -0.3350
    2MOL   C128  270   0.268   6.077   1.947 -0.3799 -0.6466  0.5022
    2MOL   C129  271   0.327   5.979   1.840  0.3722  0.3471 -0.2024
    2MOL   C130  272   0.232   5.867   1.804 -0.2817 -0.1397 -0.3287
    2MOL   N131  273   0.157   5.788   1.777 -0.6945  0.0420  0.5121
    2MOL   H132  274   0.163   6.093   1.921 -0.0074  0.1751 -0.5481
    2MOL   H133  275   0.321   6.171   1.931 -1.8853  0.0092 -0.7749
    2MOL   H134  276   0.412   5.937   1.895 -0.1573  1.7592  1.7601
    2MOL   C135  277   0.390   6.050   1.726  0.3165  0.3682 -0.2534
    2MOL   C136  278   0.481   5.958   1.644 -0.2985  0.5110 -0.2203
    2MOL   C137  279   0.597   5.912   1.728 -0.2056 -0.9502  0.6212
    2MOL   N138  280   0.680   5.875   1.800 -0.6695 -0.4048  0.2568
    2MOL   H139  281   0.303   6.088   1.672 -0.5636 -0.1688  0.7759
    2MOL   H140  282   0.450   6.131   1.767  1.1274 -0.5434  0.3921
    2MOL   H141  283   0.528   6.003   1.556 -1.4645  3.5811  0.6617
    2MOL   H142  284   0.426   5.870   1.609  1.2711 -1.2380  1.5998
    3MOL     C1  285   7.120   5.221   4.950  1.0803  0.1534 -0.5868
    3MOL     C2  286   7.003   5.310   4.983 -0.0235  0.2124  0.0481
    3MOL     C3  287   6.879   5.228   4.969 -0.2619 -0.3915 -0.2954
    3MOL     N4  288   6.782   5.165   4.972  0.0532  0.0360  0.1267
    3MOL     H5  289   7.107   5.170   4.855 -0.7362  0.3589 -0.4697
    3MOL     H6  290   7.133   5.146   5.028 -2.1812 -0.1137 -0.2107
    3MOL     H7  291   6.986   5.373   4.896 -1.0327  0.7088  0.5989
    3MOL     H8  292   7.210   5.282   4.940  1.7022 -0.8722 -1.4472
    3MOL     C9  293   7.015   5.399   5.113  0.1824 -0.2748  0.3093
    3MOL    C10  294   7.130   5.502   5.114  0.2381  0.2564  0.0611
    3MOL    C11  295   7.156   5.586   4.996  0.7847 -0.2669  0.0546
    3MOL    N12  296   7.179   5.653   4.908 -0.2827  0.0507 -0.3104
    3MOL    H13  297   6.916   5.437   5.137  0.6846 -0.2232  2.4216
    3MOL    H14  298   7.029   5.332   5.199  2.1135 -1.5201 -0.9318
    3MOL    H15  299   7.227   5.452   5.118  1.2337  2.1808  0.7894
    3MOL    C16  300   7.110   5.590   5.237  0.1676  0.0234  0.1030
    3MOL    C17  301   7.220   5.700   5.260  0.1234  0.6021  0.1715
    3MOL    C18  302   7.168   5.798   5.358 -0.6358 -0.2151 -0.0540
    3MOL    N19  303   7.130   5.869   5.441  0.3227 -0.0186  0.6336
    3MOL    H20  304   7.017   5.646   5.232  1.0422  1.4406 -1.0561
    3MOL    H21  305   7.086   5.538   5.329  1.9210 -0.1216  0.5040
    3MOL    H22  306   7.228   5.764   5.171  0.4922 -0.6535 -0.7150
    3MOL    C23  307   7.360   5.649   5.306  0.2490  0.5880 -0.0550
    3MOL    C24  308   7.466   5.748   5.341  0.2196  0.5700 -0.5202
    3MOL    C25  309   7.461   5.866   5.245 -0.1909  1.0060 -0.7545
    3MOL    N26  310   7.451   5.957   5.176  0.3385  0.4399 -0.0809
    3MOL    H27  311   7.351   5.577   5.388  1.7703  1.3682  0.8229
    3MOL    H28  312   7.408   5.580   5.237 -0.3600 -0.0393  0.1406
    3MOL    H29  313   7.557   5.690   5.327 -0.8454 -1.8930  2.2045
    3MOL    C30  314   7.461   5.782   5.493  0.5431  0.8093 -0.2679
    3MOL    C31  315   7.580   5.866   5.534  0.5228 -0.4312  0.6073
    3MOL    C32  316   7.564   5.932   5.667  0.9631  0.2298  1.1062
    3MOL    N33  317   7.553   5.986   5.769 -0.0836  0.3769 -0.5432
    3MOL    H34  318   7.376   5.848   5.514 -1.8368 -2.8202  2.0454
    3MOL    H35  319   7.432   5.697   5.555 -0.0068  0.5283 -0.8987
    3MOL    H36  320   7.588   5.951   5.465  0.6004  0.3994  1.6292
    3MOL    C37  321   7.708   5.783   5.532  0.0876 -0.4033  0.0791
    3MOL    C38  322   7.722   5.666   5.630  0.0166  0.7258  0.3271
    3MOL    C39  323   7.666   5.548   5.564 -0.4977  0.2026  0.0089
    3MOL    N40  324   7.625   5.456   5.512 -0.1840 -0.8299 -0.6651
    3MOL    H41  325   7.757   5.760   5.438  1.6713  1.8866  0.2959
    3MOL    H42  326   7.784   5.856   5.560  1.5296 -2.1304  0.8265
    3MOL    H43  327   7.655   5.700   5.709 -2.2135  2.2461 -2.1474
    3MOL    C44  328   7.863   5.642   5.686 -0.6563  0.4283 -0.2779
    3MOL    C45  329   7.973   5.578   5.598 -1.0355  0.3920  0.5419
    3MOL    C46  330   7.962   5.608   5.456  0.5277  0.0086  0.5053
    3MOL    N47  331   7.961   5.630   5.342  0.3358  1.1470 -0.0816
    3MOL    H48  332   7.908   5.733   5.728  2.4936 -0.5399 -1.4255
    3MOL    H49  333   7.855   5.580   5.776 -1.4491  0.8250 -0.0672
    3MOL    H50  334   7.957   5.471   5.605 -1.6488  0.4572  0.1697
    3MOL    C51  335   8.118   5.607   5.651 -0.6208 -0.1921 -1.2308
    3MOL    C52  336   8.193   5.726   5.590 -0.1036 -0.1537  0.8146
    3MOL    C53  337   8.114   5.852   5.597 -0.1212  0.5982  0.0275
    3MOL    N54  338   8.052   5.947   5.602 -0.1466 -0.0474  0.0876
    3MOL    H55  339   8.105   5.617   5.759  0.0338 -1.8512 -0.9873
    3MOL    H56  340   8.186   5.525   5.628 -1.7710 -1.0827 -1.4894
    3MOL    H57  341   8.190   5.708   5.483  1.8178  0.2547  0.6741
    3MOL    C58  342   0.024   5.739   5.640  0.0658 -0.2947  0.0713
    3MOL    C59  343   0.040   5.835   5.763 -0.2802 -0.1833 -0.2121
    3MOL    C60  344   8.271   5.780   5.877  0.8267 -0.4844  1.0650
    3MOL    N61  345   8.210   5.732   5.963  0.5132  0.2192  0.0638
    3MOL    H62  346   0.061   5.645   5.680 -1.3042 -0.5133  0.8460
    3MOL    H63  347   0.095   5.767   5.562  1.4266  0.1217  1.4264
    3MOL    H64  348   8.307   5.933   5.748  0.0534  0.1020  0.5878
    3MOL    C65  349   0.188   5.852   5.800 -1.4120  0.2333  0.1644
    3MOL    C66  350   0.276   5.946   5.714 -0.5778  0.9165  0.3123
    3MOL    C67  351   0.234   6.087   5.737  0.2090 -0.7256 -0.6464
    3MOL    N68  352   0.192   6.200   5.751 -0.1526 -0.2055 -0.6960
    3MOL    H69  353   0.185   5.884   5.904  0.2012 -1.6619  0.8385
    3MOL    H70  354   0.224   5.749   5.801  0.8015  0.9803  1.9398
    3MOL    H71  355   0.264   5.929   5.607  1.8981 -1.7359  0.4120
    3MOL    C72  356   0.434   5.930   5.735 -0.0621 -0.1235 -0.0853
    3MOL    C73  357   0.516   5.986   5.616  0.2370 -0.3155 -0.3635
    3MOL    C74  358   0.485   6.129   5.587 -0.4638  0.1645  0.2031
    3MOL    N75  359   0.465   6.238   5.565 -0.2345 -0.1181  0.7373
    3MOL    H76  360   0.475   5.975   5.825 -1.0183  0.2576  0.1650
    3MOL    H77  361   0.456   5.825   5.754 -1.6032  0.0159  2.7547
    3MOL    H78  362   0.485   5.935   5.526 -1.1514 -1.8889  0.9847
    3MOL    C79  363   0.670   5.983   5.634  0.2388  0.1375  0.2324
    3MOL    C80  364   0.744   5.950   5.500  0.7445  0.2531  0.7517
    3MOL    C81  365   0.695   6.028   5.391 -0.2204  0.5186  0.2014
    3MOL    N82  366   0.662   6.089   5.298  0.7366 -0.2960 -0.4219
    3MOL    H83  367   0.709   6.073   5.682  0.7187  0.2573 -0.3756
    3MOL    H84  368   0.692   5.904   5.707  2.6970  2.3807  2.0323
    3MOL    H85  369   0.720   5.848   5.469  0.9861  0.4146  0.0465
    3MOL    C86  370   0.897   5.966   5.515  0.4910 -0.3824 -0.4554
    3MOL    C87  371   0.975   5.895   5.404  0.6008  0.6563  0.5410
    3MOL    C88  372   1.113   5.950   5.405  0.2287  0.7687  0.1570
    3MOL    N89  373   1.221   5.987   5.400 -0.8388 -0.0149  0.3967
    3MOL    H90  374   0.933   6.067   5.534 -1.7593  0.6581 -1.5141
    3MOL    H91  375   0.917   5.911   5.607 -0.3556 -0.4434 -0.2989
    3MOL    H92  376   0.934   5.926   5.308  0.6860 -0.6740  0.0715
    3MOL    C93  377   0.975   5.739   5.416 -0.7190 -0.4190 -0.4187
    3MOL    C94  378   1.028   5.648   5.301 -0.3238  0.1491 -0.0454
    3MOL    C95  379   1.161   5.692   5.252  0.1457  0.2005  0.4366
    3MOL    N96  380   1.266   5.727   5.215 -0.2948 -0.6518 -0.0987
    3MOL    H97  381   1.028   5.709   5.507 -0.7469  0.4419 -0.1108
    3MOL    H98  382   0.872   5.706   5.429 -1.0712  0.7789 -0.1134
    3MOL    H99  383   0.955   5.661   5.222 -0.1913 -0.2842 -0.2367
    3MOL   C100  384   1.040   5.502   5.338  0.2507 -0.1910  0.0239
    3MOL   C101  385   0.905   5.440   5.374 -0.3147 -0.3859 -0.3441
    3MOL   C102  386   0.826   5.411   5.247  0.2831  0.5697 -0.1800
    3MOL   N103  387   0.765   5.395   5.150 -0.3531  0.1956  0.3412
    3MOL   H104  388   1.080   5.442   5.256 -0.0134  0.9777 -0.9813
    3MOL   H105  389   1.107   5.492   5.423 -0.6839  1.1978  0.9358
    3MOL   H106  390   0.861   5.512   5.442 -0.2234  0.1711 -0.8717
    3MOL   C107  391   0.923   5.312   5.462 -0.0067  0.2759 -0.2728
    3MOL   C108  392   0.794   5.235   5.515  0.3541 -0.1262  0.2766
    3MOL   C109  393   0.696   5.337   5.558  0.7071  0.1313 -0.1825
    3MOL   N110  394   0.622   5.422   5.590 -0.3011  0.0053 -0.5590
    3MOL   H111  395   0.979   5.247   5.395 -0.5030  1.3650 -1.7649
    3MOL   H112  396   0.993   5.339   5.541  0.0959 -0.8622  0.0352
    3MOL   H113  397   0.823   5.182   5.605  0.2613 -3.7919 -1.7595
    3MOL   C114  398   0.732   5.129   5.424  0.5630  0.4016 -0.1734
    3MOL   C115  399   0.825   5.017   5.383 -0.2007  1.0459  0.2616
    3MOL   C116  400   0.944   4.998   5.465 -0.1581  0.1803 -0.0124
    3MOL   N117  401   1.032   4.984   5.540  0.4804 -0.2277  0.5248
    3MOL   H118  402   0.645   5.086   5.472  0.5628  0.3877 -0.1861
    3MOL   H119  403   0.692   5.169   5.331  0.4799 -1.3202 -0.8863
    3MOL   H120  404   0.868   5.046   5.287  2.5210  1.9256  1.7241
    3MOL   C121  405   0.756   4.884   5.360  0.1473  0.6476  0.8636
    3MOL   C122  406   0.647   4.894   5.247  0.0986 -0.2670  0.1646
    3MOL   C123  407   0.691   4.959   5.127 -0.0290 -0.0773 -0.3531
    3MOL   N124  408   0.734   5.011   5.039 -0.1410  0.5155  0.3663
    3MOL   H125  409   0.821   4.801   5.330 -1.8110 -1.0002  1.1023
    3MOL   H126  410   0.699   4.855   5.448 -1.4878  3.0189  0.6030
    3MOL   H127  411   0.564   4.957   5.279 -0.5462  0.4233 -2.7724
    3MOL   C128  412   0.580   4.761   5.207  0.0469  0.4825 -0.1625
    3MOL   C129  413   0.467   4.773   5.104 -0.4480 -0.2248  0.6699
    3MOL   C130  414   0.438   4.653   5.032 -0.5984  0.0394  0.4674
    3MOL   N131  415   0.410   4.561   4.968  0.5077 -0.3892  0.2453
    3MOL   H132  416   0.656   4.693   5.170 -1.1131 -0.3688 -1.0326
    3MOL   H133  417   0.542   4.715   5.298 -2.3580  1.9912 -0.3512
    3MOL   H134  418   0.512   4.841   5.031 -2.9123 -0.5420 -1.2072
    3MOL   C135  419   0.343   4.850   5.141  0.0830  0.2412  0.0703
    3MOL   C136  420   0.254   4.875   5.011 -0.0226  0.4475 -0.1429
    3MOL   C137  421   0.171   4.993   5.020 -0.1249  0.2057 -0.6172
    3MOL   N138  422   0.111   5.089   5.024  0.0715 -0.1620  0.0267
    3MOL   H139  423   0.289   4.794   5.218 -0.1788 -0.3083 -0.5113
    3MOL   H140  424   0.377   4.939   5.195  1.9512 -1.5650  1.9618
    3MOL   H141  425   0.185   4.790   5.018  0.7795 -0.3803 -1.9773
    3MOL   H142  426   0.297   4.884   4.912  2.1746  0.4364  0.7627
    4MOL     C1  427   2.956   7.683   6.411  0.0577  0.1844 -0.1883
    4MOL     C2  428   3.023   7.799   6.493 -0.1547  0.1577  0.0210
    4MOL     C3  429   2.990   7.933   6.443 -1.1622 -0.3590  0.1791
    4MOL     N4  430   2.964   8.035   6.404 -0.6437 -0.0185 -0.0025
    4MOL     H5  431   2.865   7.646   6.459 -0.2327 -1.9642 -2.3250
    4MOL     H6  432   3.023   7.597   6.403  1.0931  1.0844 -1.1874
    4MOL     H7  433   3.131   7.791   6.480 -0.3104 -2.1208 -0.0873
    4MOL     H8  434   2.917   7.725   6.319 -0.3528  1.1883  0.4302
    4MOL     C9  435   2.998   7.775   6.648 -0.1826  0.1921 -0.3690
    4MOL    C10  436   3.038   7.889   6.740  0.7148 -0.2018  0.3657
    4MOL    C11  437   2.968   7.882   6.872 -0.1549 -0.8372 -0.2211
    4MOL    N12  438   2.913   7.876   6.974  0.6039  0.1613 -0.1632
    4MOL    H13  439   2.893   7.745   6.659 -0.0024 -0.7482 -1.1114
    4MOL    H14  440   3.053   7.686   6.681  0.1051  0.0891 -1.1200
    4MOL    H15  441   2.992   7.975   6.691  0.8207  0.6111  1.6672
    4MOL    C16  442   3.189   7.913   6.741  0.4829 -0.1986 -0.1575
    4MOL    C17  443   3.239   8.040   6.814 -0.2323  0.4502  0.2620
    4MOL    C18  444   3.378   8.020   6.865  0.2980  0.6742 -0.0510
    4MOL    N19  445   3.486   8.001   6.907 -0.2543  0.7540  0.3042
    4MOL    H20  446   3.228   7.825   6.792 -2.6415 -0.7676  1.3449
    4MOL    H21  447   3.227   7.896   6.640 -2.4201 -1.0587 -1.1699
    4MOL    H22  448   3.191   8.056   6.911  1.4628  0.1544  1.1629
    4MOL    C23  449   3.204   8.178   6.745  0.5477  0.6493  0.9140
    4MOL    C24  450   3.249   8.185   6.592  0.3679 -0.8416 -0.0150
    4MOL    C25  451   3.174   8.299   6.531  0.0883  0.0211 -0.2006
    4MOL    N26  452   3.113   0.073   6.491  0.0164 -0.3955  0.3967
    4MOL    H27  453   3.097   8.198   6.757  0.2368 -1.0991  1.2248
    4MOL    H28  454   3.253   8.265   6.788 -1.5574  2.6931 -0.6898
    4MOL    H29  455   3.206   8.107   6.530 -2.9053  1.4581 -0.7054
    4MOL    C30  456   3.403   8.193   6.575  0.1738  0.1509  0.0623
    4MOL    C31  457   3.467   8.164   6.440  0.1130  0.0964  0.6379
    4MOL    C32  458   3.419   8.029   6.398  0.6108 -0.8108 -0.2429
    4MOL    N33  459   3.378   7.929   6.363  0.0771  0.4746 -0.1473
    4MOL    H34  460   3.437   8.290   6.613  0.9338  1.4039 -3.6007
    4MOL    H35  461   3.444   8.125   6.650  0.6217  0.1167 -0.2092
    4MOL    H36  462   3.574   8.146   6.443  0.1996  0.5435  0.2677
    4MOL    C37  463   3.434   8.278   6.337  1.0125  0.4204 -0.6001
    4MOL    C38  464   3.470   0.110   6.372 -0.0024 -0.2311  0.0527
    4MOL    C39  465   3.606   0.111   6.440 -0.0478 -0.1578  1.2724
    4MOL    N40  466   3.711   0.104   6.490  0.1203 -0.3118  0.1439
    4MOL    H41  467   3.477   8.246   6.242  2.6957  0.6148  0.0797
    4MOL    H42  468   3.327   8.277   6.317  1.3146  0.9443 -2.3259
    4MOL    H43  469   3.403   0.133   6.455 -2.7967 -3.7096 -1.1313
    4MOL    C44  470   3.449   0.224   6.268 -0.3789  0.2631  0.0325
    4MOL    C45  471   3.490   0.367   6.315 -0.5482  0.3581  0.1921
    4MOL    C46  472   3.632   0.380   6.331  0.1817 -0.2557  0.7046
    4MOL    N47  473   3.746   0.387   6.348 -0.8815  0.6633 -0.3832
    4MOL    H48  474   3.506   0.209   6.176  0.7588 -1.0178  0.9335
    4MOL    H49  475   3.349   0.217   6.226 -0.7905  0.7517  0.9168
    4MOL    H50  476   3.451   0.372   6.416  0.5166 -0.9690  0.6925
    4MOL    C51  477   3.433   0.484   6.229 -0.4101  0.1333  0.1689
    4MOL    C52  478   3.431   0.625   6.299  0.2303 -0.1106  0.5403
    4MOL    C53  479   3.570   0.681   6.296  0.2392 -0.5078  0.1084
    4MOL    N54  480   3.676   0.730   6.292 -0.4087  0.2932 -0.1892
    4MOL    H55  481   3.496   0.484   6.140  1.2934  0.5043  1.3545
    4MOL    H56  482   3.332   0.458   6.198 -0.4338  0.5735 -0.1302
    4MOL    H57  483   3.402   0.602   6.401  1.7719 -0.4856  0.9154
    4MOL    C58  484   3.326   0.723   6.235 -0.0249 -0.6362  0.1668
    4MOL    C59  485   3.175   0.684   6.256 -0.4477 -0.3208 -0.6772
    4MOL    C60  486   3.146   0.669   6.405 -0.4468  1.1413  0.6790
    4MOL    N61  487   3.124   0.649   6.516  0.3424 -0.0571 -0.3062
    4MOL    H62  488   3.329   0.818   6.288 -0.0724  0.4290 -1.6885
    4MOL    H63  489   3.339   0.750   6.130  1.8513  0.2816  0.6104
    4MOL    H64  490   3.149   0.585   6.220 -0.1593 -0.3633 -0.7650
    4MOL    C65  491   3.072   0.780   6.198 -0.7115 -0.6946  0.0461
    4MOL    C66  492   3.043   0.777   6.045 -0.2457 -0.0308  0.7004
    4MOL    C67  493   3.078   0.650   5.976 -0.3601  0.4269  0.3884
    4MOL    N68  494   3.100   0.546   5.921 -0.1882  0.8763 -0.3877
    4MOL    H69  495   2.977   0.746   6.239  0.0092 -1.0607  1.4188
    4MOL    H70  496   3.082   0.882   6.237 -0.6644 -0.5218 -0.4177
    4MOL    H71  497   3.115   0.843   5.996 -1.1635 -0.5522 -1.4204
    4MOL    C72  498   2.899   0.828   6.015 -0.0806 -0.2094 -0.3515
    4MOL    C73  499   2.854   0.816   5.869  0.3177  0.1141 -0.2596
    4MOL    C74  500   2.805   0.685   5.829 -0.1934  0.5686  0.6902
    4MOL    N75  501   2.760   0.583   5.800  0.5230  0.2560 -0.3558
    4MOL    H76  502   2.827   0.783   6.084 -1.2739 -0.5985 -1.8340
    4MOL    H77  503   2.910   0.932   6.046  0.1721 -0.4215  0.2760
    4MOL    H78  504   2.938   0.825   5.801  0.7662 -1.5232  0.0687
    4MOL    C79  505   2.762   0.937   5.831 -0.4335  0.1900  0.3283
    4MOL    C80  506   2.624   0.940   5.896 -0.1669  0.1125  0.3525
    4MOL    C81  507   2.619   0.929   6.041 -0.3081 -0.1541  0.5062
    4MOL    N82  508   2.608   0.922   6.153 -0.6131  0.5626 -0.9369
    4MOL    H83  509   2.824   1.025   5.850  1.1868 -0.4376 -1.9225
    4MOL    H84  510   2.733   0.930   5.726  1.6180  2.7429 -0.4592
    4MOL    H85  511   2.570   0.851   5.863 -1.7961  0.8658  0.9404
    4MOL    C86  512   2.537   1.062   5.849 -0.2127 -0.1498 -0.6620
    4MOL    C87  513   2.385   1.036   5.842 -0.8550  0.2314 -0.2670
    4MOL    C88  514   2.338   0.962   5.956 -0.7144 -0.4591  0.1776
    4MOL    N89  515   2.302   0.899   6.049  0.5052 -0.6772 -0.7928
    4MOL    H90  516   2.552   1.146   5.917  0.6621  0.8374 -2.0547
    4MOL    H91  517   2.570   1.089   5.749  1.9078 -0.6257 -0.1244
    4MOL    H92  518   2.370   0.968   5.758  0.3868 -1.2778  0.7162
    4MOL    C93  519   2.302   1.163   5.812 -0.6139 -0.8417 -0.2621
    4MOL    C94  520   2.153   1.157   5.833  0.0156  0.5945  0.4458
    4MOL    C95  521   2.111   1.024   5.791  0.4379  0.3380 -0.2214
    4MOL    N96  522   2.084   0.914   5.764  0.6570 -0.1172  0.3290
    4MOL    H97  523   2.335   1.247   5.873 -0.0799 -1.4358  0.2872
    4MOL    H98  524   2.314   1.198   5.710 -0.3570  2.0731  0.7362
    4MOL    H99  525   2.102   1.226   5.765  0.3659  0.1081 -0.3190
    4MOL   C100  526   2.111   1.208   5.974 -1.0992  0.5196  0.5063
    4MOL   C101  527   1.956   1.229   5.999  0.2847 -0.2032 -0.3922
    4MOL   C102  528   1.931   1.253   6.145  0.5326 -0.4842 -0.3122
    4MOL   N103  529   1.910   1.274   6.256 -0.1747 -0.7253  0.5952
    4MOL   H104  530   2.137   1.126   6.040 -3.1474  0.6351  1.5149
    4MOL   H105  531   2.169   1.297   6.000  0.6621 -0.9499  1.7042
    4MOL   H106  532   1.913   1.129   5.995 -1.3155  0.5529 -2.2457
    4MOL   C107  533   1.899   1.325   5.890 -0.2736 -0.0069 -0.4213
    4MOL   C108  534   1.751   1.361   5.895 -0.7355 -0.5111  0.1619
    4MOL   C109  535   1.661   1.245   5.878  0.0329 -0.1579  0.0440
    4MOL   N110  536   1.586   1.159   5.860  0.1767  0.4346 -0.1225
    4MOL   H111  537   1.967   1.408   5.873 -0.2010 -0.5399 -2.8094
    4MOL   H112  538   1.903   1.273   5.795 -0.6747  1.8831 -1.5065
    4MOL   H113  539   1.742   1.428   5.809  1.2545  0.0174  0.3431
    4MOL   C114  540   1.697   1.435   6.020  0.6339  1.2839 -0.1505
    4MOL   C115  541   1.788   1.557   6.047 -0.1249 -0.0584  0.5390
    4MOL   C116  542   1.809   1.630   5.923  0.1082 -0.2197 -0.6087
    4MOL   N117  543   1.821   1.693   5.825  0.7257 -0.1778 -0.1308
    4MOL   H118  544   1.594   1.468   6.007  1.1351  2.8194 -0.3148
    4MOL   H119  545   1.707   1.372   6.108  0.2682 -0.3973 -1.2924
    4MOL   H120  546   1.884   1.514   6.076 -0.0794 -0.2754  0.0724
    4MOL   C121  547   1.733   1.653   6.156  0.0050 -0.0654  0.7155
    4MOL   C122  548   1.629   1.762   6.126  0.0269 -0.4564  0.3586
    4MOL   C123  549   1.515   1.708   6.044  0.3619  0.2489  0.0379
    4MOL   N124  550   1.425   1.668   5.981  0.1224 -0.0026  0.4893
    4MOL   H125  551   1.697   1.598   6.243  0.6394  0.4264  1.3010
    4MOL   H126  552   1.817   1.702   6.206  0.2328 -1.2631  1.5295
    4MOL   H127  553   1.673   1.834   6.057 -1.3053 -0.9869 -1.0923
    4MOL   C128  554   1.572   1.846   6.245 -0.0343  1.2864 -1.2470
    4MOL   C129  555   1.482   1.964   6.211 -0.6456  0.3518  0.3712
    4MOL   C130  556   1.355   1.931   6.153 -0.0362 -0.2735  1.0236
    4MOL   N131  557   1.247   1.908   6.110 -0.4554  0.2708 -0.2314
    4MOL   H132  558   1.507   1.779   6.300  1.7664  0.6213  0.1108
    4MOL   H133  559   1.654   1.884   6.306  1.4535 -0.5120 -2.1025
    4MOL   H134  560   1.527   2.028   6.134  2.9532 -1.1627  1.0829
    4MOL   C135  561   1.464   2.052   6.339 -0.3427 -0.1664  0.8479
    4MOL   C136  562   1.331   2.141   6.341 -0.1592  0.9722  0.5122
    4MOL   C137  563   1.316   2.212   6.208  0.0068  0.1887  0.1072
    4MOL   N138  564   1.302   2.275   6.112 -0.7369  0.3727  0.7173
    4MOL   H139  565   1.448   1.988   6.426 -1.9914 -2.5521 -1.1402
    4MOL   H140  566   1.548   2.120   6.356 -0.2393  0.1099 -0.7028
    4MOL   H141  567   1.343   2.205   6.428  1.8814  0.8168  0.3825
    4MOL   H142  568   1.232   2.097   6.349  1.2296 -1.8567  3.0267
    5MOL     C1  569   4.783   4.022   4.596  0.3644 -0.0703  0.7799
    5MOL     C2  570   4.831   3.910   4.506  0.5034 -0.0573  0.1979
    5MOL     C3  571   4.811   3.783   4.572 -0.1660  0.4130 -0.9394
    5MOL     N4  572   4.793   3.684   4.624  0.1788 -0.0773 -0.0190
    5MOL     H5  573   4.678   4.020   4.623  0.7344  0.0206  2.2658
    5MOL     H6  574   4.822   4.112   4.548  0.3275  0.3251  1.4905
    5MOL     H7  575   4.938   3.921   4.490  0.5795 -0.6965  0.2734
    5MOL     H8  576   4.842   4.030   4.687  1.0611  0.9126  0.2525
    5MOL     C9  577   4.768   3.904   4.375 -0.4049 -0.7350  0.3203
    5MOL    C10  578   4.618   3.873   4.374 -0.1092 -0.1649  0.2599
    5MOL    C11  579   4.521   3.977   4.427 -0.5562 -0.0789 -0.0815
    5MOL    N12  580   4.448   4.054   4.472  0.1288 -0.5766 -0.2219
    5MOL    H13  581   4.794   3.986   4.307 -0.3604 -0.8148  0.2404
    5MOL    H14  582   4.815   3.816   4.333  1.2320  0.3697 -0.2521
    5MOL    H15  583   4.586   3.795   4.443 -2.8693  0.5598 -0.1442
    5MOL    C16  584   4.569   3.827   4.230  0.4810 -0.5408 -0.5452
    5MOL    C17  585   4.539   3.936   4.124 -0.0110 -0.0450 -0.4128
    5MOL    C18  586   4.649   4.026   4.098  0.4050  0.1049 -0.1923
    5MOL    N19  587   4.740   4.097   4.077 -0.3402  0.1359  0.2159
    5MOL    H20  588   4.633   3.745   4.197  0.9959 -0.7834  1.0433
    5MOL    H21  589   4.476   3.775   4.253 -0.7070  1.0535 -1.6703
    5MOL    H22  590   4.468   4.003   4.171  1.9514  0.7244  1.5652
    5MOL    C23  591   4.465   3.896   3.994 -0.2996  0.0723 -0.1962
    5MOL    C24  592   4.431   4.005   3.896 -0.4353  0.5791  0.1439
    5MOL    C25  593   4.355   3.944   3.783 -0.7359 -0.1024  0.7054
    5MOL    N26  594   4.292   3.897   3.700  0.4134  0.0724 -0.7704
    5MOL    H27  595   4.521   3.821   3.937 -1.0950 -0.7657  0.1013
    5MOL    H28  596   4.372   3.851   4.030 -0.2961  0.5721  0.4384
    5MOL    H29  597   4.522   4.052   3.860  0.3067 -2.6094 -2.4066
    5MOL    C30  598   4.349   4.122   3.962 -0.5300  0.6620 -0.1246
    5MOL    C31  599   4.200   4.088   3.996 -0.4078 -0.2197  0.0267
    5MOL    C32  600   4.184   3.993   4.110  1.1741  0.7841 -0.7916
    5MOL    N33  601   4.168   3.923   4.199 -0.3661  0.2056  0.1962
    5MOL    H34  602   4.402   4.176   4.040  0.0955 -1.2225  0.7751
    5MOL    H35  603   4.337   4.198   3.884  0.0115  2.1065  1.1745
    5MOL    H36  604   4.152   4.047   3.907  2.7470  0.0253 -1.8812
    5MOL    C37  605   4.121   4.216   4.023  0.2864  0.0053 -0.1055
    5MOL    C38  606   3.990   4.206   4.106  0.0434  0.0362 -0.1017
    5MOL    C39  607   3.943   4.346   4.142 -0.4990  0.6721 -0.8050
    5MOL    N40  608   3.911   4.454   4.169 -0.1461 -0.3080 -0.3362
    5MOL    H41  609   4.184   4.271   4.093 -1.3491  1.6536  0.1327
    5MOL    H42  610   4.109   4.265   3.927 -0.5910 -0.2019 -0.1057
    5MOL    H43  611   4.015   4.155   4.199  1.0580  2.0551  0.7604
    5MOL    C44  612   3.870   4.123   4.039 -0.4232  0.0180 -0.2031
    5MOL    C45  613   3.749   4.106   4.135  0.3553  0.3542 -0.3410
    5MOL    C46  614   3.781   4.034   4.268  0.5268  0.1725  0.6161
    5MOL    N47  615   3.800   3.976   4.365 -0.6596 -0.0006  0.0064
    5MOL    H48  616   3.835   4.172   3.948 -1.1810 -1.1767 -0.5690
    5MOL    H49  617   3.891   4.021   4.008 -2.7599 -0.7869  0.7125
    5MOL    H50  618   3.683   4.033   4.088  0.4141  0.2500 -0.2622
    5MOL    C51  619   3.661   4.233   4.149 -0.2073  1.0554  0.1161
    5MOL    C52  620   3.546   4.203   4.245  0.3894  0.8455  0.7523
    5MOL    C53  621   3.476   4.328   4.288  0.0618 -0.2713  0.1314
    5MOL    N54  622   3.421   4.423   4.322 -0.0629 -0.2474 -0.8721
    5MOL    H55  623   3.710   4.321   4.192  1.5777  1.1333 -2.0221
    5MOL    H56  624   3.622   4.270   4.054 -0.8930 -1.0978 -0.4651
    5MOL    H57  625   3.583   4.165   4.340  1.8074 -0.7503 -0.4008
    5MOL    C58  626   3.434   4.114   4.182 -0.1354  0.3710 -1.0767
    5MOL    C59  627   3.301   4.102   4.254 -0.6044  0.5841 -0.2892
    5MOL    C60  628   3.189   4.070   4.157  0.1651 -0.5390  0.6645
    5MOL    N61  629   3.111   4.049   4.076  0.0069  0.4492 -0.4459
    5MOL    H62  630   3.412   4.153   4.083  0.3529 -0.1777 -1.4066
    5MOL    H63  631   3.481   4.018   4.161  0.0406  0.2140  0.0048
    5MOL    H64  632   3.260   4.192   4.300 -0.2119  0.7153 -0.1988
    5MOL    C65  633   3.298   3.995   4.369 -0.2442  0.1942 -0.1377
    5MOL    C66  634   3.167   3.997   4.453 -0.2445 -0.0580 -0.2174
    5MOL    C67  635   3.092   3.870   4.440  0.3581  0.2117  0.4448
    5MOL    N68  636   3.032   3.768   4.433 -0.5924  0.1026 -0.1357
    5MOL    H69  637   3.303   3.893   4.331  0.0709  0.4113 -0.6789
    5MOL    H70  638   3.383   4.010   4.435  0.7185 -0.9605 -1.0782
    5MOL    H71  639   3.102   4.068   4.401  0.8565  0.6883 -0.5847
    5MOL    C72  640   3.190   4.044   4.596 -0.0160  0.4867 -0.3161
    5MOL    C73  641   3.067   4.033   4.681  0.2794 -0.2350 -0.1201
    5MOL    C74  642   3.036   3.892   4.730  0.3157  0.0258  0.0338
    5MOL    N75  643   3.018   3.782   4.766  0.0762 -0.8951 -0.0330
    5MOL    H76  644   3.265   3.977   4.639 -0.4633  0.7882  0.9282
    5MOL    H77  645   3.241   4.140   4.597  1.4493 -0.2712 -1.0950
    5MOL    H78  646   2.986   4.065   4.616  0.5084  0.8178  0.0913
    5MOL    C79  647   3.066   4.125   4.801  0.6449  0.1510 -0.5555
    5MOL    C80  648   3.166   4.096   4.919 -0.5524  0.1204  0.1094
    5MOL    C81  649   3.304   4.123   4.886  0.0043 -0.3603 -0.3124
    5MOL    N82  650   3.417   4.141   4.864  0.6518 -0.3405 -0.0112
    5MOL    H83  651   3.081   4.228   4.769  1.1091  0.2782  0.0634
    5MOL    H84  652   2.962   4.116   4.832  1.1653 -4.1311  0.2549
    5MOL    H85  653   3.161   3.988   4.933  1.0925 -0.0407 -0.4825
    5MOL    C86  654   3.134   4.163   5.050  0.8475  0.6711  0.1090
    5MOL    C87  655   2.996   4.120   5.108  0.0608  1.0784 -0.0144
    5MOL    C88  656   2.972   3.972   5.114  0.2604  0.0080 -0.4533
    5MOL    N89  657   2.958   3.857   5.112 -0.2067  0.5149  0.3184
    5MOL    H90  658   3.221   4.135   5.110 -0.0661  1.0576  1.6187
    5MOL    H91  659   3.140   4.272   5.043  0.4629  0.6729 -0.2290
    5MOL    H92  660   2.914   4.156   5.046  1.2341  1.3612 -1.4419
    5MOL    C93  661   2.976   4.197   5.245 -0.1442 -0.2024 -0.0591
    5MOL    C94  662   2.849   4.169   5.322 -0.2833  0.1007  0.0050
    5MOL    C95  663   2.861   4.057   5.423  0.1769  0.5701  0.7162
    5MOL    N96  664   2.880   3.970   5.495  0.1052  0.3596 -0.1879
    5MOL    H97  665   3.054   4.175   5.318 -0.9923 -0.3509  0.8008
    5MOL    H98  666   2.986   4.305   5.242  0.5263 -0.1868  1.7733
    5MOL    H99  667   2.765   4.141   5.258 -0.4570 -0.0189  0.2855
    5MOL   C100  668   2.793   4.306   5.381 -0.0232 -0.4946 -0.2635
    5MOL   C101  669   2.679   4.294   5.478  0.8412  0.1519  0.0017
    5MOL   C102  670   2.650   4.425   5.544  0.1750  0.3968 -0.0565
    5MOL   N103  671   2.626   4.527   5.592  0.0039  0.4230 -0.4240
    5MOL   H104  672   2.878   4.351   5.432  0.7481  1.4569 -3.1465
    5MOL   H105  673   2.767   4.382   5.307 -0.8901  1.6939  2.2542
    5MOL   H106  674   2.707   4.236   5.565  0.8930  1.8601  1.1492
    5MOL   C107  675   2.551   4.237   5.409  0.0340 -0.6794  0.1752
    5MOL   C108  676   2.418   4.241   5.484  0.0599 -0.1218 -0.6854
    5MOL   C109  677   2.310   4.300   5.392 -0.5364  0.5527 -0.7280
    5MOL   N110  678   2.229   4.342   5.322 -0.2689  0.1087  0.1462
    5MOL   H111  679   2.544   4.293   5.316  1.1238  0.4504  0.7531
    5MOL   H112  680   2.566   4.134   5.377 -0.2442 -0.5621 -0.3294
    5MOL   H113  681   2.432   4.311   5.566  0.4568 -1.8125  0.7167
    5MOL   C114  682   2.372   4.105   5.535 -0.5680 -0.4037 -0.9724
    5MOL   C115  683   2.467   4.018   5.604 -0.9838 -0.1478 -0.7405
    5MOL   C116  684   2.537   4.099   5.709 -0.1998  0.4090 -0.5139
    5MOL   N117  685   2.590   4.167   5.790  0.0813  0.3254  0.0678
    5MOL   H118  686   2.285   4.117   5.600  0.1674  1.0481 -0.2352
    5MOL   H119  687   2.335   4.049   5.449  0.0463 -1.0639 -0.8128
    5MOL   H120  688   2.548   3.993   5.536  0.2812  1.7286  0.0379
    5MOL   C121  689   2.407   3.888   5.657 -0.1853  0.2875  0.5530
    5MOL   C122  690   2.490   3.764   5.696  0.0542  0.2747  0.6851
    5MOL   C123  691   2.526   3.707   5.565  0.4689 -0.3803  0.5478
    5MOL   N124  692   2.555   3.663   5.464 -0.3618 -0.1838  0.5691
    5MOL   H125  693   2.339   3.915   5.738 -1.5549 -0.4223 -0.3471
    5MOL   H126  694   2.340   3.852   5.579 -2.8139 -0.3559  3.0466
    5MOL   H127  695   2.425   3.690   5.743  0.9050 -1.2165 -0.4504
    5MOL   C128  696   2.604   3.791   5.790 -0.0796 -0.4581 -0.1090
    5MOL   C129  697   2.658   3.658   5.847 -0.3067 -0.1346 -0.0112
    5MOL   C130  698   2.701   3.568   5.732 -0.8142  0.3035 -0.8410
    5MOL   N131  699   2.739   3.500   5.642 -0.3827  0.1538 -0.1700
    5MOL   H132  700   2.678   3.858   5.745  0.4229 -0.4014  0.7782
    5MOL   H133  701   2.564   3.835   5.881 -1.4182  0.9900 -1.3729
    5MOL   H134  702   2.580   3.600   5.897 -1.2087  1.5654  0.6165
    5MOL   C135  703   2.777   3.679   5.955  0.5112  0.6242  0.0820
    5MOL   C136  704   2.822   3.549   6.027  0.6268 -0.0458  0.2776
    5MOL   C137  705   2.917   3.574   6.133  0.1833  0.2267 -0.6043
    5MOL   N138  706   2.988   3.589   6.220 -0.0149  0.4614 -0.3855
    5MOL   H139  707   2.866   3.710   5.902  0.3296  2.5391  0.8288
    5MOL   H140  708   2.732   3.741   6.034  1.0231 -0.8540  1.5739
    5MOL   H141  709   2.872   3.485   5.955 -1.9421 -0.2900 -1.3630
    5MOL   H142  710   2.733   3.492   6.053 -1.5190  2.0506 -2.1160
    6MOL     C1  711   7.285   4.990   8.096  0.2479 -0.8266  0.2229
    6MOL     C2  712   7.285   5.061   8.235  0.2570 -0.3823  0.2150
    6MOL     C3  713   7.293   4.965   0.034 -0.3660  0.1228  0.1673
    6MOL     N4  714   7.297   4.891   0.116  0.1375 -0.6454 -0.3103
    6MOL     H5  715   7.229   4.897   8.094 -0.5026 -0.3885  0.7494
    6MOL     H6  716   7.386   4.972   8.057  1.4057  1.9283  1.7996
    6MOL     H7  717   7.186   5.105   8.249 -0.3229 -1.7866  0.6719
    6MOL     H8  718   7.250   5.055   8.016  3.5545  1.8448  0.8012
    6MOL     C9  719   7.382   5.182   8.237  0.9350  0.1426 -0.1051
    6MOL    C10  720   7.376   5.281   0.031  0.6013  0.6580  0.0031
    6MOL    C11  721   7.390   5.218   0.166 -1.0261 -0.2911 -0.4790
    6MOL    N12  722   7.402   5.166   0.272 -0.1116 -0.2802  0.3265
    6MOL    H13  723   7.479   5.134   8.248  1.8515  1.8260 -0.7133
    6MOL    H14  724   7.391   5.228   8.139  1.1678 -1.3361 -0.7899
    6MOL    H15  725   7.281   5.333   0.022  0.2568  0.2149  0.9603
    6MOL    C16  726   7.472   5.401   0.023 -0.7889  0.2975  0.2920
    6MOL    C17  727   7.457   5.509   0.141 -0.2109 -0.8056 -0.2025
    6MOL    C18  728   7.579   5.578   0.164 -0.3185 -0.0896  0.1628
    6MOL    N19  729   7.675   5.640   0.180 -0.4136 -0.5334  0.2102
    6MOL    H20  730   7.576   5.369   0.027 -1.1431 -1.1199 -1.2487
    6MOL    H21  731   7.457   5.449   8.239  1.6376  1.0087  0.2319
    6MOL    H22  732   7.463   5.457   0.236 -1.3096 -0.3260  0.1381
    6MOL    C23  733   7.334   5.601   0.136  0.1751 -0.0706 -0.6673
    6MOL    C24  734   7.357   5.733   0.066  0.3630  0.3841  0.0889
    6MOL    C25  735   7.430   5.727   8.252 -0.1217  0.0791  0.5330
    6MOL    N26  736   7.479   5.724   8.149  0.1372  0.4344  1.3399
    6MOL    H27  737   7.241   5.559   0.098 -0.7832 -0.7115  2.2021
    6MOL    H28  738   7.320   5.637   0.238  0.6086 -0.3482 -0.5068
    6MOL    H29  739   7.423   5.785   0.136  0.7252 -1.8509  1.4335
    6MOL    C30  740   7.231   5.811   0.047 -0.5461  0.1703 -0.4377
    6MOL    C31  741   7.235   5.956   0.100 -0.1006  0.4625  0.1392
    6MOL    C32  742   7.338   6.034   0.039  0.3071  0.0156  0.3207
    6MOL    N33  743   7.422   6.092   8.303  0.2508 -0.4238 -0.1371
    6MOL    H34  744   7.206   5.827   8.255  2.2853 -1.1018 -1.3632
    6MOL    H35  745   7.146   5.756   0.089 -0.9061  2.4702  1.9372
    6MOL    H36  746   7.250   5.948   0.208 -1.0405  2.5008  0.4249
    6MOL    C37  747   7.108   6.038   0.086 -0.5463  0.9533 -0.0906
    6MOL    C38  748   6.988   5.966   0.152 -0.0256 -0.3090 -0.2058
    6MOL    C39  749   7.017   5.912   0.289 -0.0749  1.1293 -0.3818
    6MOL    N40  750   7.036   5.872   0.394 -0.1671 -0.4348 -0.0894
    6MOL    H41  751   7.117   6.141   0.121 -0.4844  0.6312  0.8349
    6MOL    H42  752   7.088   6.053   8.292  0.5876 -1.6907 -0.7010
    6MOL    H43  753   6.968   5.879   0.090  0.3596 -0.5310 -0.0212
    6MOL    C44  754   6.864   6.062   0.155 -0.0782 -0.5533 -0.2750
    6MOL    C45  755   6.835   6.139   0.281  0.4456 -0.5242 -0.2764
    6MOL    C46  756   6.960   6.202   0.320  0.0188  0.3188 -0.3919
    6MOL    N47  757   7.062   6.253   0.351  0.3146  0.8177 -0.5578
    6MOL    H48  758   6.871   6.135   0.074 -2.0056 -2.1416 -1.9498
    6MOL    H49  759   6.779   5.997   0.133  1.1924 -2.4440  0.2646
    6MOL    H50  760   6.808   6.067   0.358 -1.8331 -0.9161 -1.4000
    6MOL    C51  761   6.713   6.232   0.275 -0.0041  0.0763  0.0378
    6MOL    C52  762   6.649   6.294   0.404 -0.4718 -1.0446  0.8654
    6MOL    C53  763   6.635   6.186   0.502  0.1411 -0.4871 -0.4334
    6MOL    N54  764   6.625   6.102   0.574 -0.1299 -0.2592 -0.0331
    6MOL    H55  765   6.732   6.311   0.202  1.3626 -2.1240 -2.0561
    6MOL    H56  766   6.632   6.167   0.241 -0.3153 -0.5440  1.8931
    6MOL    H57  767   6.553   6.323   0.361 -1.0239 -0.5957  2.3766
    6MOL    C58  768   6.716   6.428   0.444  0.0149  0.9078  0.0456
    6MOL    C59  769   6.623   6.527   0.523 -0.2609  0.0190 -0.2495
    6MOL    C60  770   6.701   6.619   0.606 -0.5482  0.1690  0.0634
    6MOL    N61  771   6.764   6.689   0.669  0.3270  0.0022  0.5632
    6MOL    H62  772   6.809   6.417   0.499  0.1772  3.0511  0.2244
    6MOL    H63  773   6.749   6.481   0.354  0.3257  3.3275  1.5519
    6MOL    H64  774   6.571   6.467   0.597  0.2259  0.9697  0.8873
    6MOL    C65  775   6.518   6.601   0.437  0.3071  0.3223 -0.4451
    6MOL    C66  776   6.422   6.699   0.504  0.1540  0.1878 -0.0003
    6MOL    C67  777   6.481   6.829   0.530 -0.3315 -0.0912  0.3114
    6MOL    N68  778   6.532   6.930   0.542 -0.8774  0.0865 -0.2776
    6MOL    H69  779   6.574   6.658   0.363  0.7254 -1.3731 -1.4595
    6MOL    H70  780   6.458   6.520   0.396 -2.2688  0.4992  2.8287
    6MOL    H71  781   6.392   6.665   0.603 -0.5453  0.4904 -0.1014
    6MOL    C72  782   6.286   6.719   0.433 -0.1579 -0.4152 -0.0439
    6MOL    C73  783   6.185   6.824   0.490  0.1921  0.2594 -0.6835
    6MOL    C74  784   6.157   6.919   0.381 -0.4125  0.2713  0.1993
    6MOL    N75  785   6.132   6.990   0.297 -0.0749  0.5759  0.0277
    6MOL    H76  786   6.312   6.753   0.332  3.2597  1.2218  1.3045
    6MOL    H77  787   6.245   6.618   0.422  2.4968 -1.7627  1.9495
    6MOL    H78  788   6.221   6.898   0.561  1.0154 -0.9833  0.2075
    6MOL    C79  789   6.053   6.759   0.535  0.8685  0.0414  0.1841
    6MOL    C80  790   6.066   6.690   0.669 -0.0055  0.4385 -0.1902
    6MOL    C81  791   6.026   6.769   0.784  0.1804  0.1581 -0.9305
    6MOL    N82  792   5.992   6.827   0.878  0.3906 -0.2835  0.0771
    6MOL    H83  793   5.985   6.843   0.547  0.0980 -0.6767  0.9685
    6MOL    H84  794   6.027   6.692   0.453 -0.1092  1.2840 -0.5463
    6MOL    H85  795   6.172   6.688   0.696 -0.0416 -1.6494 -0.0753
    6MOL    C86  796   6.014   6.551   0.674 -0.0216  0.4203 -0.4168
    6MOL    C87  797   6.045   6.485   0.811 -0.1391  0.1692  0.4434
    6MOL    C88  798   5.970   6.354   0.825  0.2906 -0.5879  0.5033
    6MOL    N89  799   5.914   6.252   0.836  0.3673  0.8142 -0.6007
    6MOL    H90  800   5.906   6.554   0.655 -0.0745  1.5969  0.0247
    6MOL    H91  801   6.055   6.483   0.599 -1.2983  0.0330 -0.7832
    6MOL    H92  802   6.012   6.545   0.895 -0.5956  0.2709  0.1933
    6MOL    C93  803   6.200   6.471   0.838 -0.4140 -0.6812 -0.6436
    6MOL    C94  804   6.249   6.567   0.954  0.0601  0.3851  0.0798
    6MOL    C95  805   6.184   6.529   1.080 -0.1109  0.0495  0.2501
    6MOL    N96  806   6.136   6.495   1.177  0.3147 -0.0969 -0.3272
    6MOL    H97  807   6.232   6.369   0.861  0.7905  0.0351  0.9273
    6MOL    H98  808   6.247   6.497   0.743  0.0736  2.9221  0.5225
    6MOL    H99  809   6.221   6.670   0.932  0.6712  0.2090 -1.5517
    6MOL   C100  810   6.404   6.559   0.955  0.3743 -0.2054 -0.4018
    6MOL   C101  811   6.463   6.667   1.056  0.4371  0.2899 -0.4468
    6MOL   C102  812   6.449   6.613   1.193 -0.0128 -0.3083 -0.7763
    6MOL   N103  813   6.437   6.574   1.307  0.4345  0.1672 -0.2310
    6MOL   H104  814   6.438   6.457   0.975 -1.9139 -0.9399 -0.1273
    6MOL   H105  815   6.437   6.567   0.851 -2.1034 -1.5577 -1.3584
    6MOL   H106  816   6.411   6.762   1.067  2.5018  1.3007  0.8671
    6MOL   C107  817   6.609   6.702   1.026 -0.2002  0.4421 -0.3471
    6MOL   C108  818   6.672   6.801   1.134  0.1116  0.4270  0.2012
    6MOL   C109  819   6.820   6.789   1.130 -0.2230 -0.2297 -0.5073
    6MOL   N110  820   6.933   6.780   1.138 -1.1551 -0.2525 -0.7591
    6MOL   H111  821   6.664   6.608   1.036  1.1465  0.9467 -2.7413
    6MOL   H112  822   6.624   6.737   0.925 -0.8333  2.7935  0.3538
    6MOL   H113  823   6.643   6.773   1.235  1.6753 -0.3046  0.4588
    6MOL   C114  824   6.629   6.947   1.113 -0.1649 -0.5564  0.4172
    6MOL   C115  825   6.715   7.062   1.171  0.0711  0.2705 -0.1495
    6MOL   C116  826   6.790   7.015   1.289  0.3847  0.0637 -0.0723
    6MOL   N117  827   6.843   6.990   1.392 -0.9299  0.6483  0.7918
    6MOL   H118  828   6.626   6.966   1.005 -0.3289 -0.8808  0.3640
    6MOL   H119  829   6.524   6.954   1.143 -0.1038 -2.0089  0.9740
    6MOL   H120  830   6.634   7.124   1.208 -1.7455 -1.6554 -0.7893
    6MOL   C121  831   6.815   7.120   1.065 -0.6081  0.1481  0.6643
    6MOL   C122  832   6.917   7.225   1.104  0.5456 -0.2717 -0.3596
    6MOL   C123  833   6.868   7.307   1.214  0.1947  0.8280 -0.5339
    6MOL   N124  834   6.834   7.372   1.302  0.1175 -0.7994 -0.2738
    6MOL   H125  835   6.861   7.046   0.999 -3.2293  0.3278 -1.4406
    6MOL   H126  836   6.749   7.171   0.994  1.6079  0.6425 -1.1251
    6MOL   H127  837   6.920   7.291   1.016  2.3240  0.6487  0.3737
    6MOL   C128  838   7.060   7.183   1.138  0.1040  0.3460  0.5241
    6MOL   C129  839   7.174   7.299   1.130 -0.6596  0.5652 -0.3751
    6MOL   C130  840   7.198   7.335   0.990 -0.1848 -0.1942 -0.1488
    6MOL   N131  841   7.213   7.359   0.879  0.5158 -0.3451 -0.2036
    6MOL   H132  842   7.061   7.135   1.236  0.6154  1.4397  1.0700
    6MOL   H133  843   7.081   7.102   1.070 -2.3141 -0.8345  1.1018
    6MOL   H134  844   7.264   7.251   1.168 -2.3103 -0.0450  2.9227
    6MOL   C135  845   7.147   7.422   1.224 -0.0595 -0.0510 -0.1685
    6MOL   C136  846   7.265   7.518   1.236 -0.3174 -0.1261 -0.3703
    6MOL   C137  847   7.250   7.608   1.352  0.1257 -0.4981 -0.0142
    6MOL   N138  848   7.239   7.679   1.443  0.2645 -0.0056  0.0476
    6MOL   H139  849   7.061   7.482   1.193 -0.2097  0.6671  1.5842
    6MOL   H140  850   7.125   7.386   1.324  1.1105  1.2426  0.5505
    6MOL   H141  851   7.290   7.584   1.153 -2.6244  0.7203 -0.4417
    6MOL   H142  852   7.353   7.463   1.267 -0.0705 -0.2241 -1.2281
    7MOL     C1  853   1.873   5.807   1.404 -0.0053  0.1477 -0.4344
    7MOL     C2  854   2.023   5.836   1.401  0.0938  0.8199 -0.0071
    7MOL     C3  855   2.099   5.724   1.348 -0.1050  0.5751  0.7454
    7MOL     N4  856   2.161   5.635   1.306  0.0391  0.3087 -0.1795
    7MOL     H5  857   1.830   5.767   1.313 -1.2191 -1.0477  0.6449
    7MOL     H6  858   1.818   5.900   1.422 -1.7795 -0.8977 -0.3835
    7MOL     H7  859   2.069   5.828   1.500  1.0254 -0.7982 -0.5406
    7MOL     H8  860   1.840   5.735   1.479 -1.7229  1.0484 -0.3004
    7MOL     C9  861   2.056   5.971   1.337 -0.4126  0.3457  0.7801
    7MOL    C10  862   2.096   6.095   1.424 -0.2388  0.2576  0.4205
    7MOL    C11  863   1.990   6.137   1.519 -0.1191 -0.0257 -0.3281
    7MOL    N12  864   1.907   6.165   1.598  0.0327 -0.4952 -0.9398
    7MOL    H13  865   2.141   5.960   1.270 -1.0407  1.9886 -0.2971
    7MOL    H14  866   1.970   5.996   1.276 -0.9777 -2.0175  0.5787
    7MOL    H15  867   2.102   6.178   1.354  0.4954  0.8267  1.1552
    7MOL    C16  868   2.230   6.089   1.497 -0.1697 -0.0326  0.0796
    7MOL    C17  869   2.306   6.219   1.523 -0.9165  0.4083 -0.3975
    7MOL    C18  870   2.243   6.322   1.600 -0.1896 -0.1184  0.1938
    7MOL    N19  871   2.190   6.402   1.664  0.3141  0.3588  0.3808
    7MOL    H20  872   2.220   6.030   1.588  0.0317  0.7408  0.5984
    7MOL    H21  873   2.294   6.033   1.428  1.3454  2.0404 -0.2494
    7MOL    H22  874   2.317   6.277   1.432 -3.7705  1.4482 -0.1408
    7MOL    C23  875   2.444   6.192   1.578  0.4899 -0.2102 -0.7572
    7MOL    C24  876   2.451   6.152   1.729 -0.0153  0.0194 -0.5026
    7MOL    C25  877   2.329   6.104   1.796 -0.1055 -0.2396 -0.5520
    7MOL    N26  878   2.230   6.067   1.843 -0.1671 -0.4505 -0.6150
    7MOL    H27  879   2.471   6.105   1.519 -1.7808 -1.3761 -0.1038
    7MOL    H28  880   2.499   6.284   1.558  2.0838 -1.1022 -0.5542
    7MOL    H29  881   2.471   6.238   1.793 -0.7647  1.0857 -1.6831
    7MOL    C30  882   2.565   6.048   1.752  0.0735  0.7429 -0.0926
    7MOL    C31  883   2.707   6.103   1.746  0.1779  0.1883  0.5739
    7MOL    C32  884   2.719   6.204   1.857  0.6220 -0.5116 -0.3887
    7MOL    N33  885   2.731   6.278   1.950  0.1488 -0.2698  0.2956
    7MOL    H34  886   2.542   6.003   1.849 -1.3246  0.6203 -0.4741
    7MOL    H35  887   2.551   5.967   1.680 -0.0477 -1.5337  2.3793
    7MOL    H36  888   2.722   6.158   1.653  0.3856 -1.5568 -0.4518
    7MOL    C37  889   2.806   5.982   1.752 -0.6277 -0.1385  0.6480
    7MOL    C38  890   2.814   5.906   1.887 -0.2621 -0.3131  0.0377
    7MOL    C39  891   2.701   5.811   1.895  0.1915  0.0029 -0.6216
    7MOL    N40  892   2.611   5.732   1.901  0.1002 -0.5006 -0.3261
    7MOL    H41  893   2.774   5.913   1.674  0.4938  2.7132 -2.4556
    7MOL    H42  894   2.909   6.008   1.729 -1.6703  1.7386 -2.1928
    7MOL    H43  895   2.797   5.979   1.966 -0.8203 -1.0031  0.5605
    7MOL    C44  896   2.943   5.839   1.910 -0.2058  0.1685  0.1354
    7MOL    C45  897   3.065   5.930   1.940  0.7594 -0.3381  0.1189
    7MOL    C46  898   3.026   6.031   2.037  0.4687 -0.4506  0.1771
    7MOL    N47  899   3.003   6.112   2.119 -0.5314  0.5847  0.1457
    7MOL    H48  900   2.938   5.767   1.992 -0.5826  1.6391  1.4233
    7MOL    H49  901   2.969   5.779   1.823 -0.8512  0.4633 -0.2605
    7MOL    H50  902   3.093   5.987   1.852 -1.5151 -0.8855 -0.9906
    7MOL    C51  903   3.187   5.855   2.001  0.1315 -0.2104  0.0672
    7MOL    C52  904   3.224   5.734   1.914 -0.4923 -0.1074  0.6996
    7MOL    C53  905   3.219   5.768   1.767 -0.5697 -0.6068 -0.6785
    7MOL    N54  906   3.210   5.797   1.657 -0.4376 -0.4165  0.3728
    7MOL    H55  907   3.260   5.935   1.990  1.2203 -1.3024 -0.8205
    7MOL    H56  908   3.181   5.832   2.107 -0.2688  2.4471  0.6570
    7MOL    H57  909   3.135   5.673   1.926 -0.8925 -0.2061 -2.3194
    7MOL    C58  910   3.354   5.656   1.963  0.1724 -0.1184 -0.3423
    7MOL    C59  911   3.492   5.706   1.915  0.4140  0.3720 -0.7225
    7MOL    C60  912   3.521   5.846   1.954  0.8652  0.6685  0.8115
    7MOL    N61  913   3.542   5.959   1.976  0.0410  0.0737  0.5517
    7MOL    H62  914   3.355   5.644   2.071 -0.8033 -2.4523 -0.5714
    7MOL    H63  915   3.335   5.553   1.932 -3.5590 -0.1530  1.7991
    7MOL    H64  916   3.495   5.709   1.806  0.0083 -4.1775 -0.9741
    7MOL    C65  917   3.613   5.614   1.967 -0.4514 -0.8896 -0.2397
    7MOL    C66  918   3.596   5.464   1.928 -0.2268 -0.9710 -0.5396
    7MOL    C67  919   3.564   5.449   1.788 -0.1073  0.2292  0.3142
    7MOL    N68  920   3.542   5.435   1.674  0.1994 -0.8674 -0.0929
    7MOL    H69  921   3.702   5.650   1.914 -0.9743 -2.5101 -2.2866
    7MOL    H70  922   3.626   5.620   2.075  2.4864  0.4483 -0.6050
    7MOL    H71  923   3.504   5.428   1.975  1.1666  0.3747  3.4642
    7MOL    C72  924   3.715   5.369   1.964  0.0195 -0.4992 -0.2716
    7MOL    C73  925   3.705   5.327   2.105  0.2256  0.0623 -0.1402
    7MOL    C74  926   3.631   5.201   2.118 -0.0351  0.5576  0.0937
    7MOL    N75  927   3.567   5.105   2.130 -0.4219  0.1254 -0.2094
    7MOL    H76  928   3.720   5.284   1.897  0.0204 -0.6128 -0.1261
    7MOL    H77  929   3.809   5.418   1.938 -1.1842  2.5891  0.9333
    7MOL    H78  930   3.634   5.394   2.155  1.3325  0.8406  0.4044
    7MOL    C79  931   3.845   5.328   2.162  0.2840 -0.3938 -0.1360
    7MOL    C80  932   3.861   5.278   2.312 -0.3431 -0.6623 -0.1226
    7MOL    C81  933   3.997   5.245   2.335 -0.6395  0.8052  0.2383
    7MOL    N82  934   4.106   5.223   2.350 -0.5391  0.5338  1.0794
    7MOL    H83  935   3.900   5.267   2.090  0.4266  0.2779 -0.6021
    7MOL    H84  936   3.900   5.419   2.139  1.3661 -0.6778  1.2390
    7MOL    H85  937   3.807   5.185   2.332  1.2905 -1.3936  0.9875
    7MOL    C86  938   3.811   5.374   2.423 -0.4804 -0.2083  0.1573
    7MOL    C87  939   3.662   5.373   2.465 -0.2292 -0.4307 -0.3127
    7MOL    C88  940   3.624   5.245   2.524  0.1095 -0.5717 -0.8351
    7MOL    N89  941   3.599   5.145   2.575  0.2935 -0.5082 -0.4420
    7MOL    H90  942   3.871   5.348   2.510  3.7196  2.5653 -1.7523
    7MOL    H91  943   3.845   5.472   2.390 -1.6259 -0.3236 -1.4373
    7MOL    H92  944   3.613   5.383   2.368  2.8238 -1.9739 -2.0958
    7MOL    C93  945   3.621   5.493   2.553  0.5688  0.3680  0.4718
    7MOL    C94  946   3.476   5.537   2.517  0.6460 -0.0197 -0.0751
    7MOL    C95  947   3.377   5.433   2.564 -0.0518  0.3732  0.3207
    7MOL    N96  948   3.303   5.355   2.596  0.2082  0.1393 -0.3903
    7MOL    H97  949   3.615   5.467   2.659 -0.5836 -1.6057 -0.0480
    7MOL    H98  950   3.692   5.576   2.548  1.5824 -0.5831 -1.4839
    7MOL    H99  951   3.465   5.548   2.409  3.3864  0.1789 -0.3603
    7MOL   C100  952   3.435   5.678   2.580  0.2453  0.1772 -0.2522
    7MOL   C101  953   3.314   5.742   2.518  0.7284  0.0332  0.3792
    7MOL   C102  954   3.192   5.663   2.533  0.0795 -0.0591  0.0531
    7MOL   N103  955   3.094   5.598   2.538  0.6090  0.5143  0.3574
    7MOL   H104  956   3.429   5.677   2.689  0.0115 -0.6709 -0.2694
    7MOL   H105  957   3.520   5.739   2.548  1.3307 -1.2512 -0.1313
    7MOL   H106  958   3.336   5.747   2.412 -1.0965  0.9160  0.0098
    7MOL   C107  959   3.289   5.885   2.575 -0.5181 -0.3857 -0.0626
    7MOL   C108  960   3.203   5.975   2.482 -0.7722 -1.1253  0.7200
    7MOL   C109  961   3.147   6.087   2.552 -0.0349  0.3014 -0.2629
    7MOL   N110  962   3.103   6.176   2.612 -0.1645 -0.7654 -0.5149
    7MOL   H111  963   3.224   5.892   2.662 -1.3397  0.0215 -0.6993
    7MOL   H112  964   3.388   5.928   2.589 -0.2647 -1.1480  0.5438
    7MOL   H113  965   3.120   5.920   2.438  0.3586 -0.1818 -2.7977
    7MOL   C114  966   3.298   6.031   2.371  0.3894  0.1734 -0.6678
    7MOL   C115  967   3.390   6.152   2.406  0.2833  0.2358 -0.0686
    7MOL   C116  968   3.466   6.139   2.530  0.8448 -0.0688  0.0793
    7MOL   N117  969   3.533   6.124   2.622 -0.4984 -0.2703  0.3672
    7MOL   H118  970   3.358   5.951   2.329 -0.3006  0.0308 -1.3820
    7MOL   H119  971   3.230   6.071   2.296  0.5323 -1.4988 -1.7175
    7MOL   H120  972   3.323   6.236   2.431  1.9295  1.6143 -0.2092
    7MOL   C121  973   3.474   6.195   2.287  0.1003 -0.0212 -0.0603
    7MOL   C122  974   3.383   6.249   2.175  0.2215  0.0396 -0.5598
    7MOL   C123  975   3.299   6.364   2.218 -0.0995  0.1452 -0.4920
    7MOL   N124  976   3.230   6.449   2.252 -0.1999 -0.1359  0.4702
    7MOL   H125  977   3.542   6.272   2.322  0.2352  0.7068 -1.8589
    7MOL   H126  978   3.537   6.113   2.250 -0.2778 -0.4217  0.1723
    7MOL   H127  979   3.308   6.177   2.140  0.9703 -1.0617  0.0565
    7MOL   C128  980   3.476   6.293   2.059  0.3375  0.1390  0.9967
    7MOL   C129  981   3.404   6.366   1.949 -0.0593 -0.1015  0.3015
    7MOL   C130  982   3.501   6.372   1.839  0.1568 -0.2796 -0.3582
    7MOL   N131  983   3.583   6.374   1.759  0.2292  0.0282 -0.0801
    7MOL   H132  984   3.560   6.354   2.092 -0.0546 -0.6524  3.5238
    7MOL   H133  985   3.515   6.201   2.016  3.5615  2.2965 -0.9281
    7MOL   H134  986   3.400   6.468   1.988 -0.1802  0.7247 -1.8120
    7MOL   C135  987   3.272   6.304   1.889 -0.0385  0.2547 -0.3147
    7MOL   C136  988   3.211   6.390   1.784  0.1077  0.3913 -0.2710
    7MOL   C137  989   3.080   6.339   1.743  0.0284 -0.6252 -0.3139
    7MOL   N138  990   2.978   6.302   1.711 -0.6936 -0.0580 -0.4914
    7MOL   H139  991   3.289   6.208   1.841 -0.4921  0.8697 -1.7220
    7MOL   H140  992   3.195   6.290   1.965 -0.0236 -1.0013 -0.5181
    7MOL   H141  993   3.282   6.414   1.706  0.8446  0.0856  0.2998
    7MOL   H142  994   3.184   6.491   1.816 -0.4696 -0.0978  0.8227
    8MOL     C1  995   0.416   3.285   7.073  0.0354 -0.4009  0.3748
    8MOL     C2  996   0.413   3.408   6.988  0.6202 -0.2262  0.6356
    8MOL     C3  997   0.277   3.431   6.938  0.3799 -0.6324  0.6584
    8MOL     N4  998   0.167   3.458   6.895  0.0763  0.1995 -0.5591
    8MOL     H5  999   0.353   3.278   7.161  0.7596 -2.7320  0.7581
    8MOL     H6 1000   0.514   3.259   7.113  0.2895 -0.3365 -0.2077
    8MOL     H7 1001   0.475   3.393   6.900  0.2061  0.4517  0.2224
    8MOL     H8 1002   0.386   3.197   7.016  0.1043  0.2476 -0.6607
    8MOL     C9 1003   0.456   3.531   7.066  0.3942  0.3530 -0.8096
    8MOL    C10 1004   0.611   3.543   7.096  0.5327 -0.5165 -0.4416
    8MOL    C11 1005   0.697   3.540   6.974 -0.4046  0.3830 -0.0258
    8MOL    N12 1006   0.765   3.537   6.886  0.0356  0.1503  0.4958
    8MOL    H13 1007   0.413   3.622   7.025 -0.3561 -0.3358 -1.5827
    8MOL    H14 1008   0.395   3.523   7.156  2.3134 -0.5446  0.4494
    8MOL    H15 1009   0.633   3.456   7.158  1.3201 -0.3914 -0.5389
    8MOL    C16 1010   0.642   3.655   7.186  0.5496 -0.0534  0.4745
    8MOL    C17 1011   0.781   3.665   7.257  0.1101 -0.2148  0.0527
    8MOL    C18 1012   0.780   3.769   7.357  0.3813  0.1877 -0.4164
    8MOL    N19 1013   0.780   3.854   7.435 -0.0350  0.4505  0.6678
    8MOL    H20 1014   0.630   3.749   7.133  1.8475  0.1725  0.5674
    8MOL    H21 1015   0.563   3.656   7.261  0.5654  0.4208  0.4877
    8MOL    H22 1016   0.854   3.716   7.195 -0.6877  1.7154  0.6621
    8MOL    C23 1017   0.845   3.532   7.295 -0.0914  0.1441  0.1450
    8MOL    C24 1018   0.804   3.479   7.433 -0.6779  0.2979  0.3929
    8MOL    C25 1019   0.657   3.479   7.450  0.2785 -0.3848 -0.3114
    8MOL    N26 1020   0.540   3.477   7.469 -0.6585 -0.4783 -0.3906
    8MOL    H27 1021   0.821   3.463   7.214 -0.8284  1.0618 -0.4388
    8MOL    H28 1022   0.953   3.548   7.300 -0.1510  1.1106 -1.4335
    8MOL    H29 1023   0.831   3.562   7.498  0.7096 -0.0537  0.2709
    8MOL    C30 1024   0.865   3.349   7.472 -0.0974 -0.2612 -0.6642
    8MOL    C31 1025   0.799   3.220   7.414 -0.3503 -0.2894  0.3737
    8MOL    C32 1026   0.787   3.219   7.264  0.7111 -0.2974  0.9713
    8MOL    N33 1027   0.771   3.226   7.148  0.2308 -0.2725  0.2638
    8MOL    H34 1028   0.973   3.358   7.457  0.3325 -1.5867  1.4241
    8MOL    H35 1029   0.860   3.337   7.580  0.7221 -3.4331 -0.9377
    8MOL    H36 1030   0.693   3.223   7.436 -0.6556  0.9581 -1.2401
    8MOL    C37 1031   0.860   3.089   7.465  0.2871  0.0058  0.9912
    8MOL    C38 1032   0.765   3.015   7.565 -0.4293  0.3148  0.3466
    8MOL    C39 1033   0.643   2.963   7.491  0.0553  0.3938  0.3241
    8MOL    N40 1034   0.550   2.924   7.446  0.1385 -0.2806 -0.3113
    8MOL    H41 1035   0.899   3.021   7.389 -1.6942  0.5298 -0.5535
    8MOL    H42 1036   0.948   3.129   7.514  0.7969 -1.8799  1.6709
    8MOL    H43 1037   0.729   3.098   7.626  0.8363  0.3087  1.1165
    8MOL    C44 1038   0.841   2.902   7.658  0.1949  0.4793  0.3664
    8MOL    C45 1039   0.895   2.946   7.796  0.9515  0.1463 -0.4482
    8MOL    C46 1040   0.971   2.834   7.864  0.1675 -0.4707  1.1122
    8MOL    N47 1041   1.029   2.750   7.912  0.5502 -0.2751 -0.4781
    8MOL    H48 1042   0.773   2.820   7.678 -2.0248  1.3147 -3.3070
    8MOL    H49 1043   0.928   2.867   7.603  0.3330  1.1752  0.1321
    8MOL    H50 1044   0.814   2.972   7.864  0.5398 -0.2459 -0.7877
    8MOL    C51 1045   0.969   3.080   7.782  0.0961  0.2421 -0.3006
    8MOL    C52 1046   1.004   3.146   7.914  0.4182 -0.0147  0.6989
    8MOL    C53 1047   1.087   3.068   7.999 -0.0863  0.2343 -0.2456
    8MOL    N54 1048   1.153   3.010   8.079  0.0890  0.4953 -1.0470
    8MOL    H55 1049   1.060   3.064   7.725 -0.2159 -0.4425 -0.6166
    8MOL    H56 1050   0.912   3.154   7.727 -0.9820 -0.8155 -0.6247
    8MOL    H57 1051   0.908   3.158   7.966 -0.4680  2.8423 -1.5021
    8MOL    C58 1052   1.037   3.296   7.894 -0.2665  0.5280  0.1323
    8MOL    C59 1053   1.038   3.369   8.030  0.1111 -0.5994  0.6499
    8MOL    C60 1054   1.168   3.351   8.085  0.5184  0.2346 -0.1190
    8MOL    N61 1055   1.273   3.339   8.136  0.3511  0.4812  0.7443
    8MOL    H62 1056   1.126   3.320   7.835 -0.9140  2.8556  0.0481
    8MOL    H63 1057   0.961   3.334   7.826 -0.5433 -0.9005 -0.3674
    8MOL    H64 1058   0.966   3.325   8.099 -1.3557 -0.4896 -0.7579
    8MOL    C65 1059   0.999   3.520   8.010  0.7842 -0.4671 -0.4004
    8MOL    C66 1060   0.857   3.543   7.971 -0.4422 -1.2044  0.4836
    8MOL    C67 1061   0.766   3.462   8.048 -0.0860  0.1714 -0.5462
    8MOL    N68 1062   0.691   3.397   8.107 -0.2074  0.2452 -0.4707
    8MOL    H69 1063   1.027   3.559   8.108 -0.4349  0.8752 -0.5756
    8MOL    H70 1064   1.074   3.560   7.941  0.2573 -0.9364 -1.2500
    8MOL    H71 1065   0.847   3.508   7.868 -0.6137  0.3982 -0.0668
    8MOL    C72 1066   0.822   3.699   7.972  0.0939 -0.3398  0.3918
    8MOL    C73 1067   0.907   3.782   7.877 -0.1639  0.6505  0.2975
    8MOL    C74 1068   0.977   3.716   7.767  0.3243 -0.2677 -0.3562
    8MOL    N75 1069   1.031   3.655   7.678 -0.4010 -0.1882 -0.3718
    8MOL    H76 1070   0.718   3.712   7.942 -0.7189 -0.7774  2.8779
    8MOL    H77 1071   0.821   3.745   8.071 -1.1596 -0.6442  0.5351
    8MOL    H78 1072   0.989   3.806   7.946  1.6183  1.0804 -1.9098
    8MOL    C79 1073   0.855   3.914   7.832 -0.3088 -0.3777  0.1672
    8MOL    C80 1074   0.958   4.009   7.759  0.5427  0.1317 -0.3346
    8MOL    C81 1075   0.898   4.137   7.710 -0.7018 -0.7277 -0.4508
    8MOL    N82 1076   0.861   4.243   7.674 -0.4615 -0.5240  0.0392
    8MOL    H83 1077   0.769   3.893   7.768  0.7107 -1.0005 -1.0345
    8MOL    H84 1078   0.803   3.959   7.916  1.6617  1.3568  0.5071
    8MOL    H85 1079   0.985   3.957   7.667 -0.2769 -1.6539  0.4157
    8MOL    C86 1080   1.074   4.045   7.850  0.2194 -0.0812 -0.3519
    8MOL    C87 1081   1.183   4.117   7.774  0.5345  0.3753  0.1449
    8MOL    C88 1082   1.256   4.204   7.864  0.2978 -0.7262  0.0054
    8MOL    N89 1083   1.320   4.269   7.938  0.6085 -0.2934  0.3354
    8MOL    H90 1084   1.036   4.123   7.916  1.5371  0.4395 -0.1936
    8MOL    H91 1085   1.106   3.968   7.920  0.1669  1.5172  1.4717
    8MOL    H92 1086   1.142   4.188   7.702 -4.3052 -1.5753  0.7919
    8MOL    C93 1087   1.276   4.022   7.699 -0.6812  0.0040 -0.2131
    8MOL    C94 1088   1.381   3.943   7.780  0.0290  0.3774  0.3393
    8MOL    C95 1089   1.314   3.834   7.855  0.1033 -0.4428 -1.1947
    8MOL    N96 1090   1.257   3.754   7.913 -0.2795 -0.5693 -0.3109
    8MOL    H97 1091   1.218   3.950   7.642 -1.6897  0.4629  0.2066
    8MOL    H98 1092   1.320   4.088   7.624  0.0569 -0.7868 -0.4779
    8MOL    H99 1093   1.425   4.018   7.845  1.6271 -1.2029  1.1302
    8MOL   C100 1094   1.490   3.889   7.694 -0.5984  0.1800 -0.1194
    8MOL   C101 1095   1.606   3.815   7.777  0.2511 -0.2794  0.8371
    8MOL   C102 1096   1.670   3.730   7.676 -0.6463  0.3076  0.1948
    8MOL   N103 1097   1.712   3.662   7.590 -0.4758 -0.5790 -0.0605
    8MOL   H104 1098   1.443   3.809   7.638  1.6967 -0.0563 -1.7780
    8MOL   H105 1099   1.533   3.957   7.620  0.2672 -1.8166 -1.5002
    8MOL   H106 1100   1.556   3.752   7.850  0.5445 -1.7356 -0.1838
    8MOL   C107 1101   1.714   3.909   7.844  0.2978  0.1268  0.1934
    8MOL   C108 1102   1.839   3.842   7.896 -0.9991  0.1822  0.2012
    8MOL   C109 1103   1.813   3.730   7.991  0.2250 -0.2022 -0.7793
    8MOL   N110 1104   1.796   3.641   8.062 -0.3716  0.2263 -0.2876
    8MOL   H111 1105   1.728   3.987   7.769 -1.7456  1.1683  0.8732
    8MOL   H112 1106   1.653   3.937   7.930  2.4084  1.3693  1.3163
    8MOL   H113 1107   1.881   3.925   7.953 -0.2481  1.6742 -2.4098
    8MOL   C114 1108   1.952   3.823   7.796  0.7863  0.3437 -0.9769
    8MOL   C115 1109   2.074   3.747   7.850 -0.3346 -0.4576  0.0072
    8MOL   C116 1110   2.041   3.602   7.834  0.5985 -0.4562 -0.2285
    8MOL   N117 1111   2.013   3.488   7.816  0.1803  0.2669 -0.3088
    8MOL   H118 1112   1.909   3.774   7.709 -2.1436  0.5261  0.3079
    8MOL   H119 1113   1.979   3.914   7.742  1.2788  0.5039 -0.4738
    8MOL   H120 1114   2.055   3.773   7.954  0.4578 -2.4301  0.6552
    8MOL   C121 1115   2.208   3.800   7.813 -0.1989 -0.2399 -0.1167
    8MOL   C122 1116   2.246   3.936   7.878  0.7093  0.1556  0.0921
    8MOL   C123 1117   2.208   3.949   8.023 -0.3105 -0.0211  0.3077
    8MOL   N124 1118   2.181   3.968   8.131 -0.0558  0.0589 -0.6585
    8MOL   H125 1119   2.266   3.719   7.857  1.2421  1.1686  0.5960
    8MOL   H126 1120   2.233   3.800   7.707 -0.0713  0.6281 -0.0906
    8MOL   H127 1121   2.178   4.006   7.830 -1.0332 -1.8605 -0.5070
    8MOL   C128 1122   2.397   3.978   7.850 -0.1838  0.0754  0.1744
    8MOL   C129 1123   2.501   3.917   7.943  0.1328  0.2298  0.2288
    8MOL   C130 1124   2.501   3.769   7.911  0.1307 -0.0579 -0.0348
    8MOL   N131 1125   2.498   3.661   7.894  0.7260  0.0984 -0.8065
    8MOL   H132 1126   2.429   3.946   7.751  1.7461 -1.7667  1.3549
    8MOL   H133 1127   2.417   4.084   7.864 -0.5353  0.1885 -0.2067
    8MOL   H134 1128   2.474   3.919   8.048  3.2511  2.8651  1.0418
    8MOL   C135 1129   2.640   3.967   7.927 -0.7888  0.3075  0.5725
    8MOL   C136 1130   2.741   3.872   7.986 -0.6000  1.0036  0.1051
    8MOL   C137 1131   2.868   3.934   8.026 -0.0001  0.3245  0.4032
    8MOL   N138 1132   2.969   3.983   8.055  0.3745  0.0191 -0.4925
    8MOL   H139 1133   2.654   3.988   7.821 -1.5151 -0.2596  0.3616
    8MOL   H140 1134   2.636   4.062   7.980 -0.2107 -0.2265  1.5987
    8MOL   H141 1135   2.759   3.799   7.907 -0.1658  2.0041 -0.7484
    8MOL   H142 1136   2.709   3.818   8.075  1.0601 -0.5467 -0.2166
    9MOL     C1 1137   3.745   0.323   5.470 -0.1397 -0.1159  0.7954
    9MOL     C2 1138   3.765   0.323   5.324  0.0851 -0.4544  0.2044
    9MOL     C3 1139   3.904   0.281   5.282  0.8292 -0.3493 -0.5782
    9MOL     N4 1140   4.013   0.247   5.256  0.3802 -0.7426 -0.4092
    9MOL     H5 1141   3.659   0.384   5.499  1.0386  0.6885  2.6624
    9MOL     H6 1142   3.837   0.347   5.522  1.1056 -1.9632 -0.5168
    9MOL     H7 1143   3.758   0.427   5.291  1.1862 -0.2456  0.6030
    9MOL     H8 1144   3.731   0.219   5.499  2.1265 -0.3527  1.0710
    9MOL     C9 1145   3.671   0.240   5.230 -0.0220 -0.2190 -0.0426
    9MOL    C10 1146   3.526   0.291   5.242  0.2800 -1.0364  0.4442
    9MOL    C11 1147   3.519   0.442   5.235  0.2434  0.0625  0.2873
    9MOL    N12 1148   3.513   0.560   5.235  0.4227  0.3687  0.4749
    9MOL    H13 1149   3.697   0.255   5.125 -2.6031  1.1709 -0.5280
    9MOL    H14 1150   3.668   0.133   5.251 -0.1244  0.0232  1.2172
    9MOL    H15 1151   3.491   0.268   5.343 -1.9375 -0.8885 -0.2600
    9MOL    C16 1152   3.439   0.238   5.126 -0.1826  0.2284 -0.6796
    9MOL    C17 1153   3.437   0.083   5.141  0.1367 -0.1308  0.2026
    9MOL    C18 1154   3.425   0.032   5.279 -0.8392 -0.1064 -0.2868
    9MOL    N19 1155   3.412   8.307   5.388 -0.3909 -0.4823 -0.2616
    9MOL    H20 1156   3.338   0.276   5.136  0.3989  1.9610 -1.1101
    9MOL    H21 1157   3.480   0.265   5.028  0.5922 -1.2612 -0.7872
    9MOL    H22 1158   3.531   0.039   5.107  1.0492  0.8275  1.4065
    9MOL    C23 1159   3.325   0.021   5.053  0.3248  0.5538  0.7708
    9MOL    C24 1160   3.368   8.200   4.995  0.3236 -0.8198  0.2361
    9MOL    C25 1161   3.364   8.092   5.098 -0.7787 -0.9210  0.1489
    9MOL    N26 1162   3.361   8.001   5.181 -0.3503  0.5384 -0.0792
    9MOL    H27 1163   3.230   0.005   5.105  0.8680 -2.7428  0.8693
    9MOL    H28 1164   3.300   0.090   4.972 -0.0052  1.1571  1.3830
    9MOL    H29 1165   3.473   8.205   4.967 -0.3019 -1.5462 -2.3329
    9MOL    C30 1166   3.294   8.164   4.865  0.4521  0.1255  0.2187
    9MOL    C31 1167   3.349   8.032   4.807 -0.4140  0.3802  0.4059
    9MOL    C32 1168   3.282   7.906   4.847 -0.7340 -0.5313 -0.1016
    9MOL    N33 1169   3.230   7.808   4.871 -0.2637 -0.0721 -0.2031
    9MOL    H34 1170   3.186   8.169   4.859  0.3553 -1.2982  0.6814
    9MOL    H35 1171   3.330   8.236   4.792  0.4942  0.0979  0.2116
    9MOL    H36 1172   3.450   8.012   4.841 -1.1680  0.8619  3.0316
    9MOL    C37 1173   3.330   8.044   4.648 -0.2118  0.0052  0.2148
    9MOL    C38 1174   3.420   8.148   4.574  0.0019  0.5070 -1.0282
    9MOL    C39 1175   3.555   8.149   4.635  0.1897 -0.2821 -0.2653
    9MOL    N40 1176   3.663   8.148   4.680 -0.4854  0.1230  0.2957
    9MOL    H41 1177   3.354   7.944   4.612  0.8183  0.5440 -0.6094
    9MOL    H42 1178   3.226   8.052   4.615 -0.0428  1.7273  0.0942
    9MOL    H43 1179   3.374   8.247   4.573  1.3766  1.2731  3.0261
    9MOL    C44 1180   3.439   8.108   4.425  0.3545 -0.2138  0.0520
    9MOL    C45 1181   3.463   8.231   4.336 -0.2696  0.0850  0.2209
    9MOL    C46 1182   3.535   0.026   4.402 -0.5158  0.2479 -0.2221
    9MOL    N47 1183   3.600   0.115   4.450 -0.1059 -0.2280  0.4293
    9MOL    H48 1184   3.525   8.041   4.423  0.3798 -0.2260  1.3102
    9MOL    H49 1185   3.351   8.054   4.391  1.0140 -1.5858  0.4890
    9MOL    H50 1186   3.366   8.274   4.310 -1.1852 -1.5410  0.8391
    9MOL    C51 1187   3.531   8.180   4.203  0.0068  0.1264 -0.9069
    9MOL    C52 1188   3.586   8.289   4.104  0.3468 -0.5917  0.4158
    9MOL    C53 1189   3.492   0.087   4.078 -0.5548 -0.2001 -0.1833
    9MOL    N54 1190   3.416   0.173   4.064 -0.3202  0.2647  0.4945
    9MOL    H55 1191   3.617   8.124   4.240  0.7045  0.4533 -1.9907
    9MOL    H56 1192   3.475   8.107   4.144  0.0212  0.1905 -0.9991
    9MOL    H57 1193   3.595   8.239   4.008  3.0303 -0.5301  0.6176
    9MOL    C58 1194   3.729   0.025   4.140 -0.0674  0.1637 -0.2868
    9MOL    C59 1195   3.818   0.082   4.030 -0.7115  0.2229 -0.4867
    9MOL    C60 1196   3.802   0.018   3.896 -0.1788  0.2327 -0.5230
    9MOL    N61 1197   3.786   8.280   3.793 -0.0423  0.6363 -0.3006
    9MOL    H62 1198   3.740   0.069   4.239  0.8059  3.2950 -1.7331
    9MOL    H63 1199   3.767   8.236   4.153  2.2301  0.9691 -0.6375
    9MOL    H64 1200   3.921   0.078   4.067 -0.7069 -1.9806 -0.6831
    9MOL    C65 1201   3.782   0.232   4.003  0.3928 -0.0430 -0.1796
    9MOL    C66 1202   3.805   0.332   4.123 -0.2821 -0.6796 -0.1886
    9MOL    C67 1203   3.939   0.309   4.188 -0.3727 -0.2871 -0.4251
    9MOL    N68 1204   4.039   0.289   4.247 -0.2442 -0.6042  0.7575
    9MOL    H69 1205   3.850   0.266   3.925  0.5535 -0.9742 -0.4593
    9MOL    H70 1206   3.680   0.238   3.964  1.1897 -2.4685 -2.8809
    9MOL    H71 1207   3.736   0.313   4.205 -0.5812  0.7935 -0.0736
    9MOL    C72 1208   3.781   0.478   4.089 -0.0906 -0.4327  0.4492
    9MOL    C73 1209   3.628   0.525   4.099 -0.1328  0.1924 -0.4405
    9MOL    C74 1210   3.580   0.554   4.237 -0.2519  0.1092 -0.3620
    9MOL    N75 1211   3.538   0.580   4.343 -0.7290  0.0579 -0.0862
    9MOL    H76 1212   3.831   0.548   4.155 -0.7181 -0.9990  1.5377
    9MOL    H77 1213   3.825   0.498   3.991  1.8029  0.6785  1.4938
    9MOL    H78 1214   3.569   0.439   4.067  1.1549  0.3337 -3.3927
    9MOL    C79 1215   3.595   0.642   4.013 -0.6913  0.0806  0.3505
    9MOL    C80 1216   3.453   0.642   3.953  0.1133 -0.4615  0.2037
    9MOL    C81 1217   3.421   0.520   3.882  0.0135  0.7379  0.3898
    9MOL    N82 1218   3.397   0.425   3.823  0.7345 -0.1623  0.3344
    9MOL    H83 1219   3.619   0.736   4.061 -0.1641 -0.6339  1.5055
    9MOL    H84 1220   3.670   0.641   3.933  0.5335 -1.4305  1.4797
    9MOL    H85 1221   3.455   0.723   3.880  2.4273 -1.3125 -0.7247
    9MOL    C86 1222   3.328   0.688   4.036 -0.0180  0.5543  0.7259
    9MOL    C87 1223   3.327   0.844   4.063 -0.2051  0.1023 -0.3826
    9MOL    C88 1224   3.276   0.923   3.951  0.1480  0.3330  0.1698
    9MOL    N89 1225   3.234   0.981   3.863 -0.4716  0.1438  0.5261
    9MOL    H90 1226   3.242   0.660   3.976 -0.3353  2.3911  0.3038
    9MOL    H91 1227   3.329   0.621   4.123 -2.4811 -2.1589 -1.2203
    9MOL    H92 1228   3.428   0.884   4.065 -1.2502  2.7984  2.9111
    9MOL    C93 1229   3.243   0.876   4.190  0.1508  0.6546 -0.4664
    9MOL    C94 1230   3.333   0.866   4.322 -0.5247 -0.1597 -0.0938
    9MOL    C95 1231   3.465   0.935   4.311  0.4514 -0.5172 -0.1655
    9MOL    N96 1232   3.565   0.991   4.310  0.1535 -0.0297  0.2665
    9MOL    H97 1233   3.196   0.974   4.175 -2.6267 -0.6417 -0.4137
    9MOL    H98 1234   3.151   0.818   4.183  0.5871  0.1078 -1.6212
    9MOL    H99 1235   3.366   0.763   4.332 -1.5816 -0.4619  0.3661
    9MOL   C100 1236   3.265   0.918   4.457 -0.5648  0.7843 -0.9720
    9MOL   C101 1237   3.243   1.076   4.456 -0.2756 -0.7645  0.2643
    9MOL   C102 1238   3.120   1.095   4.380  0.0726  0.2580 -0.4022
    9MOL   N103 1239   3.022   1.114   4.321 -0.2155  0.5371  1.1359
    9MOL   H104 1240   3.175   0.867   4.493 -0.2440  1.6235  1.0632
    9MOL   H105 1241   3.332   0.904   4.542  0.9922  0.8415 -2.1570
    9MOL   H106 1242   3.327   1.120   4.402  0.7272 -2.5323  0.3563
    9MOL   C107 1243   3.237   1.131   4.603  0.0787 -0.0895 -0.3537
    9MOL   C108 1244   3.243   1.290   4.612 -0.5744 -0.0550  0.1710
    9MOL   C109 1245   3.375   1.331   4.562 -0.5579 -1.4559 -0.7334
    9MOL   N110 1246   3.481   1.368   4.529  0.2617  0.3778 -0.5520
    9MOL   H111 1247   3.152   1.099   4.663 -2.1916  2.2489 -2.2069
    9MOL   H112 1248   3.317   1.089   4.663 -0.9104 -1.7437 -0.1463
    9MOL   H113 1249   3.232   1.319   4.716 -4.8137  1.7523 -0.6599
    9MOL   C114 1250   3.141   1.358   4.514 -0.1483 -0.3363 -0.1314
    9MOL   C115 1251   3.095   1.506   4.526  0.0294  0.4257 -0.4759
    9MOL   C116 1252   3.206   1.609   4.513  0.2093  0.2959  0.5863
    9MOL   N117 1253   3.283   1.691   4.500 -0.0503  0.2340  0.1358
    9MOL   H118 1254   3.168   1.342   4.410  1.3665  0.2867  0.1495
    9MOL   H119 1255   3.047   1.304   4.520 -0.0371 -0.5754 -0.5101
    9MOL   H120 1256   3.054   1.533   4.623  0.6724  4.3563 -1.2203
    9MOL   C121 1257   2.980   1.530   4.420 -0.3232  0.6240  0.7158
    9MOL   C122 1258   2.955   1.669   4.365  0.0363  0.7224 -0.7105
    9MOL   C123 1259   2.860   1.644   4.256 -0.3060  0.1036  0.6331
    9MOL   N124 1260   2.780   1.626   4.169  0.2625  0.2928 -0.1127
    9MOL   H125 1261   2.999   1.464   4.336 -0.1716  0.6087  0.7616
    9MOL   H126 1262   2.893   1.477   4.458  1.8677 -1.6398  2.7640
    9MOL   H127 1263   3.050   1.708   4.327  0.8175  0.4408  0.8665
    9MOL   C128 1264   2.892   1.776   4.460  0.0200  0.5215 -0.1528
    9MOL   C129 1265   2.890   1.910   4.386  0.5961  0.0103  0.4669
    9MOL   C130 1266   2.810   2.006   4.464  0.4239 -0.4057  0.2320
    9MOL   N131 1267   2.750   2.083   4.519 -0.5408 -0.0496  0.4621
    9MOL   H132 1268   2.796   1.747   4.502 -0.1004 -1.3859 -1.6742
    9MOL   H133 1269   2.955   1.776   4.549  0.6645  0.4528 -0.6057
    9MOL   H134 1270   2.824   1.894   4.301 -1.9980 -0.2681  2.4566
    9MOL   C135 1271   3.023   1.976   4.346 -0.6549 -0.0667  0.2323
    9MOL   C136 1272   3.025   2.123   4.290 -0.3827 -0.2210 -0.1698
    9MOL   C137 1273   2.912   2.138   4.194 -1.0540  0.4251 -0.0103
    9MOL   N138 1274   2.822   2.148   4.122 -0.0198 -0.1876  0.3790
    9MOL   H139 1275   3.102   1.975   4.421 -0.6691 -1.7914  0.2456
    9MOL   H140 1276   3.067   1.929   4.258 -0.1231  1.6123 -0.4181
    9MOL   H141 1277   3.123   2.146   4.249  0.2902 -0.2542  1.3538
    9MOL   H142 1278   3.009   2.205   4.361  0.6561 -0.7279  0.6733
   10MOL     C1 1279   6.418   4.357   4.914  0.0318 -0.5869  0.4875
   10MOL     C2 1280   6.397   4.374   5.061 -0.7316  0.7535 -0.3878
   10MOL     C3 1281   6.398   4.515   5.096  0.0142 -0.0667  0.1458
   10MOL     N4 1282   6.405   4.627   5.124 -0.7393  0.3978  0.0135
   10MOL     H5 1283   6.516   4.388   4.876 -0.1147  0.3823  0.8723
   10MOL     H6 1284   6.353   4.422   4.855 -0.2822  0.3670  1.8644
   10MOL     H7 1285   6.483   4.337   5.116 -0.2854 -0.2089 -1.7000
   10MOL     H8 1286   6.397   4.254   4.887 -0.3437 -0.2175 -0.6549
   10MOL     C9 1287   6.264   4.306   5.113 -0.2748 -0.8760  0.1182
   10MOL    C10 1288   6.248   4.154   5.082 -0.5838  0.0453  0.2465
   10MOL    C11 1289   6.376   4.089   5.079 -0.5348  0.0975 -0.3053
   10MOL    N12 1290   6.476   4.034   5.076 -0.0517  0.4268  0.2185
   10MOL    H13 1291   6.261   4.334   5.218  1.5442  1.7855 -0.4849
   10MOL    H14 1292   6.182   4.364   5.072  2.1298  1.6408 -1.3517
   10MOL    H15 1293   6.217   4.147   4.977  0.5511  0.7389 -0.1449
   10MOL    C16 1294   6.147   4.073   5.162 -0.0820 -0.2277 -0.1984
   10MOL    C17 1295   6.195   3.977   5.274  0.6120 -0.4885  0.3260
   10MOL    C18 1296   6.276   4.041   5.380  0.1716  0.0256  0.1696
   10MOL    N19 1297   6.331   4.092   5.471  0.4677  0.5262 -0.1259
   10MOL    H20 1298   6.058   4.127   5.198  0.7388  3.4547 -3.3811
   10MOL    H21 1299   6.095   4.001   5.099  0.7277 -0.4516 -0.6126
   10MOL    H22 1300   6.271   3.918   5.221  2.4564  1.7765  0.3574
   10MOL    C23 1301   6.089   3.885   5.329 -0.2730 -0.6086 -0.0809
   10MOL    C24 1302   6.130   3.795   5.441 -0.4197  0.6078  0.2960
   10MOL    C25 1303   6.005   3.742   5.498  0.0145 -0.0142  0.6199
   10MOL    N26 1304   5.909   3.696   5.545  0.0124 -0.0089 -0.1068
   10MOL    H27 1305   6.007   3.948   5.363  0.5072 -0.5239  1.6584
   10MOL    H28 1306   6.045   3.823   5.251  0.4236 -1.7390  0.4112
   10MOL    H29 1307   6.180   3.849   5.520 -0.9958  0.0397  1.0569
   10MOL    C30 1308   6.221   3.679   5.399  0.0446 -0.7041 -0.4439
   10MOL    C31 1309   6.230   3.569   5.507  0.3336 -0.1553 -0.3824
   10MOL    C32 1310   6.127   3.464   5.487 -0.2551 -0.3045 -0.0938
   10MOL    N33 1311   6.046   3.384   5.470  0.0106 -0.7004  0.6740
   10MOL    H34 1312   6.181   3.639   5.305  1.5559  0.8413 -1.7810
   10MOL    H35 1313   6.317   3.723   5.374 -0.2658  0.2137 -0.0441
   10MOL    H36 1314   6.197   3.618   5.599 -1.5111 -0.0602 -1.0683
   10MOL    C37 1315   6.365   3.511   5.540 -0.1365  0.7263 -0.0883
   10MOL    C38 1316   6.388   3.371   5.482 -0.3707 -0.0070 -0.0118
   10MOL    C39 1317   6.362   3.375   5.335 -0.4907  0.4215  0.1350
   10MOL    N40 1318   6.345   3.384   5.220 -0.6210  0.0845  0.0736
   10MOL    H41 1319   6.440   3.579   5.500  0.2105 -0.4866 -1.5613
   10MOL    H42 1320   6.377   3.513   5.648 -0.4081 -2.6290  0.0616
   10MOL    H43 1321   6.306   3.308   5.516 -1.4704  0.5051 -1.6516
   10MOL    C44 1322   6.531   3.312   5.493 -0.4496 -0.2792 -0.1943
   10MOL    C45 1323   6.531   3.209   5.607  0.2320 -0.3345  0.4511
   10MOL    C46 1324   6.452   3.086   5.561 -0.2155 -0.4707  0.3257
   10MOL    N47 1325   6.389   2.997   5.522 -0.3980 -0.8887  0.3482
   10MOL    H48 1326   6.569   3.257   5.408  3.3344  1.9791 -0.0901
   10MOL    H49 1327   6.608   3.388   5.510  0.2669 -1.5936  2.8651
   10MOL    H50 1328   6.477   3.261   5.687 -0.2478  0.2540 -0.2479
   10MOL    C51 1329   6.672   3.185   5.659 -0.5782  0.3684 -0.3398
   10MOL    C52 1330   6.693   3.058   5.756 -0.7212 -1.0009 -0.0014
   10MOL    C53 1331   6.837   3.045   5.796  0.2086  0.0413  0.4510
   10MOL    N54 1332   6.947   3.032   5.827 -0.4064  0.3014 -0.2938
   10MOL    H55 1333   6.737   3.159   5.576  2.6749  1.0152  1.8971
   10MOL    H56 1334   6.714   3.276   5.702 -0.7966  0.1052  0.4297
   10MOL    H57 1335   6.671   2.969   5.698 -0.4225 -1.0677 -0.0112
   10MOL    C58 1336   6.591   3.058   5.876  0.4629  0.2649  1.0628
   10MOL    C59 1337   6.591   2.913   5.945  0.5875 -0.0471  0.7429
   10MOL    C60 1338   6.700   2.903   6.039 -0.5886  0.4713  0.1311
   10MOL    N61 1339   6.789   2.892   6.115  0.2941 -0.0879  0.8626
   10MOL    H62 1340   6.608   3.143   5.943 -1.0909  1.8979 -0.5294
   10MOL    H63 1341   6.490   3.074   5.839  1.1600  0.6125 -0.7364
   10MOL    H64 1342   6.597   2.836   5.869 -0.6054  1.7514 -1.2481
   10MOL    C65 1343   6.462   2.888   6.026 -0.0786  0.1644 -0.5792
   10MOL    C66 1344   6.421   2.737   6.041  0.3641  0.2889  0.5802
   10MOL    C67 1345   6.482   2.667   6.155  0.4155  0.1083  0.2908
   10MOL    N68 1346   6.527   2.616   6.248 -0.6750 -0.4874 -0.3893
   10MOL    H69 1347   6.496   2.930   6.121 -1.4063 -1.9490  0.8969
   10MOL    H70 1348   6.386   2.955   5.987  1.7751  1.3035 -2.3039
   10MOL    H71 1349   6.458   2.692   5.949 -1.0593  0.2056  0.0367
   10MOL    C72 1350   6.268   2.737   6.057 -0.4309  0.2132  0.4622
   10MOL    C73 1351   6.183   2.606   6.048  0.2460 -0.3787 -0.1558
   10MOL    C74 1352   6.228   2.489   6.130  0.5321 -0.3686  0.3537
   10MOL    N75 1353   6.261   2.395   6.194  0.6413 -0.2750 -0.4569
   10MOL    H76 1354   6.245   2.778   6.155  2.5786 -0.0137  1.3086
   10MOL    H77 1355   6.214   2.798   5.984 -2.3400  1.7887  3.1211
   10MOL    H78 1356   6.195   2.571   5.946 -0.3917 -0.8300 -0.0770
   10MOL    C79 1357   6.036   2.635   6.067  0.4211  0.3505 -0.1686
   10MOL    C80 1358   5.957   2.550   5.958  0.2738  0.4506 -0.4224
   10MOL    C81 1359   5.970   2.405   5.974 -0.2607 -0.0695 -0.1674
   10MOL    N82 1360   5.982   2.289   5.977  0.1620 -0.5350  0.1787
   10MOL    H83 1361   5.992   2.609   6.163 -1.8945  0.1109 -1.2603
   10MOL    H84 1362   6.015   2.742   6.059 -0.9440  0.1490  0.5523
   10MOL    H85 1363   6.007   2.574   5.864  0.7961  0.2490 -0.2020
   10MOL    C86 1364   5.811   2.593   5.941 -0.1750  0.0519 -0.1632
   10MOL    C87 1365   5.743   2.539   5.808 -0.2850  0.3011 -0.0693
   10MOL    C88 1366   5.685   2.406   5.827 -0.1020 -0.7823  0.1681
   10MOL    N89 1367   5.634   2.304   5.845 -0.6304  0.4222 -0.3626
   10MOL    H90 1368   5.752   2.574   6.031 -1.1035  3.0589 -0.0679
   10MOL    H91 1369   5.809   2.702   5.950  1.7453  0.0995 -0.2612
   10MOL    H92 1370   5.824   2.527   5.736 -0.8128 -2.4298 -0.2543
   10MOL    C93 1371   5.655   2.647   5.740  0.3552 -0.6148  0.7940
   10MOL    C94 1372   5.530   2.583   5.665 -0.0813  0.4211 -0.8288
   10MOL    C95 1373   5.435   2.685   5.631  0.3376  0.1534  0.1394
   10MOL    N96 1374   5.351   2.759   5.599  0.2233  0.1665  0.1964
   10MOL    H97 1375   5.624   2.716   5.819 -0.2731 -0.2516  0.2338
   10MOL    H98 1376   5.716   2.705   5.671 -1.4016 -0.6715 -0.8615
   10MOL    H99 1377   5.484   2.513   5.735  1.1257 -1.1762 -1.5986
   10MOL   C100 1378   5.580   2.501   5.538  0.2301 -0.4268 -0.3718
   10MOL   C101 1379   5.504   2.369   5.522 -0.2909  0.1900  0.1630
   10MOL   C102 1380   5.369   2.368   5.467 -0.5824 -0.1942  0.1297
   10MOL   N103 1381   5.260   2.371   5.425  0.2818  0.4241  0.1313
   10MOL   H104 1382   5.564   2.556   5.445 -0.1040 -0.2250 -0.1970
   10MOL   H105 1383   5.685   2.481   5.558 -0.1261 -1.5557  0.4165
   10MOL   H106 1384   5.493   2.334   5.625  0.1235  2.4907  1.0339
   10MOL   C107 1385   5.588   2.264   5.442 -0.5609  0.4316  0.2137
   10MOL   C108 1386   5.523   2.212   5.307 -0.1459  0.5627 -0.6043
   10MOL   C109 1387   5.525   2.323   5.205  0.1752 -0.0016  0.1770
   10MOL   N110 1388   5.523   2.412   5.129  0.4130 -0.5622 -0.2153
   10MOL   H111 1389   5.692   2.296   5.438 -0.2934  0.0400  3.1434
   10MOL   H112 1390   5.601   2.183   5.514 -0.1967 -0.6937 -1.1108
   10MOL   H113 1391   5.422   2.172   5.314 -0.0583  0.7071  2.2093
   10MOL   C114 1392   5.612   2.096   5.262  0.3970 -0.0306  0.0730
   10MOL   C115 1393   5.574   2.007   5.136 -0.1186 -0.5502 -0.3863
   10MOL   C116 1394   5.595   2.068   5.004  0.2794  0.2741  0.8233
   10MOL   N117 1395   5.616   2.112   4.896 -0.3517  0.0722  0.1399
   10MOL   H118 1396   5.714   2.134   5.251  0.5325  0.4119  2.4813
   10MOL   H119 1397   5.616   2.032   5.350  0.2286  0.4349  0.4251
   10MOL   H120 1398   5.466   1.993   5.142  0.0764 -1.5222  1.0201
   10MOL   C121 1399   5.624   1.866   5.150  0.5692  0.0067  0.3013
   10MOL   C122 1400   5.561   1.781   5.266 -0.1223 -0.0618  0.3469
   10MOL   C123 1401   5.409   1.786   5.270 -0.0716 -0.8613 -0.2082
   10MOL   N124 1402   5.294   1.794   5.273 -0.2554  0.2232  1.1430
   10MOL   H125 1403   5.605   1.816   5.055  0.0370  0.1154  0.3468
   10MOL   H126 1404   5.733   1.869   5.156  0.5182  0.8560  0.8649
   10MOL   H127 1405   5.587   1.826   5.361 -1.6276  2.0816 -0.2263
   10MOL   C128 1406   5.587   1.626   5.249 -0.1148  0.1232  0.8004
   10MOL   C129 1407   5.736   1.578   5.272 -0.1911  0.0121  0.1741
   10MOL   C130 1408   5.793   1.644   5.389 -0.2587  0.0373 -0.7840
   10MOL   N131 1409   5.837   1.691   5.479 -0.1926  0.6608  0.9043
   10MOL   H132 1410   5.525   1.562   5.312 -0.5938  0.2613  0.4665
   10MOL   H133 1411   5.562   1.587   5.150 -0.6330 -0.8654  1.3051
   10MOL   H134 1412   5.796   1.603   5.184  0.7743  0.2241  0.8847
   10MOL   C135 1413   5.735   1.423   5.286  0.8048 -0.0844  0.7404
   10MOL   C136 1414   5.880   1.367   5.279 -0.2604  0.5261 -0.2772
   10MOL   C137 1415   5.950   1.387   5.152  0.0302  0.0262 -0.9848
   10MOL   N138 1416   6.005   1.406   5.049  0.2390 -0.1733  0.3383
   10MOL   H139 1417   5.684   1.393   5.378  1.1858 -1.4889  0.5077
   10MOL   H140 1418   5.686   1.381   5.198 -0.8555 -1.0935  2.1246
   10MOL   H141 1419   5.871   1.258   5.284 -0.8937  0.5351 -1.1124
   10MOL   H142 1420   5.947   1.389   5.362  2.3423  0.6803 -2.3890
   11MOL     C1 1421   2.452   3.027   7.377 -0.4761  0.3170  0.1910
   11MOL     C2 1422   2.411   2.976   7.235 -0.7813 -0.5616  0.0637
   11MOL     C3 1423   2.524   2.924   7.153  0.3311 -0.4755 -0.0729
   11MOL     N4 1424   2.610   2.881   7.086 -0.3748  0.7224 -0.0738
   11MOL     H5 1425   2.366   3.061   7.434  0.7794 -0.6387  2.7634
   11MOL     H6 1426   2.524   3.109   7.372  0.2918 -0.3288  0.4554
   11MOL     H7 1427   2.387   3.062   7.171  1.1789  0.6664  0.8976
   11MOL     H8 1428   2.496   2.942   7.429  2.6594  1.3992 -0.5654
   11MOL     C9 1429   2.288   2.886   7.230  0.4226  0.3526  0.0145
   11MOL    C10 1430   2.230   2.861   7.088 -0.1341  1.1010  0.3958
   11MOL    C11 1431   2.321   2.803   6.986 -0.2472  0.3956  0.9139
   11MOL    N12 1432   2.386   2.755   6.898  0.4010  0.0503 -0.6153
   11MOL    H13 1433   2.320   2.787   7.262 -0.5333  0.0748  0.1150
   11MOL    H14 1434   2.215   2.925   7.300  1.6194  1.7798  0.4720
   11MOL    H15 1435   2.209   2.957   7.041 -0.9303  0.5499 -0.4053
   11MOL    C16 1436   2.101   2.770   7.106  0.1086  0.3558  0.1583
   11MOL    C17 1437   2.098   2.619   7.085 -0.3407 -0.1835  0.1803
   11MOL    C18 1438   2.188   2.549   7.171 -0.1349 -0.2224  1.1226
   11MOL    N19 1439   2.265   2.497   7.239 -0.2020  0.5399 -0.0031
   11MOL    H20 1440   2.047   2.780   7.200  0.5267  2.3681  0.2231
   11MOL    H21 1441   2.027   2.815   7.039 -0.1727 -1.6715 -0.9230
   11MOL    H22 1442   2.132   2.585   6.987  1.2404 -0.3498  0.7674
   11MOL    C23 1443   1.955   2.561   7.116  0.3870  0.2151  0.4480
   11MOL    C24 1444   1.841   2.584   7.008 -0.0100 -0.2211  0.3400
   11MOL    C25 1445   1.840   2.478   6.905  0.6829  0.5902  1.2952
   11MOL    N26 1446   1.842   2.398   6.824 -0.6288 -0.0247 -0.7391
   11MOL    H27 1447   1.952   2.452   7.126 -3.0704  0.0471 -1.4947
   11MOL    H28 1448   1.925   2.591   7.216  1.0109  1.1418  0.3602
   11MOL    H29 1449   1.865   2.679   6.960  0.9518  0.3323  1.8615
   11MOL    C30 1450   1.700   2.586   7.080  0.0549 -0.0105  0.2451
   11MOL    C31 1451   1.579   2.648   7.014 -0.1383  0.3466 -0.2787
   11MOL    C32 1452   1.555   2.597   6.876 -0.0950 -0.2888 -0.3554
   11MOL    N33 1453   1.546   2.559   6.766 -0.0119  0.3751 -0.1441
   11MOL    H34 1454   1.676   2.481   7.099 -0.9272  0.4954  1.8836
   11MOL    H35 1455   1.710   2.612   7.186 -0.1278 -1.4458  0.6268
   11MOL    H36 1456   1.591   2.755   6.997 -4.2250  1.1838  1.5643
   11MOL    C37 1457   1.442   2.622   7.078 -0.2403  0.5352 -0.3125
   11MOL    C38 1458   1.416   2.653   7.224  0.0155  0.6944 -0.1498
   11MOL    C39 1459   1.473   2.560   7.319  0.0987 -0.0171 -0.2966
   11MOL    N40 1460   1.518   2.488   7.404  0.1579 -0.3753  0.6045
   11MOL    H41 1461   1.354   2.665   7.031 -0.4706  0.0784 -0.2997
   11MOL    H42 1462   1.422   2.515   7.080  3.9809 -0.3467 -0.7958
   11MOL    H43 1463   1.313   2.621   7.240  0.1093  0.4055 -0.1185
   11MOL    C44 1464   1.445   2.799   7.258 -0.5080 -0.3830 -0.2401
   11MOL    C45 1465   1.376   2.845   7.390  0.0538 -0.1544  0.1478
   11MOL    C46 1466   1.467   2.814   7.500  0.4312 -0.2467  0.1500
   11MOL    N47 1467   1.539   2.787   7.588  0.5411 -0.9941 -0.1629
   11MOL    H48 1468   1.550   2.825   7.252 -0.4510 -0.3532  0.7536
   11MOL    H49 1469   1.402   2.855   7.174  0.9849  0.6479 -0.3427
   11MOL    H50 1470   1.286   2.787   7.407 -0.2190  0.5102  0.9574
   11MOL    C51 1471   1.329   2.992   7.393  0.0736  0.2104 -0.0180
   11MOL    C52 1472   1.446   3.099   7.432  0.1472  0.2634 -0.2145
   11MOL    C53 1473   1.560   3.085   7.351  0.2302  0.3970 -0.2144
   11MOL    N54 1474   1.651   3.073   7.281  0.3470  0.5165 -0.7817
   11MOL    H55 1475   1.283   3.028   7.300 -2.0098 -0.7525  0.6177
   11MOL    H56 1476   1.247   2.999   7.464  0.2618 -2.0030  0.4363
   11MOL    H57 1477   1.480   3.088   7.535  0.6150 -0.2406 -0.4258
   11MOL    C58 1478   1.392   3.245   7.432  0.4192 -0.0447 -0.6022
   11MOL    C59 1479   1.333   3.312   7.307 -0.5619  0.2350 -0.1551
   11MOL    C60 1480   1.202   3.264   7.276 -0.4881 -0.4222  1.0445
   11MOL    N61 1481   1.097   3.233   7.252 -0.6159  0.1634 -0.6345
   11MOL    H62 1482   1.315   3.265   7.507 -0.5350 -0.1479 -1.5316
   11MOL    H63 1483   1.476   3.312   7.452 -2.2817  3.6711 -1.0264
   11MOL    H64 1484   1.390   3.279   7.220  0.2062 -0.3618  0.5667
   11MOL    C65 1485   1.323   3.464   7.330  0.4304  0.3004 -0.4658
   11MOL    C66 1486   1.284   3.544   7.200 -0.1129 -0.3188  0.8429
   11MOL    C67 1487   1.267   3.682   7.231  0.5364 -1.1040  0.0807
   11MOL    N68 1488   1.256   3.797   7.257  0.0779  0.1087 -0.1135
   11MOL    H69 1489   1.249   3.495   7.404 -3.0203 -1.4941 -2.9895
   11MOL    H70 1490   1.422   3.499   7.358 -0.1112  0.2617  1.5657
   11MOL    H71 1491   1.183   3.507   7.183 -0.5893  1.1127  0.4375
   11MOL    C72 1492   1.381   3.514   7.076 -0.5422 -0.1524  0.0416
   11MOL    C73 1493   1.348   3.573   6.938  0.9971 -0.0731 -0.3469
   11MOL    C74 1494   1.466   3.596   6.857  0.6331 -0.2389  0.5256
   11MOL    N75 1495   1.555   3.621   6.790  0.3394 -0.2163  0.1590
   11MOL    H76 1496   1.479   3.555   7.098  0.4309 -1.6317 -1.4366
   11MOL    H77 1497   1.414   3.412   7.059  1.1552  0.1499  1.3698
   11MOL    H78 1498   1.296   3.666   6.959  0.8820 -0.7411  2.4715
   11MOL    C79 1499   1.248   3.480   6.873  0.0192 -0.3724 -0.3059
   11MOL    C80 1500   1.216   3.506   6.723 -0.5995 -0.4676  0.8925
   11MOL    C81 1501   1.114   3.418   6.678  0.1144  0.3364 -0.5921
   11MOL    N82 1502   1.031   3.345   6.646 -0.1523  0.4369 -0.4809
   11MOL    H83 1503   1.294   3.382   6.874  2.1768  0.6081  1.7809
   11MOL    H84 1504   1.154   3.477   6.928 -0.2033 -1.1650 -0.7233
   11MOL    H85 1505   1.299   3.474   6.660  0.5830 -0.7093  2.5373
   11MOL    C86 1506   1.184   3.658   6.697 -0.0164 -0.1608 -0.5847
   11MOL    C87 1507   1.048   3.712   6.755  0.1346  0.4756 -0.1797
   11MOL    C88 1508   1.048   3.716   6.900 -0.0865 -0.3898  0.6415
   11MOL    N89 1509   1.047   3.712   7.016 -0.1322 -0.2426 -0.4780
   11MOL    H90 1510   1.270   3.718   6.726  0.4012 -0.2284 -1.6302
   11MOL    H91 1511   1.182   3.672   6.588  0.3093 -1.1629 -0.7233
   11MOL    H92 1512   0.963   3.652   6.722 -0.4340  0.6502  0.9567
   11MOL    C93 1513   1.030   3.859   6.701  0.4403 -0.1871  0.0110
   11MOL    C94 1514   1.017   3.874   6.542 -0.2899  0.1468  0.4860
   11MOL    C95 1515   0.898   3.801   6.490 -0.5285  0.1128 -0.0095
   11MOL    N96 1516   0.813   3.740   6.455 -0.1043 -0.3454 -0.4332
   11MOL    H97 1517   0.946   3.906   6.752  0.2763 -0.9146  0.4229
   11MOL    H98 1518   1.116   3.909   6.745  0.1240  0.3508  0.0114
   11MOL    H99 1519   1.111   3.838   6.502  0.5659  1.1323  1.5921
   11MOL   C100 1520   1.016   4.017   6.491  0.3823 -0.1274  0.1545
   11MOL   C101 1521   0.978   4.041   6.338 -0.3984 -0.2506  0.1337
   11MOL   C102 1522   0.829   4.039   6.315  0.5086 -1.0727  0.2749
   11MOL   N103 1523   0.715   4.046   6.294  0.5975  0.8310 -0.3246
   11MOL   H104 1524   0.959   4.078   6.561 -0.8824 -0.0423 -0.9160
   11MOL   H105 1525   1.116   4.059   6.494  1.2123 -2.0512  0.0774
   11MOL   H106 1526   0.989   3.965   6.260  0.7671  0.3325 -0.2797
   11MOL   C107 1527   1.019   4.173   6.281 -0.5812 -0.3597  0.6177
   11MOL   C108 1528   1.169   4.171   6.245 -0.1254 -0.7244  0.1379
   11MOL   C109 1529   1.193   4.078   6.133 -0.1094  0.0413  0.8859
   11MOL   N110 1530   1.216   4.010   6.042  0.2226  0.0384  0.4984
   11MOL   H111 1531   0.970   4.202   6.188 -0.4327  1.0383  0.9661
   11MOL   H112 1532   0.999   4.258   6.347  1.8981  0.1701  0.7340
   11MOL   H113 1533   1.221   4.129   6.331  1.7240 -0.3037 -0.7461
   11MOL   C114 1534   1.216   4.310   6.198 -0.7102  0.1592  0.3523
   11MOL   C115 1535   1.372   4.325   6.216 -0.7729  0.3567  0.2248
   11MOL   C116 1536   1.423   4.383   6.092  0.4897  0.0259  0.4866
   11MOL   N117 1537   1.464   4.434   5.999  0.5276 -0.0290  0.7035
   11MOL   H118 1538   1.178   4.321   6.097 -0.7329  0.4705  0.3957
   11MOL   H119 1539   1.165   4.386   6.258  0.0010 -1.1799  2.7595
   11MOL   H120 1540   1.420   4.227   6.218 -1.1981  0.0869 -1.7037
   11MOL   C121 1541   1.408   4.395   6.348 -0.4999 -0.1899  0.1212
   11MOL   C122 1542   1.367   4.328   6.484 -0.0756  0.3377  0.3867
   11MOL   C123 1543   1.438   4.199   6.480 -0.3454 -0.5840  0.5972
   11MOL   N124 1544   1.496   4.096   6.474  0.4703 -0.5139 -0.4916
   11MOL   H125 1545   1.517   4.402   6.349 -0.4798 -0.3805  2.6104
   11MOL   H126 1546   1.365   4.495   6.351 -0.4035 -0.0977 -1.3070
   11MOL   H127 1547   1.259   4.314   6.478 -0.2075  1.5357 -0.1125
   11MOL   C128 1548   1.406   4.425   6.606  0.1424  0.2450 -0.4037
   11MOL   C129 1549   1.417   4.358   6.750 -0.0619  0.4321  0.1719
   11MOL   C130 1550   1.301   4.266   6.769  0.3791  1.0120  0.1581
   11MOL   N131 1551   1.215   4.193   6.782  0.3827 -0.0233 -0.4952
   11MOL   H132 1552   1.502   4.471   6.579 -0.5623  0.9846 -1.7066
   11MOL   H133 1553   1.339   4.511   6.611 -0.8797 -0.6120  0.9184
   11MOL   H134 1554   1.424   4.435   6.827  1.5289  0.6314 -0.1422
   11MOL   C135 1555   1.553   4.289   6.774  0.3723  0.0883 -0.3945
   11MOL   C136 1556   1.660   4.371   6.839 -0.6416  0.4362  0.6818
   11MOL   C137 1557   1.702   4.494   6.766 -0.0265  0.2729 -0.2721
   11MOL   N138 1558   1.734   4.593   6.710 -0.4340  0.3503  0.2838
   11MOL   H139 1559   1.538   4.205   6.842  1.4089 -1.1220 -1.6464
   11MOL   H140 1560   1.588   4.249   6.679  0.9152 -0.4399  0.0239
   11MOL   H141 1561   1.749   4.309   6.829 -1.0123  0.3866 -3.0904
   11MOL   H142 1562   1.635   4.396   6.942  0.9673  2.4221  0.6059
   12MOL     C1 1563   3.100   6.405   3.399 -0.1326  0.1349 -0.2589
   12MOL     C2 1564   2.957   6.454   3.368  0.0713  0.1248 -0.7345
   12MOL     C3 1565   2.886   6.494   3.497 -0.3875  0.3673 -0.2613
   12MOL     N4 1566   2.836   6.524   3.597  0.5739  0.2465  0.2370
   12MOL     H5 1567   3.153   6.470   3.469 -1.0583  0.7770 -0.1476
   12MOL     H6 1568   3.171   6.382   3.320 -0.3490  1.1036 -0.7353
   12MOL     H7 1569   2.898   6.376   3.321  0.9240 -0.4490 -0.8615
   12MOL     H8 1570   3.091   6.324   3.471 -0.2535  0.7963  0.4896
   12MOL     C9 1571   2.959   6.573   3.280 -0.0796 -0.7137 -0.4021
   12MOL    C10 1572   3.003   6.716   3.342  0.1898  0.0523 -0.1000
   12MOL    C11 1573   3.138   6.720   3.393  0.1859 -0.5881  0.2735
   12MOL    N12 1574   3.244   6.731   3.441  0.0220 -0.3589 -0.6167
   12MOL    H13 1575   3.017   6.563   3.188  0.8490  1.6257 -0.1047
   12MOL    H14 1576   2.857   6.576   3.241  1.1442 -0.1446 -3.6964
   12MOL    H15 1577   2.940   6.740   3.428  0.6067 -0.2461  0.2916
   12MOL    C16 1578   2.973   6.830   3.244 -0.2306  0.3508  0.5430
   12MOL    C17 1579   3.014   6.973   3.282  0.5429 -0.2597 -0.4641
   12MOL    C18 1580   3.000   7.057   3.163 -0.9580 -0.2941  0.4313
   12MOL    N19 1581   2.988   7.126   3.070  0.7988 -0.4034 -0.5885
   12MOL    H20 1582   3.030   6.811   3.153  0.1074  2.7476  0.1992
   12MOL    H21 1583   2.868   6.833   3.216 -0.6528 -3.3390  1.5522
   12MOL    H22 1584   3.120   6.964   3.305  0.5103 -0.5223 -0.4158
   12MOL    C23 1585   2.953   7.026   3.420 -0.2706 -0.8509 -0.2460
   12MOL    C24 1586   2.843   7.139   3.411 -0.5480 -0.6196  0.1283
   12MOL    C25 1587   2.750   7.109   3.301  0.0406  0.2438  0.5131
   12MOL    N26 1588   2.678   7.080   3.216  0.5414  0.1726  0.2581
   12MOL    H27 1589   2.902   6.941   3.466  0.8037 -2.3082 -1.7035
   12MOL    H28 1590   3.037   7.053   3.484 -0.6323 -0.7250  0.1745
   12MOL    H29 1591   2.892   7.230   3.377  0.2003 -0.7340  0.8737
   12MOL    C30 1592   2.784   7.164   3.554  1.0227 -0.2651 -0.0308
   12MOL    C31 1593   2.701   7.291   3.575  0.6527 -0.0247 -0.4395
   12MOL    C32 1594   2.581   7.305   3.490 -0.4506 -0.7299  0.5366
   12MOL    N33 1595   2.486   7.307   3.424  0.5643  0.2109 -0.6041
   12MOL    H34 1596   2.725   7.076   3.579  1.3693 -0.1326  1.2880
   12MOL    H35 1597   2.873   7.173   3.618 -1.5996  0.7153  3.6746
   12MOL    H36 1598   2.769   7.371   3.544  0.0840 -0.2301 -2.2551
   12MOL    C37 1599   2.664   7.292   3.726  0.4146 -0.0848 -0.3363
   12MOL    C38 1600   2.595   7.419   3.774 -0.4977  0.4294  0.2046
   12MOL    C39 1601   2.514   7.396   3.895  0.1058  0.1022 -0.0589
   12MOL    N40 1602   2.449   7.377   3.991 -0.1468  0.1339 -0.0261
   12MOL    H41 1603   2.602   7.206   3.751  0.5840  0.1725  0.9726
   12MOL    H42 1604   2.753   7.276   3.787  1.5517  0.4226 -1.8285
   12MOL    H43 1605   2.518   7.445   3.702  1.7195 -1.2805 -2.8870
   12MOL    C44 1606   2.697   7.530   3.776  0.4561 -0.2333  0.9750
   12MOL    C45 1607   2.648   7.657   3.842  0.0425  0.1641  0.0999
   12MOL    C46 1608   2.521   7.714   3.792  0.7696 -0.2013  0.1818
   12MOL    N47 1609   2.415   7.763   3.760  0.5872  0.2504  0.0114
   12MOL    H48 1610   2.789   7.497   3.824 -0.0819  0.4320  2.4944
   12MOL    H49 1611   2.736   7.550   3.676 -0.2804  2.6638  1.2353
   12MOL    H50 1612   2.722   7.728   3.805  0.9700 -1.0369 -0.3608
   12MOL    C51 1613   2.645   7.651   3.999 -0.3452  0.7413  0.2617
   12MOL    C52 1614   2.600   7.782   4.067 -0.2107  0.2910 -0.5566
   12MOL    C53 1615   2.458   7.822   4.069  0.1239  0.0686 -0.1323
   12MOL    N54 1616   2.346   7.855   4.070 -0.1054 -0.7394 -0.2282
   12MOL    H55 1617   2.569   7.584   4.040 -1.7257  1.5063 -0.9835
   12MOL    H56 1618   2.745   7.617   4.023 -0.1157  1.5531  0.4438
   12MOL    H57 1619   2.645   7.871   4.023 -2.7500  2.0746  0.3692
   12MOL    C58 1620   2.647   7.774   4.219  0.3896 -1.0227 -0.7062
   12MOL    C59 1621   2.644   7.901   4.305 -0.5181 -0.1927  0.6038
   12MOL    C60 1622   2.744   7.995   4.252 -0.0362 -0.0736  0.0382
   12MOL    N61 1623   2.823   8.068   4.215  0.1816 -0.7893 -0.3460
   12MOL    H62 1624   2.587   7.697   4.267  0.6520 -0.7621  0.0458
   12MOL    H63 1625   2.749   7.736   4.211  1.4325  1.3675  0.7041
   12MOL    H64 1626   2.681   7.867   4.401  1.1878  1.2490  0.4837
   12MOL    C65 1627   2.511   7.964   4.332  0.5027  0.6628  0.4596
   12MOL    C66 1628   2.490   8.016   4.474  0.0652 -1.0840 -0.0219
   12MOL    C67 1629   2.614   8.059   4.533 -0.7167 -0.3213 -0.5030
   12MOL    N68 1630   2.715   8.085   4.582  0.1988  0.4382 -0.8918
   12MOL    H69 1631   2.488   8.043   4.260  0.7291  0.2554 -0.0708
   12MOL    H70 1632   2.436   7.886   4.316  0.1726  1.3949 -1.8700
   12MOL    H71 1633   2.454   7.927   4.526 -2.7866 -0.9948 -1.7226
   12MOL    C72 1634   2.391   8.126   4.478  0.1049  0.5707 -0.3350
   12MOL    C73 1635   2.318   8.138   4.616  0.2296  0.0844  0.4707
   12MOL    C74 1636   2.411   8.156   4.734 -0.4088  0.1708  0.1790
   12MOL    N75 1637   2.483   8.172   4.826 -0.3177  0.7544  0.9538
   12MOL    H76 1638   2.443   8.207   4.426  1.5524 -2.2523 -3.4759
   12MOL    H77 1639   2.306   8.110   4.412 -0.8917  0.6567  0.9107
   12MOL    H78 1640   2.266   8.044   4.636  0.1158  0.2443  0.9499
   12MOL    C79 1641   2.205   8.244   4.606 -0.1940  0.1396 -0.3822
   12MOL    C80 1642   2.066   8.204   4.651  0.0402  0.2891  0.0989
   12MOL    C81 1643   2.070   8.184   4.799 -0.3187 -0.1194 -0.2511
   12MOL    N82 1644   2.075   8.166   4.911  0.2017 -0.6043  0.6306
   12MOL    H83 1645   2.228   0.024   4.659 -0.7665  0.6276 -0.9727
   12MOL    H84 1646   2.198   8.287   4.506  0.9589  0.9360 -0.1373
   12MOL    H85 1647   2.055   8.100   4.618  3.5702  0.2121 -1.1170
   12MOL    C86 1648   1.945   8.290   4.612  0.2680 -0.0691  0.7698
   12MOL    C87 1649   1.936   8.301   4.460  0.8522  0.0959 -0.2369
   12MOL    C88 1650   1.919   8.167   4.402 -0.4337 -0.2756 -0.0798
   12MOL    N89 1651   1.899   8.064   4.356  0.0015  0.9290 -0.3502
   12MOL    H90 1652   1.862   8.238   4.660  0.0240 -2.7495 -2.3863
   12MOL    H91 1653   1.953   0.079   4.652 -0.9832  1.0977 -1.7886
   12MOL    H92 1654   2.029   0.031   4.424  0.9175 -0.4037 -0.6574
   12MOL    C93 1655   1.829   0.091   4.414  0.7948 -0.4943 -0.1865
   12MOL    C94 1656   1.830   0.104   4.260 -0.8881  0.4303 -0.2777
   12MOL    C95 1657   1.966   0.099   4.202  0.1766  0.4311 -0.6498
   12MOL    N96 1658   2.070   0.093   4.153 -0.4445  0.0118  0.5059
   12MOL    H97 1659   1.738   0.055   4.462 -0.1384  1.1437 -0.6918
   12MOL    H98 1660   1.850   0.183   4.468 -0.1908 -0.9739  1.0399
   12MOL    H99 1661   1.802   0.207   4.236  0.2795  0.5989 -0.9921
   12MOL   C100 1662   1.730   0.002   4.185 -0.5602  0.7878  0.1923
   12MOL   C101 1663   1.588   0.053   4.160  0.1475 -0.0976 -0.7318
   12MOL   C102 1664   1.532   0.103   4.288 -0.5351 -0.2215  0.1135
   12MOL   N103 1665   1.494   0.147   4.386  0.2009  0.2681  0.0919
   12MOL   H104 1666   1.769   8.278   4.090  0.3747 -1.1481  1.2711
   12MOL   H105 1667   1.726   8.227   4.250 -1.7718  0.1699 -0.7004
   12MOL   H106 1668   1.521   8.280   4.148 -0.0353 -0.4717  2.4279
   12MOL   C107 1669   1.571   0.143   4.040 -0.3740 -0.1744  0.5527
   12MOL   C108 1670   1.437   0.221   4.044 -0.0418  0.1888  0.0527
   12MOL   C109 1671   1.428   0.303   3.918 -0.1501 -0.1167  0.4186
   12MOL   N110 1672   1.429   0.369   3.819  0.0988 -0.2248  0.0972
   12MOL   H111 1673   1.644   0.223   4.038  0.0012 -0.5256 -1.1909
   12MOL   H112 1674   1.583   0.082   3.950 -1.7440 -2.0470  1.5978
   12MOL   H113 1675   1.450   0.284   4.132  1.7171 -1.0045  0.6725
   12MOL   C114 1676   1.308   0.135   4.061 -0.5446 -0.0348 -0.0390
   12MOL   C115 1677   1.215   0.207   4.156 -0.2787 -0.3583 -0.0048
   12MOL   C116 1678   1.170   0.330   4.084  0.2364 -0.2815  0.1973
   12MOL   N117 1679   1.136   0.424   4.030  0.0751 -0.2440  0.0905
   12MOL   H118 1680   1.271   0.106   3.963  0.9510  0.2459 -0.7075
   12MOL   H119 1681   1.339   0.044   4.112  0.2884  0.6576  0.7202
   12MOL   H120 1682   1.264   0.249   4.243 -0.3319 -0.2761 -0.0144
   12MOL   C121 1683   1.098   0.122   4.202 -0.3812 -0.4600  0.1615
   12MOL   C122 1684   1.104   0.084   4.354 -0.2424  0.6345 -0.1970
   12MOL   C123 1685   1.103   0.192   4.450  0.3118 -0.7163  0.5518
   12MOL   N124 1686   1.099   0.271   4.532  0.0652 -0.4709  0.0602
   12MOL   H125 1687   1.000   0.163   4.179  1.2594  1.9719 -2.8811
   12MOL   H126 1688   1.096   0.025   4.150 -0.1159  0.9827 -2.6395
   12MOL   H127 1689   1.201   0.036   4.368 -1.6429 -1.5594  2.3128
   12MOL   C128 1690   1.024   8.268   4.390  0.4393  0.1672  0.4459
   12MOL   C129 1691   0.871   8.280   4.350 -0.3017 -0.5927 -0.1114
   12MOL   C130 1692   0.799   8.150   4.363 -0.5742  0.0806 -0.1531
   12MOL   N131 1693   0.746   8.046   4.365 -0.0985  0.7060  0.4723
   12MOL   H132 1694   1.056   8.179   4.335 -1.7752 -1.7775  2.2282
   12MOL   H133 1695   1.030   8.231   4.493  1.0552  2.2003  1.1805
   12MOL   H134 1696   0.874   8.288   4.241  0.8088  1.9348  0.0808
   12MOL   C135 1697   0.800   0.086   4.422 -0.1245  0.6038  0.1620
   12MOL   C136 1698   0.650   0.106   4.385  0.6220 -0.9559  0.1878
   12MOL   C137 1699   0.644   0.183   4.260 -0.5401  0.0764  0.2038
   12MOL   N138 1700   0.642   0.243   4.166 -0.1139  0.8757  0.1812
   12MOL   H139 1701   0.811   0.080   4.530 -0.6326 -2.1502  0.1043
   12MOL   H140 1702   0.849   0.177   4.389 -1.4244  0.0781 -3.4130
   12MOL   H141 1703   0.598   0.164   4.461  2.3112 -1.2756  1.6093
   12MOL   H142 1704   0.603   0.008   4.385 -0.6302 -0.4361  4.0645
   13MOL     C1 1705   1.207   1.233   0.840 -0.3726 -0.5272  0.4819
   13MOL     C2 1706   1.356   1.207   0.846 -0.0356  0.4224  0.7718
   13MOL     C3 1707   1.409   1.157   0.718  0.3722  0.2325  1.3385
   13MOL     N4 1708   1.451   1.117   0.618 -0.1593  0.1686 -0.4843
   13MOL     H5 1709   1.146   1.145   0.817 -0.0172 -0.1479 -2.0320
   13MOL     H6 1710   1.176   1.311   0.771 -0.4641 -0.0693  1.0392
   13MOL     H7 1711   1.375   1.137   0.927  2.2238  0.5576  0.3703
   13MOL     H8 1712   1.167   1.259   0.938  0.9332  0.0084  0.8725
   13MOL     C9 1713   1.431   1.337   0.885 -0.3008  0.3251  0.3723
   13MOL    C10 1714   1.412   1.472   0.811 -0.1835 -0.5502  0.3928
   13MOL    C11 1715   1.286   1.536   0.846 -0.5933 -0.1805  0.0443
   13MOL    N12 1716   1.190   1.591   0.873  0.0751  0.4365 -0.1788
   13MOL    H13 1717   1.396   1.346   0.988 -0.3201 -1.8932  0.5893
   13MOL    H14 1718   1.539   1.322   0.888 -0.5282 -1.4185  0.6874
   13MOL    H15 1719   1.411   1.450   0.704 -0.2970  0.1486  0.2463
   13MOL    C16 1720   1.526   1.568   0.836  0.4178  0.0133  0.6176
   13MOL    C17 1721   1.535   1.633   0.970 -0.4661 -0.7078  0.1967
   13MOL    C18 1722   1.572   1.541   1.079  0.6868  0.1583 -0.2738
   13MOL    N19 1723   1.606   1.466   1.166  0.4311 -0.4194  0.0407
   13MOL    H20 1724   1.622   1.536   0.795  0.0512 -0.8074  0.3778
   13MOL    H21 1725   1.508   1.657   0.776  0.9741  1.2222  2.2205
   13MOL    H22 1726   1.432   1.652   0.999 -1.0471  0.0128 -2.2244
   13MOL    C23 1727   1.626   1.760   0.972 -0.3169 -0.2987  0.1695
   13MOL    C24 1728   1.670   1.817   1.108 -0.8700 -0.0363  0.1224
   13MOL    C25 1729   1.777   1.916   1.094 -0.3227 -0.2412 -0.1575
   13MOL    N26 1730   1.858   1.996   1.089 -0.3166  0.1000  0.3174
   13MOL    H27 1731   1.718   1.742   0.917  0.2340 -1.4789  1.4717
   13MOL    H28 1732   1.588   1.841   0.909 -2.1857 -1.8918 -0.8005
   13MOL    H29 1733   1.716   1.739   1.168  0.0744 -0.0542 -0.6156
   13MOL    C30 1734   1.557   1.881   1.196 -0.1190 -0.3331  0.6238
   13MOL    C31 1735   1.526   2.033   1.172 -0.4438  0.4555  0.8290
   13MOL    C32 1736   1.482   2.055   1.034  0.0922 -0.4534  0.1926
   13MOL    N33 1737   1.445   2.064   0.921 -0.0852  0.3238  0.4491
   13MOL    H34 1738   1.476   1.810   1.180  0.2526 -0.1688 -2.3340
   13MOL    H35 1739   1.576   1.864   1.302  0.7541 -0.9834  0.3794
   13MOL    H36 1740   1.609   2.100   1.198  0.5600 -0.7563  0.7829
   13MOL    C37 1741   1.420   2.087   1.268  0.3637 -0.2902 -0.1711
   13MOL    C38 1742   1.379   2.238   1.252 -0.0033 -0.0446 -0.0249
   13MOL    C39 1743   1.233   2.249   1.273  0.3370 -0.4433 -0.1157
   13MOL    N40 1744   1.122   2.272   1.291 -0.1753  0.8240  0.6657
   13MOL    H41 1745   1.331   2.029   1.246  0.7866 -0.0859 -2.5471
   13MOL    H42 1746   1.435   2.055   1.371 -2.7904 -2.7477 -0.4246
   13MOL    H43 1747   1.391   2.269   1.148  2.1317 -0.9122 -0.0616
   13MOL    C44 1748   1.468   2.322   1.343  0.0907 -0.5446 -0.1157
   13MOL    C45 1749   1.413   2.469   1.372 -0.5308  0.0549  0.4000
   13MOL    C46 1750   1.433   2.494   1.518 -0.4090  0.2474 -0.4516
   13MOL    N47 1751   1.456   2.516   1.630  0.1887  0.2881  0.4582
   13MOL    H48 1752   1.477   2.270   1.438  1.4144 -2.1208 -1.0918
   13MOL    H49 1753   1.569   2.311   1.303 -0.0178 -1.4520 -0.1509
   13MOL    H50 1754   1.306   2.477   1.351 -0.7472  0.0435  1.4720
   13MOL    C51 1755   1.471   2.574   1.280  0.0597  0.1864 -0.0766
   13MOL    C52 1756   1.611   2.633   1.327  0.3480 -0.0816  0.2729
   13MOL    C53 1757   1.725   2.532   1.352  0.5982 -0.9660 -0.0203
   13MOL    N54 1758   1.810   2.457   1.364 -0.4666 -0.0565 -0.5214
   13MOL    H55 1759   1.488   2.539   1.178 -3.1504  1.5083 -1.1260
   13MOL    H56 1760   1.389   2.645   1.272 -0.0083  0.0988 -0.1381
   13MOL    H57 1761   1.605   2.680   1.426  1.8756  0.9024 -0.0913
   13MOL    C58 1762   1.669   2.749   1.239 -0.0496  0.1512 -0.6458
   13MOL    C59 1763   1.573   2.868   1.225  0.1730 -0.3024 -0.1305
   13MOL    C60 1764   1.566   2.929   1.364 -0.5531  0.0806  0.5837
   13MOL    N61 1765   1.566   2.975   1.472 -0.6550  0.8098  0.6548
   13MOL    H62 1766   1.764   2.779   1.284 -0.1943 -0.5167  0.1162
   13MOL    H63 1767   1.697   2.721   1.138  0.2893  0.8194 -0.7373
   13MOL    H64 1768   1.475   2.842   1.185  0.8574  1.4377 -3.0890
   13MOL    C65 1769   1.628   2.964   1.121  0.1589  0.5747 -0.6139
   13MOL    C66 1770   1.522   3.055   1.046 -0.1295  0.4187  0.9350
   13MOL    C67 1771   1.407   3.097   1.135 -0.1338 -0.5219  0.2123
   13MOL    N68 1772   1.316   3.127   1.204 -0.0184  0.3522  0.3002
   13MOL    H69 1773   1.703   3.031   1.164 -2.8060  3.6071  0.0644
   13MOL    H70 1774   1.684   2.914   1.043 -0.2412 -1.1154  0.1731
   13MOL    H71 1775   1.473   2.983   0.980  0.3266  1.2899 -0.3642
   13MOL    C72 1776   1.577   3.181   0.976  0.6852 -0.1450 -0.2843
   13MOL    C73 1777   1.581   3.322   1.044  0.5310 -0.3225 -0.1946
   13MOL    C74 1778   1.615   3.310   1.184  0.0258  0.5555  0.4634
   13MOL    N75 1779   1.644   3.291   1.295 -0.0905 -0.6081 -0.1630
   13MOL    H76 1780   1.678   3.159   0.942  0.4836 -0.4319 -0.6974
   13MOL    H77 1781   1.514   3.185   0.887 -0.8697 -1.9760  0.6898
   13MOL    H78 1782   1.481   3.359   1.063  1.4005  1.5676  0.8836
   13MOL    C79 1783   1.662   3.428   0.971  1.7831 -0.2107  0.2100
   13MOL    C80 1784   1.586   3.460   0.842 -0.0034  0.1149 -0.3260
   13MOL    C81 1785   1.451   3.508   0.867  0.1601  0.2405 -0.3063
   13MOL    N82 1786   1.342   3.537   0.892  0.2788 -0.3255  0.1590
   13MOL    H83 1787   1.689   3.515   1.030 -2.6319 -0.1889  2.4510
   13MOL    H84 1788   1.762   3.394   0.943  1.4925 -0.6357 -0.3420
   13MOL    H85 1789   1.557   3.370   0.787 -1.9998  0.6265 -0.1516
   13MOL    C86 1790   1.668   3.558   0.759 -0.0553  0.0282 -0.3515
   13MOL    C87 1791   1.592   3.586   0.625  0.3698 -0.2828 -0.4533
   13MOL    C88 1792   1.521   3.463   0.579  0.1106  0.1758 -0.7358
   13MOL    N89 1793   1.463   3.372   0.541  1.4820 -0.3641  0.1725
   13MOL    H90 1794   1.681   3.653   0.813  0.7802  0.3286 -1.0799
   13MOL    H91 1795   1.764   3.509   0.745  0.6007  1.4440 -0.9465
   13MOL    H92 1796   1.670   3.609   0.553 -0.4614 -0.0509 -1.2929
   13MOL    C93 1797   1.488   3.705   0.626  0.1839  0.4683 -0.5188
   13MOL    C94 1798   1.541   3.849   0.655  0.1970  0.3487  0.2551
   13MOL    C95 1799   1.672   3.870   0.595 -0.9024  0.0039 -0.0435
   13MOL    N96 1800   1.778   3.877   0.552  0.2951 -0.4716  0.2018
   13MOL    H97 1801   1.440   3.697   0.529 -1.0098 -0.0491  0.1046
   13MOL    H98 1802   1.408   3.677   0.694  0.4358 -1.7980 -1.1128
   13MOL    H99 1803   1.565   3.860   0.761 -1.5704  3.2292  0.4009
   13MOL   C100 1804   1.429   3.953   0.620  0.0832 -0.0081  0.2608
   13MOL   C101 1805   1.468   4.103   0.630 -0.6289  0.1268 -0.3198
   13MOL   C102 1806   1.579   4.149   0.547  0.0063  0.0650  0.0848
   13MOL   N103 1807   1.663   4.188   0.475  0.1825  0.0755 -0.0145
   13MOL   H104 1808   1.385   3.933   0.522 -0.4429  0.3064  0.4344
   13MOL   H105 1809   1.340   3.941   0.681 -0.5027  1.3186 -0.3143
   13MOL   H106 1810   1.500   4.126   0.731 -0.8608  0.1524 -0.2513
   13MOL   C107 1811   1.348   4.193   0.605 -1.0309  0.2336 -0.7864
   13MOL   C108 1812   1.370   4.345   0.613 -0.0944 -0.2634 -0.3214
   13MOL   C109 1813   1.262   4.419   0.550  0.1958 -0.2144  0.1467
   13MOL   N110 1814   1.174   4.476   0.498  0.0701  0.3710  1.1412
   13MOL   H111 1815   1.303   4.161   0.511  1.9499  1.4046 -2.7048
   13MOL   H112 1816   1.273   4.162   0.677 -0.4712  0.9354  0.1116
   13MOL   H113 1817   1.449   4.348   0.539  0.4384  2.5436  0.3170
   13MOL   C114 1818   1.419   4.397   0.746  0.5532  0.2074 -0.2492
   13MOL   C115 1819   1.322   4.489   0.826 -0.2542  0.0913 -0.1858
   13MOL   C116 1820   1.191   4.421   0.860 -0.4321  0.2733 -0.3735
   13MOL   N117 1821   1.094   4.366   0.887  0.2405  0.4755 -0.6172
   13MOL   H118 1822   1.451   4.321   0.817  0.5774 -1.6466 -2.1915
   13MOL   H119 1823   1.509   4.456   0.733 -0.1808  1.3073 -0.3517
   13MOL   H120 1824   1.306   4.576   0.762  0.1385 -1.2319 -2.1256
   13MOL   C121 1825   1.393   4.557   0.949  0.7074  0.0401  0.0542
   13MOL   C122 1826   1.335   4.690   0.992  0.0063  0.9022  0.4057
   13MOL   C123 1827   1.194   4.690   0.983 -0.0514 -0.2330 -0.5121
   13MOL   N124 1828   1.076   4.692   0.971  0.0518  0.5365 -0.5053
   13MOL   H125 1829   1.406   4.487   1.031  1.2443  1.0731  0.8666
   13MOL   H126 1830   1.494   4.582   0.917  0.2290  0.9642 -0.7715
   13MOL   H127 1831   1.351   4.756   0.907  0.3324 -0.6811 -0.7727
   13MOL   C128 1832   1.383   4.739   1.134  0.8529 -0.2509 -0.1206
   13MOL   C129 1833   1.335   4.874   1.180  0.4426 -0.0126 -0.3950
   13MOL   C130 1834   1.192   4.885   1.220  0.0286  0.4401  0.1151
   13MOL   N131 1835   1.080   4.882   1.253  0.5789  0.0720 -0.4766
   13MOL   H132 1836   1.365   4.658   1.204 -1.4847 -1.0627 -1.6327
   13MOL   H133 1837   1.492   4.748   1.123  0.7969 -0.7749 -1.1760
   13MOL   H134 1838   1.342   4.932   1.088  3.0129  0.5198  0.0955
   13MOL   C135 1839   1.435   4.939   1.278  0.1083  0.0980 -0.4206
   13MOL   C136 1840   1.405   5.086   1.317 -0.1588  0.5665 -1.2218
   13MOL   C137 1841   1.285   5.095   1.412  0.3843  0.8333  0.1070
   13MOL   N138 1842   1.195   5.099   1.483 -0.2124 -0.6298 -0.3880
   13MOL   H139 1843   1.432   4.869   1.362  1.3644 -0.4560 -0.8325
   13MOL   H140 1844   1.529   4.932   1.223  1.2349  0.2472  1.4129
   13MOL   H141 1845   1.379   5.144   1.229  0.6881  0.8482 -1.2924
   13MOL   H142 1846   1.481   5.133   1.380 -0.1047 -1.1082  0.0255
   14MOL     C1 1847   6.100   3.390   3.400  0.2490  0.6275 -0.7957
   14MOL     C2 1848   6.110   3.267   3.491  0.0256  0.3091  0.6458
   14MOL     C3 1849   6.151   3.155   3.411  0.2933  0.4082  0.6496
   14MOL     N4 1850   6.179   3.060   3.350 -0.2084  0.1360  0.3340
   14MOL     H5 1851   6.095   3.478   3.463 -1.1890 -0.2866  0.3950
   14MOL     H6 1852   6.007   3.388   3.342  0.0359  0.7531 -0.4560
   14MOL     H7 1853   6.006   3.246   3.516 -0.7711  0.3438 -2.4433
   14MOL     H8 1854   6.177   3.401   3.324  0.8431  0.5042 -0.2103
   14MOL     C9 1855   6.204   3.281   3.615 -0.0189 -1.0451  0.8197
   14MOL    C10 1856   6.135   3.345   3.742 -0.0870  0.0912 -0.2658
   14MOL    C11 1857   6.013   3.274   3.790  0.1706  0.1102  0.2684
   14MOL    N12 1858   5.917   3.218   3.824 -0.6477  0.3938 -0.1130
   14MOL    H13 1859   6.240   3.184   3.649 -0.0537 -0.6598  1.9978
   14MOL    H14 1860   6.291   3.339   3.584 -0.3038 -1.6872 -1.2381
   14MOL    H15 1861   6.101   3.447   3.726 -2.8845 -0.7460  0.0491
   14MOL    C16 1862   6.234   3.355   3.860  0.0157  0.3145 -0.3936
   14MOL    C17 1863   6.259   3.230   3.954  0.8902 -0.2472  0.4488
   14MOL    C18 1864   6.349   3.135   3.885  0.1325  0.1986  0.5458
   14MOL    N19 1865   6.420   3.061   3.829  0.2704 -1.1576 -0.2702
   14MOL    H20 1866   6.326   3.404   3.827  0.4122  0.6778  1.1990
   14MOL    H21 1867   6.195   3.434   3.924  0.0803  0.4107 -0.4732
   14MOL    H22 1868   6.170   3.172   3.977  0.1674  0.9312  0.6762
   14MOL    C23 1869   6.315   3.285   4.088 -0.3555  0.4074  0.0621
   14MOL    C24 1870   6.397   3.188   4.182 -0.7421 -0.0026  0.0172
   14MOL    C25 1871   6.419   3.252   4.316  0.0754 -0.4615 -0.2570
   14MOL    N26 1872   6.442   3.298   4.417 -0.1950 -0.0198 -0.0314
   14MOL    H27 1873   6.381   3.370   4.076  0.5576 -0.1132  1.3199
   14MOL    H28 1874   6.240   3.323   4.157 -0.5771 -1.3939  0.8655
   14MOL    H29 1875   6.496   3.160   4.144 -0.6251  0.4037  0.0211
   14MOL    C30 1876   6.319   3.052   4.209 -0.0436 -0.5343  0.9569
   14MOL    C31 1877   6.418   2.943   4.239 -1.1653  0.4877  0.0579
   14MOL    C32 1878   6.514   2.962   4.348  1.0247  0.8397  0.6072
   14MOL    N33 1879   6.586   2.962   4.435 -0.0159 -0.1628  0.4632
   14MOL    H34 1880   6.244   3.061   4.287 -0.0792 -1.8466  1.0962
   14MOL    H35 1881   6.256   3.021   4.125 -0.6740  0.5110  1.0447
   14MOL    H36 1882   6.485   2.941   4.153 -0.2113 -1.2742  0.8037
   14MOL    C37 1883   6.353   2.800   4.246 -0.0451 -0.4525 -0.2128
   14MOL    C38 1884   6.319   2.748   4.389 -0.6498 -0.1284 -0.5921
   14MOL    C39 1885   6.266   2.846   4.485 -0.2686  0.1362 -0.1682
   14MOL    N40 1886   6.223   2.920   4.561 -0.0395 -0.3593  0.8361
   14MOL    H41 1887   6.264   2.794   4.184 -0.0292 -1.1590 -0.1783
   14MOL    H42 1888   6.414   2.734   4.184  0.4212 -1.3464  1.1606
   14MOL    H43 1889   6.413   2.725   4.439 -0.9216 -0.9028 -0.4361
   14MOL    C44 1890   6.234   2.621   4.383  0.4099 -0.3032 -0.0828
   14MOL    C45 1891   6.219   2.553   4.519  0.0339  0.0924  0.5848
   14MOL    C46 1892   6.138   2.434   4.501  0.8942  0.2971  0.3383
   14MOL    N47 1893   6.076   2.333   4.485  0.3014 -0.7027 -0.1466
   14MOL    H48 1894   6.138   2.655   4.346  0.7714  1.0831  0.2133
   14MOL    H49 1895   6.268   2.543   4.315  0.9323  0.6131 -0.8753
   14MOL    H50 1896   6.162   2.608   4.594  0.1765 -1.8251  2.1420
   14MOL    C51 1897   6.361   2.502   4.575 -0.5206  0.3910 -0.1740
   14MOL    C52 1898   6.433   2.600   4.677 -0.6121  0.2499  0.4501
   14MOL    C53 1899   6.328   2.661   4.762 -0.2440 -0.3264  0.1828
   14MOL    N54 1900   6.249   2.707   4.827  0.0322 -0.0719 -0.1097
   14MOL    H55 1901   6.353   2.402   4.615  2.0028  0.1600 -0.1586
   14MOL    H56 1902   6.424   2.483   4.488  1.7898 -0.8221  1.7214
   14MOL    H57 1903   6.489   2.680   4.630 -1.9595  1.9651  1.6877
   14MOL    C58 1904   6.526   2.511   4.773  0.9322 -0.6229  0.1225
   14MOL    C59 1905   6.650   2.464   4.696 -0.0380 -0.3283 -0.2988
   14MOL    C60 1906   6.722   2.580   4.640 -0.9319 -0.4881  0.0324
   14MOL    N61 1907   6.779   2.669   4.603 -0.0746 -0.0122 -0.5039
   14MOL    H62 1908   6.561   2.573   4.856  2.7592 -1.3727 -0.0763
   14MOL    H63 1909   6.471   2.427   4.815  1.6592 -0.8461  0.6396
   14MOL    H64 1910   6.618   2.405   4.611  0.5588 -0.7444 -0.2325
   14MOL    C65 1911   6.749   2.392   4.794  0.2890 -0.2659  0.5881
   14MOL    C66 1912   6.836   2.276   4.732 -0.1063  0.6749 -0.1433
   14MOL    C67 1913   6.912   2.342   4.628  0.3533 -0.5317 -0.1174
   14MOL    N68 1914   6.977   2.397   4.549 -0.8536 -0.3007 -0.7062
   14MOL    H69 1915   6.816   2.453   4.853 -1.0393 -0.3395  2.2146
   14MOL    H70 1916   6.686   2.353   4.874 -0.3808 -0.8886 -0.2291
   14MOL    H71 1917   6.778   2.204   4.674 -0.3500  1.7613 -1.2683
   14MOL    C72 1918   6.919   2.211   4.845  0.5878  0.0825  1.0052
   14MOL    C73 1919   6.843   2.107   4.937  0.2635 -1.1031  0.1234
   14MOL    C74 1920   6.822   1.977   4.873 -0.2600 -0.9420  0.0774
   14MOL    N75 1921   6.805   1.869   4.827 -0.1339 -0.4229  0.1385
   14MOL    H76 1922   6.997   2.159   4.789 -1.0639 -0.7272 -0.5922
   14MOL    H77 1923   6.973   2.283   4.907  1.1390 -0.2970  0.9740
   14MOL    H78 1924   6.744   2.148   4.959  1.1467  0.6673  0.9104
   14MOL    C79 1925   6.910   2.107   5.077 -0.2323 -0.1441 -0.6096
   14MOL    C80 1926   6.865   2.000   5.183 -0.3193  0.1342  0.0646
   14MOL    C81 1927   6.903   2.044   5.317 -0.8134  0.4947 -0.3495
   14MOL    N82 1928   6.934   2.082   5.424 -0.3744  0.1718  0.3274
   14MOL    H83 1929   7.017   2.085   5.067  0.2117  0.8811  1.5426
   14MOL    H84 1930   6.904   2.204   5.127 -1.4489 -0.4804 -0.0807
   14MOL    H85 1931   6.907   1.901   5.165 -0.9494 -0.1059 -0.0946
   14MOL    C86 1932   6.712   1.969   5.185 -0.7450  0.1667  0.0333
   14MOL    C87 1933   6.629   2.062   5.270 -0.2820 -0.0384  0.0163
   14MOL    C88 1934   6.622   2.197   5.221  0.2619 -0.3372  0.0234
   14MOL    N89 1935   6.622   2.302   5.172 -0.1784 -0.4604  0.1836
   14MOL    H90 1936   6.679   1.978   5.082  2.3321 -1.5578 -1.1442
   14MOL    H91 1937   6.686   1.876   5.235  0.5982  1.1161  2.5906
   14MOL    H92 1938   6.663   2.076   5.372 -1.8041 -0.1947  0.5666
   14MOL    C93 1939   6.490   1.996   5.298  1.1979  0.3154 -0.4500
   14MOL    C94 1940   6.382   1.981   5.188 -0.6068  0.1145 -0.1137
   14MOL    C95 1941   6.431   1.908   5.069  0.8471  0.0806  0.1396
   14MOL    N96 1942   6.475   1.858   4.971 -0.2093 -0.3452  0.4328
   14MOL    H97 1943   6.493   1.892   5.329 -0.0095  0.0067 -1.3051
   14MOL    H98 1944   6.445   2.056   5.377  1.2048  0.2010 -0.3601
   14MOL    H99 1945   6.354   2.082   5.158  0.6106  1.4581  2.9866
   14MOL   C100 1946   6.255   1.915   5.244  0.0061  0.1017  0.0778
   14MOL   C101 1947   6.178   2.008   5.332 -0.2008  0.1628 -0.1674
   14MOL   C102 1948   6.043   2.021   5.277 -0.5444  0.4287  0.4113
   14MOL   N103 1949   5.934   2.031   5.238  0.1645 -0.5614  0.3416
   14MOL   H104 1950   6.191   1.886   5.161  1.2082 -2.7356  0.0956
   14MOL   H105 1951   6.268   1.821   5.298  0.0497 -0.0500 -0.2004
   14MOL   H106 1952   6.225   2.105   5.318  2.0236 -1.0844 -1.6812
   14MOL   C107 1953   6.161   1.958   5.480 -0.0542 -0.4662  0.3001
   14MOL   C108 1954   6.089   2.064   5.568 -0.2364  0.6191 -0.5039
   14MOL   C109 1955   5.945   2.043   5.559 -0.2050  0.7010  0.2638
   14MOL   N110 1956   5.834   2.031   5.554 -0.5391 -0.4286 -0.1810
   14MOL   H111 1957   6.095   1.872   5.481 -0.8490  0.1348  0.5192
   14MOL   H112 1958   6.261   1.923   5.507  0.5627  0.4714 -0.7132
   14MOL   H113 1959   6.109   2.167   5.539 -3.4802  0.9320 -1.7799
   14MOL   C114 1960   6.135   2.044   5.717 -0.0039  0.5443  0.5704
   14MOL   C115 1961   6.263   2.124   5.759 -0.5338  0.2184 -0.9193
   14MOL   C116 1962   6.248   2.272   5.738  0.3841 -1.0578  0.3086
   14MOL   N117 1963   6.236   2.388   5.722 -1.1042 -0.2564  0.4047
   14MOL   H118 1964   6.058   2.070   5.790  0.1886 -0.5370  1.1724
   14MOL   H119 1965   6.158   1.939   5.737  0.8098  0.6189  0.0315
   14MOL   H120 1966   6.339   2.078   5.696  1.0038  1.6901 -0.2029
   14MOL   C121 1967   6.293   2.086   5.916 -0.2216  0.3645 -0.0101
   14MOL   C122 1968   6.440   2.123   5.966 -0.6889 -0.5434  0.3103
   14MOL   C123 1969   6.462   2.266   5.948  0.1558 -0.1307 -0.0998
   14MOL   N124 1970   6.485   2.380   5.939 -1.1114  0.6507 -0.4600
   14MOL   H125 1971   6.223   2.140   5.979 -0.5670 -0.3219  0.2045
   14MOL   H126 1972   6.290   1.977   5.927  0.7805  0.5189  1.9505
   14MOL   H127 1973   6.511   2.067   5.905  0.1850 -0.9051  1.6183
   14MOL   C128 1974   6.476   2.077   6.117  0.0577 -0.3667 -0.0494
   14MOL   C129 1975   6.611   2.129   6.170 -0.2739  0.3179 -0.4921
   14MOL   C130 1976   6.717   2.136   6.072  0.0811 -0.0904  0.5201
   14MOL   N131 1977   6.791   2.134   5.983 -0.1551 -0.9387  0.8253
   14MOL   H132 1978   6.411   2.128   6.188  1.1494 -0.1540  0.8086
   14MOL   H133 1979   6.486   1.969   6.125 -1.0599 -0.5237 -0.7407
   14MOL   H134 1980   6.639   2.051   6.242 -0.8673  0.5852  0.0300
   14MOL   C135 1981   6.605   2.255   6.257  0.1091  0.8358 -0.9040
   14MOL   C136 1982   6.744   2.291   6.332 -0.3500 -0.2665  0.1856
   14MOL   C137 1983   6.739   2.241   6.474 -0.2690  0.0655 -0.3908
   14MOL   N138 1984   6.739   2.205   6.586  0.0899 -0.0494  0.7829
   14MOL   H139 1985   6.581   2.344   6.198 -1.0884  0.1431 -1.4697
   14MOL   H140 1986   6.526   2.254   6.332  2.1727 -0.8240  1.3202
   14MOL   H141 1987   6.760   2.397   6.350  0.0055  0.3593 -3.3407
   14MOL   H142 1988   6.828   2.253   6.274 -0.8207 -0.8815 -0.1062
   15MOL     C1 1989   3.262   5.845   3.285  0.6309  0.0537  0.9769
   15MOL     C2 1990   3.183   5.898   3.162 -0.2484  0.3214 -0.2665
   15MOL     C3 1991   3.038   5.892   3.191  0.0793  0.0044 -0.1077
   15MOL     N4 1992   2.926   5.885   3.215 -0.9468  0.4495 -0.0785
   15MOL     H5 1993   3.228   5.744   3.310  0.4914  0.5175  2.7206
   15MOL     H6 1994   3.239   5.907   3.372 -1.3902  0.5793  0.1077
   15MOL     H7 1995   3.190   5.826   3.081  0.6931 -0.3061  0.3656
   15MOL     H8 1996   3.370   5.831   3.279  0.2795 -1.9806 -1.7943
   15MOL     C9 1997   3.241   6.028   3.102  0.7272 -0.6049  0.1963
   15MOL    C10 1998   3.384   6.030   3.064  0.3324  0.4324 -0.8634
   15MOL    C11 1999   3.423   5.909   2.995 -0.1546  0.6993  0.4412
   15MOL    N12 2000   3.453   5.812   2.940 -0.6470  0.4581  0.2144
   15MOL    H13 2001   3.192   6.042   3.005  1.9609  0.1718 -0.3388
   15MOL    H14 2002   3.198   6.110   3.159 -1.1637  0.7571 -2.9968
   15MOL    H15 2003   3.447   6.021   3.152 -1.3992 -1.6166  0.2188
   15MOL    C16 2004   3.417   6.148   2.970  0.0307  0.5942 -0.1384
   15MOL    C17 2005   3.375   6.286   3.025  0.0978 -0.1350  0.1746
   15MOL    C18 2006   3.463   6.319   3.133  0.2111  0.2877  0.6599
   15MOL    N19 2007   3.522   6.352   3.226  0.0086  0.7416 -0.9429
   15MOL    H20 2008   3.524   6.142   2.953  0.1837 -0.7637  1.2071
   15MOL    H21 2009   3.367   6.117   2.879 -0.9762 -0.0143  0.6126
   15MOL    H22 2010   3.274   6.279   3.067  0.0285 -2.2650 -0.2542
   15MOL    C23 2011   3.366   6.395   2.910  0.3131  0.4650 -0.4619
   15MOL    C24 2012   3.257   6.390   2.810 -0.2559 -0.6848  0.2331
   15MOL    C25 2013   3.130   6.428   2.874  0.2907 -0.2930  0.7022
   15MOL    N26 2014   3.031   6.467   2.915  0.6662  0.5323 -0.4129
   15MOL    H27 2015   3.378   6.492   2.959 -0.3724  0.0896  0.4678
   15MOL    H28 2016   3.460   6.408   2.856 -0.5113  1.5482 -1.6483
   15MOL    H29 2017   3.249   6.285   2.782 -0.5978 -0.4989 -0.4002
   15MOL    C30 2018   3.273   6.465   2.676 -0.2228  0.1174  0.1185
   15MOL    C31 2019   3.276   6.619   2.682 -0.0613 -0.3241 -0.1778
   15MOL    C32 2020   3.396   6.676   2.738 -0.4451  0.1101  0.1558
   15MOL    N33 2021   3.496   6.718   2.780  0.2467 -0.0021  0.2414
   15MOL    H34 2022   3.357   6.427   2.617 -1.9050 -2.4722 -0.6675
   15MOL    H35 2023   3.191   6.432   2.612 -0.1046  0.7948 -0.3907
   15MOL    H36 2024   3.203   6.647   2.758  1.1841 -0.3962  1.0621
   15MOL    C37 2025   3.237   6.680   2.546  0.4063  0.5571  0.5292
   15MOL    C38 2026   3.349   6.718   2.458 -0.1960  0.0487  0.2919
   15MOL    C39 2027   3.437   6.603   2.433  0.8140 -0.5596 -0.6667
   15MOL    N40 2028   3.503   6.511   2.422  0.1228  0.5499  1.1396
   15MOL    H41 2029   3.167   6.622   2.485  1.3783  0.0527 -0.1343
   15MOL    H42 2030   3.195   6.779   2.562  0.2801  0.4270  1.0010
   15MOL    H43 2031   3.410   6.796   2.502 -0.6840  1.9013 -2.1944
   15MOL    C44 2032   3.302   6.799   2.325 -0.2331  0.0128  0.0799
   15MOL    C45 2033   3.419   6.847   2.237 -0.2419  1.1054  0.5417
   15MOL    C46 2034   3.497   6.736   2.181 -0.0559  0.4809 -0.1930
   15MOL    N47 2035   3.555   6.649   2.129  0.8518  0.2569 -0.0488
   15MOL    H48 2036   3.220   6.752   2.271 -2.4176  2.0328  1.5155
   15MOL    H49 2037   3.255   6.889   2.365  1.5499  0.4057  1.3344
   15MOL    H50 2038   3.495   6.896   2.298  0.7517  1.3375 -0.8771
   15MOL    C51 2039   3.374   6.956   2.140 -0.2115 -0.5929 -0.1590
   15MOL    C52 2040   3.347   6.903   2.000  0.4097 -0.4981 -0.0752
   15MOL    C53 2041   3.241   6.801   1.994  0.3151  0.2098 -0.5269
   15MOL    N54 2042   3.158   6.722   1.985 -0.1320 -0.0240  0.0232
   15MOL    H55 2043   3.287   7.008   2.180  0.6044  2.2156 -1.8963
   15MOL    H56 2044   3.463   7.019   2.133 -1.0881  0.8999  1.6092
   15MOL    H57 2045   3.432   6.851   1.955  2.0084  0.3400  1.8934
   15MOL    C58 2046   3.294   7.026   1.921 -0.0293 -0.2619  0.5541
   15MOL    C59 2047   3.402   7.131   1.888 -0.2329  0.6242 -0.4587
   15MOL    C60 2048   3.530   7.068   1.851 -0.9677 -0.7989 -0.1035
   15MOL    N61 2049   3.631   7.025   1.820  0.4390  0.2120  0.0312
   15MOL    H62 2050   3.255   6.977   1.832  0.9989  0.0178 -0.0691
   15MOL    H63 2051   3.208   7.071   1.969 -0.1923  0.7341 -0.6309
   15MOL    H64 2052   3.441   7.187   1.973  0.1141  1.9741 -1.4949
   15MOL    C65 2053   3.353   7.249   1.795  0.6573  0.1512 -0.0032
   15MOL    C66 2054   3.454   7.335   1.724 -0.7991  0.2234 -0.1208
   15MOL    C67 2055   3.519   7.260   1.615  0.0201 -0.0119  0.6844
   15MOL    N68 2056   3.565   7.204   1.525 -0.8278  0.7876 -0.1969
   15MOL    H69 2057   3.301   7.196   1.715  1.5612  0.1934 -0.6292
   15MOL    H70 2058   3.293   7.318   1.854  1.3246 -0.4897  1.4569
   15MOL    H71 2059   3.534   7.362   1.792  0.0898 -1.0543 -0.6421
   15MOL    C72 2060   3.391   7.460   1.665 -0.0227  0.2870 -0.2761
   15MOL    C73 2061   3.320   7.567   1.764 -0.1678  0.2715  0.2107
   15MOL    C74 2062   3.398   7.598   1.880 -0.5443  0.3821  0.1725
   15MOL    N75 2063   3.465   7.626   1.972  0.8269  0.6318 -0.0708
   15MOL    H76 2064   3.462   7.518   1.605 -1.4403  1.6881 -0.6436
   15MOL    H77 2065   3.310   7.430   1.598 -0.8604 -1.1900  1.3773
   15MOL    H78 2066   3.230   7.532   1.814  0.8216 -0.1684  1.7081
   15MOL    C79 2067   3.282   7.692   1.687 -0.3931 -0.0418 -0.0571
   15MOL    C80 2068   3.172   7.669   1.586 -0.5739 -0.0512 -0.2455
   15MOL    C81 2069   3.051   7.611   1.647 -1.3872  0.3119 -0.2659
   15MOL    N82 2070   2.959   7.561   1.697  0.1989  0.4086  0.3500
   15MOL    H83 2071   3.245   7.767   1.757  1.8405 -1.8322  3.1563
   15MOL    H84 2072   3.375   7.734   1.647  0.5413 -1.7366  0.3111
   15MOL    H85 2073   3.208   7.589   1.521  0.4828 -0.4726  0.8414
   15MOL    C86 2074   3.142   7.803   1.504  0.2119  0.8452 -0.2960
   15MOL    C87 2075   3.236   7.810   1.374  0.1658 -0.4375  0.4710
   15MOL    C88 2076   3.378   7.769   1.392  0.3506  0.8164  0.7011
   15MOL    N89 2077   3.487   7.737   1.405 -0.5323 -0.8353  0.9155
   15MOL    H90 2078   3.034   7.811   1.488 -0.0124 -0.5800  0.3997
   15MOL    H91 2079   3.158   7.892   1.566 -1.9634  0.7594  0.4449
   15MOL    H92 2080   3.242   7.916   1.351  1.6817 -0.1304  2.1954
   15MOL    C93 2081   3.170   7.733   1.255  0.6030 -0.3642  0.7761
   15MOL    C94 2082   3.243   7.729   1.120  0.2913  0.6195 -0.3026
   15MOL    C95 2083   3.200   7.628   1.021 -0.2566  0.1138 -0.2509
   15MOL    N96 2084   3.171   7.543   0.945  0.1276  0.2048  0.6238
   15MOL    H97 2085   3.151   7.626   1.271 -2.4865 -0.6853 -3.8679
   15MOL    H98 2086   3.075   7.787   1.249  0.5788 -0.1712  2.5932
   15MOL    H99 2087   3.343   7.694   1.144  0.7593  1.2255 -1.3463
   15MOL   C100 2088   3.243   7.866   1.055  0.3194 -0.0673  0.2263
   15MOL   C101 2089   3.334   7.890   0.927  0.2934  0.1127  0.5001
   15MOL   C102 2090   3.450   7.799   0.934 -0.1579  0.7084  0.4894
   15MOL   N103 2091   3.535   7.724   0.942 -0.1987 -0.3298 -0.1015
   15MOL   H104 2092   3.143   7.900   1.032  0.6689 -0.2296 -1.5965
   15MOL   H105 2093   3.278   7.936   1.132 -1.0594  0.7170  0.1517
   15MOL   H106 2094   3.386   7.986   0.931  1.0977 -0.3007  0.0367
   15MOL   C107 2095   3.254   7.865   0.803  0.5382  0.2896 -0.5235
   15MOL   C108 2096   3.156   7.985   0.767 -0.5650 -0.3763  0.3789
   15MOL   C109 2097   3.207   8.116   0.815  0.1269  0.5361 -1.4541
   15MOL   N110 2098   3.238   8.223   0.847  0.0282  0.0458  0.3309
   15MOL   H111 2099   3.326   7.846   0.723  2.0787 -0.3993  0.9932
   15MOL   H112 2100   3.202   7.770   0.813 -0.5646  0.9158 -0.2138
   15MOL   H113 2101   3.058   7.968   0.812  0.3344  0.4551  2.7405
   15MOL   C114 2102   3.119   7.985   0.615  0.4192 -0.1176  0.3510
   15MOL   C115 2103   2.992   8.081   0.598  0.8540  0.1228  0.0592
   15MOL   C116 2104   3.020   8.221   0.611  0.0747  0.3099  0.2510
   15MOL   N117 2105   3.034   0.027   0.618 -0.6484  0.7897  0.2043
   15MOL   H118 2106   3.203   8.017   0.553  1.9520 -1.0483  1.9093
   15MOL   H119 2107   3.077   7.885   0.601 -2.5693  0.8674  1.6967
   15MOL   H120 2108   2.919   8.077   0.679 -0.8096  2.5423 -1.2613
   15MOL   C121 2109   2.906   8.046   0.475 -0.1051  0.0990 -0.4321
   15MOL   C122 2110   2.937   8.117   0.342  0.1979 -0.4741 -0.3094
   15MOL   C123 2111   3.076   8.120   0.304 -0.1215  0.8352  0.3158
   15MOL   N124 2112   3.186   8.122   0.279 -0.1053  0.1972  0.6997
   15MOL   H125 2113   2.892   7.938   0.468 -0.9710  0.0390  1.8668
   15MOL   H126 2114   2.808   8.087   0.499  0.7995  0.3736  3.0783
   15MOL   H127 2115   2.901   8.219   0.355  0.0278 -0.6861  0.9616
   15MOL   C128 2116   2.848   8.067   0.223 -0.0890  0.2316  0.2880
   15MOL   C129 2117   2.877   7.929   0.166 -0.6982 -0.3524  0.3456
   15MOL   C130 2118   2.757   7.881   0.097  0.2395  0.3915 -0.3630
   15MOL   N131 2119   2.661   7.840   0.039 -0.3065 -0.0956  0.6140
   15MOL   H132 2120   2.751   8.058   0.274 -1.2421  2.5721 -1.4263
   15MOL   H133 2121   2.850   8.136   0.140  1.7822 -0.9069 -0.6471
   15MOL   H134 2122   2.908   7.860   0.244 -2.7776  0.4588  1.9294
   15MOL   C135 2123   2.990   7.929   0.057 -0.1434  0.1554  0.6321
   15MOL   C136 2124   3.020   7.786   8.302  0.6246 -0.8131  0.4269
   15MOL   C137 2125   3.053   7.678   0.080 -0.1253 -0.5587 -0.2482
   15MOL   N138 2126   3.078   7.592   0.149 -0.7317 -0.3339  0.0739
   15MOL   H139 2127   2.960   7.997   8.290 -0.3759  0.7168  1.1922
   15MOL   H140 2128   3.082   7.958   0.107 -0.1818  1.0727  0.1714
   15MOL   H141 2129   3.095   7.782   8.223  0.0902  1.2937 -0.1977
   15MOL   H142 2130   2.928   7.767   8.247  0.2207 -1.7367  1.4147
   16MOL     C1 2131   2.492   7.736   3.410  0.1528  0.3893 -0.2440
   16MOL     C2 2132   2.411   7.781   3.292  0.3282 -0.6131 -0.1327
   16MOL     C3 2133   2.332   7.665   3.254  0.1267 -0.1102 -0.4780
   16MOL     N4 2134   2.270   7.571   3.227  0.2289 -0.2431 -0.5774
   16MOL     H5 2135   2.443   7.706   3.502  1.9827  1.4390  1.1324
   16MOL     H6 2136   2.556   7.815   3.450  0.5821  0.0372 -0.2327
   16MOL     H7 2137   2.477   7.803   3.208 -0.3889  0.3503 -0.4525
   16MOL     H8 2138   2.552   7.648   3.387 -0.0561 -0.6220  2.8593
   16MOL     C9 2139   2.328   7.908   3.323 -0.9568  0.6654 -0.0223
   16MOL    C10 2140   2.303   8.010   3.203  0.0403  0.7489 -0.0587
   16MOL    C11 2141   2.427   8.055   3.132  0.3805  0.5977 -0.0504
   16MOL    N12 2142   2.522   8.087   3.070 -0.0150 -0.1214 -0.5513
   16MOL    H13 2143   2.233   7.887   3.371 -0.9984 -0.7623 -0.6976
   16MOL    H14 2144   2.390   7.968   3.390 -0.7692  1.2998 -0.7485
   16MOL    H15 2145   2.261   8.098   3.250  1.9008  1.3709  0.4911
   16MOL    C16 2146   2.195   7.961   3.104 -0.3333  0.3158 -0.3101
   16MOL    C17 2147   2.055   7.951   3.159  0.7934 -0.0849 -0.0688
   16MOL    C18 2148   1.941   8.012   3.083 -0.3915 -0.0620  0.0785
   16MOL    N19 2149   1.857   8.062   3.020 -0.1648  0.7936  0.1906
   16MOL    H20 2150   2.180   8.038   3.029  1.1336 -0.6349 -1.5989
   16MOL    H21 2151   2.227   7.868   3.057  1.1134  0.8695 -0.4191
   16MOL    H22 2152   2.054   8.012   3.250  2.0947 -0.9476  0.5414
   16MOL    C23 2153   2.033   7.805   3.195 -0.1590 -0.2800 -0.4783
   16MOL    C24 2154   1.892   7.761   3.222  0.0481 -0.0523  0.1813
   16MOL    C25 2155   1.898   7.611   3.241  1.0097 -0.6350  0.0837
   16MOL    N26 2156   1.904   7.499   3.268  0.4571  0.2140 -0.3138
   16MOL    H27 2157   2.064   7.738   3.115 -2.5780 -2.0467  0.0017
   16MOL    H28 2158   2.094   7.784   3.283 -0.0727 -2.2788 -0.9996
   16MOL    H29 2159   1.826   7.766   3.136 -0.2688  2.6528  0.5408
   16MOL    C30 2160   1.826   7.840   3.346 -0.7660 -0.5617  0.8871
   16MOL    C31 2161   1.680   7.808   3.383 -0.8072 -0.5257 -0.3035
   16MOL    C32 2162   1.661   7.677   3.440 -0.4510  0.2985 -0.0225
   16MOL    N33 2163   1.645   7.572   3.483  0.5263  0.6337 -0.4696
   16MOL    H34 2164   1.885   7.834   3.437 -0.9146  0.7205  1.0730
   16MOL    H35 2165   1.829   7.947   3.325  0.5852 -0.5855  0.9487
   16MOL    H36 2166   1.628   7.800   3.288 -1.1198 -0.2358 -0.1541
   16MOL    C37 2167   1.592   7.920   3.454  0.0093  0.5800 -0.3420
   16MOL    C38 2168   1.622   7.939   3.601  1.1098 -0.1751 -0.1901
   16MOL    C39 2169   1.747   8.014   3.608 -1.4818  0.5619  0.2610
   16MOL    N40 2170   1.846   8.074   3.623  0.1673 -0.3352 -0.2691
   16MOL    H41 2171   1.596   8.018   3.407 -0.9072 -0.0975 -1.8884
   16MOL    H42 2172   1.491   7.879   3.443  1.0033 -2.0982 -0.0224
   16MOL    H43 2173   1.626   7.846   3.656  0.5032 -0.4002 -0.5233
   16MOL    C44 2174   1.514   8.027   3.667 -0.0267 -0.0821  0.6610
   16MOL    C45 2175   1.478   8.008   3.814  0.4894 -0.1824 -0.7310
   16MOL    C46 2176   1.597   8.053   3.888  0.2650  0.7260 -0.9274
   16MOL    N47 2177   1.690   8.092   3.946  0.5669 -0.5394  0.2172
   16MOL    H48 2178   1.523   8.129   3.629 -0.1321 -0.5349 -0.5970
   16MOL    H49 2179   1.422   8.018   3.610 -0.6808 -1.4628  1.9267
   16MOL    H50 2180   1.472   7.901   3.836 -1.8084  0.6992  3.2852
   16MOL    C51 2181   1.366   8.091   3.868 -0.3886  0.1235 -0.3057
   16MOL    C52 2182   1.223   8.045   3.820  0.2796 -0.4295  0.3033
   16MOL    C53 2183   1.204   7.897   3.843 -0.3830  0.4496  0.2142
   16MOL    N54 2184   1.194   7.781   3.865 -0.6161 -0.2809 -0.3237
   16MOL    H55 2185   1.362   8.096   3.977 -0.9490  0.8218 -0.3567
   16MOL    H56 2186   1.395   8.195   3.853 -0.7594  0.2247 -0.3190
   16MOL    H57 2187   1.203   8.064   3.714 -1.7951 -1.0540  0.5493
   16MOL    C58 2188   1.118   8.127   3.896  0.4455  0.1167  0.0988
   16MOL    C59 2189   0.966   8.127   3.853 -0.1602  0.0508  0.0769
   16MOL    C60 2190   0.913   7.995   3.818 -0.2030 -0.0808  0.2461
   16MOL    N61 2191   0.878   7.889   3.793 -0.2980  0.3239  0.3010
   16MOL    H62 2192   1.130   8.086   3.996  0.7400  0.7203  0.3079
   16MOL    H63 2193   1.146   8.232   3.887  0.3605  0.0806 -0.6293
   16MOL    H64 2194   0.966   8.179   3.758  1.4569  2.0706  1.1346
   16MOL    C65 2195   0.891   8.186   3.967  0.3647 -0.4280 -0.6847
   16MOL    C66 2196   0.740   8.201   3.940  0.2189  0.2712 -1.1132
   16MOL    C67 2197   0.697   8.201   3.802 -0.6068  0.1647 -0.0311
   16MOL    N68 2198   0.666   8.200   3.690 -0.2823  0.1957 -0.2210
   16MOL    H69 2199   0.909   8.123   4.054 -1.0442 -1.1386 -0.8953
   16MOL    H70 2200   0.936   8.284   3.985  2.8551 -1.6785  0.0616
   16MOL    H71 2201   0.723   8.300   3.981  1.3258  0.3976 -0.9480
   16MOL    C72 2202   0.655   8.102   4.015 -0.2247 -0.5810 -0.0653
   16MOL    C73 2203   0.507   8.102   3.982  0.1483 -0.1681 -0.2047
   16MOL    C74 2204   0.442   7.986   4.060  0.0052 -0.6729 -0.1644
   16MOL    N75 2205   0.393   7.900   4.121  0.1794  0.2166 -0.3941
   16MOL    H76 2206   0.703   8.008   3.986  0.6195  0.2227 -1.3365
   16MOL    H77 2207   0.664   8.114   4.123  0.2386  4.4544 -0.5653
   16MOL    H78 2208   0.495   8.072   3.878  3.0340 -0.5513 -0.4581
   16MOL    C79 2209   0.430   8.232   4.014  0.2849  0.6796  0.3053
   16MOL    C80 2210   0.286   8.252   3.951 -0.7918 -0.3284 -0.1337
   16MOL    C81 2211   0.205   8.131   3.946 -0.3019 -0.1392  0.3581
   16MOL    N82 2212   0.140   8.037   3.940  0.0504 -0.1464 -0.1516
   16MOL    H83 2213   0.428   8.245   4.122 -2.5458 -1.0395  0.5253
   16MOL    H84 2214   0.494   8.310   3.975 -0.4365  0.3614 -1.5565
   16MOL    H85 2215   0.308   8.259   3.845 -0.6275 -0.3219 -0.0995
   16MOL    C86 2216   0.207   0.060   3.998 -0.2120 -0.2583  0.0252
   16MOL    C87 2217   0.285   0.195   4.000 -0.0562 -0.3036 -0.2511
   16MOL    C88 2218   0.340   0.216   3.866 -0.4588  0.3216 -0.0246
   16MOL    N89 2219   0.384   0.227   3.765  0.5975  0.2805  0.4953
   16MOL    H90 2220   0.118   0.084   3.939 -0.9431 -1.5815  0.5742
   16MOL    H91 2221   0.158   0.039   4.092  1.9927 -0.9735  1.0335
   16MOL    H92 2222   0.370   0.192   4.068 -1.0902  0.4262  1.0947
   16MOL    C93 2223   0.204   0.315   4.052  0.1302 -0.4073 -0.6872
   16MOL    C94 2224   0.285   0.445   4.082  0.9454  0.1155 -0.9555
   16MOL    C95 2225   0.329   0.514   3.960  0.2721  0.0635 -0.1924
   16MOL    N96 2226   0.367   0.578   3.867 -0.7998 -0.0630  0.1187
   16MOL    H97 2227   0.114   0.340   3.996  1.2419 -1.4037 -3.0352
   16MOL    H98 2228   0.169   0.287   4.151 -1.9449  0.4832 -1.1471
   16MOL    H99 2229   0.372   0.426   4.146  0.2511 -1.3897 -0.4369
   16MOL   C100 2230   0.195   0.534   4.165 -0.4120 -0.7000  0.1759
   16MOL   C101 2231   0.237   0.678   4.187  0.9064 -0.4616 -0.4257
   16MOL   C102 2232   0.164   0.781   4.109 -0.2462  0.2981  1.1166
   16MOL   N103 2233   0.104   0.858   4.047  0.0374 -0.0654 -0.4440
   16MOL   H104 2234   0.093   0.533   4.128 -0.1220  1.4571 -0.7970
   16MOL   H105 2235   0.171   0.487   4.260  0.5270  1.4235  1.5160
   16MOL   H106 2236   0.336   0.683   4.142  0.1932  1.3708 -1.8622
   16MOL   C107 2237   0.256   0.719   4.339 -0.5658 -0.5081 -0.0448
   16MOL   C108 2238   0.365   0.817   4.375  0.4601 -1.0379  0.3365
   16MOL   C109 2239   0.395   0.908   4.265 -0.2792  0.0777  0.9647
   16MOL   N110 2240   0.425   0.985   4.178 -0.4988  0.5499  0.1158
   16MOL   H111 2241   0.171   0.784   4.362  0.3758  0.3003  1.1537
   16MOL   H112 2242   0.254   0.635   4.408  2.4782 -0.5497  0.0209
   16MOL   H113 2243   0.453   0.756   4.389  1.7536  0.4749 -0.8852
   16MOL   C114 2244   0.329   0.900   4.505  0.8654  0.2747 -0.3426
   16MOL   C115 2245   0.268   0.826   4.627  0.1398  0.0341  0.5665
   16MOL   C116 2246   0.349   0.714   4.662 -0.1981  0.4714 -0.0131
   16MOL   N117 2247   0.411   0.615   4.686 -0.0011 -0.8456  0.2633
   16MOL   H118 2248   0.417   0.954   4.539 -0.9672  2.0559  1.7018
   16MOL   H119 2249   0.254   0.977   4.484 -0.2811 -0.5693  0.6209
   16MOL   H120 2250   0.177   0.774   4.599  0.0338 -0.5919  2.0162
   16MOL   C121 2251   0.236   0.924   4.745 -0.1768 -0.6683 -0.3515
   16MOL   C122 2252   0.168   0.858   4.866  0.4771 -0.1266  0.5801
   16MOL   C123 2253   0.199   0.937   4.985  0.4813 -0.0234  0.1615
   16MOL   N124 2254   0.220   0.995   5.080 -0.4017 -1.0025  0.1420
   16MOL   H125 2255   0.336   0.958   4.770 -0.8844 -0.0696  1.7996
   16MOL   H126 2256   0.178   1.006   4.702 -0.4668 -1.7098 -1.9710
   16MOL   H127 2257   0.230   0.769   4.878  0.6000 -0.5524 -2.7067
   16MOL   C128 2258   0.015   0.837   4.855 -0.2456  0.0464 -0.2574
   16MOL   C129 2259   8.259   0.748   4.956  0.0882 -0.8836 -0.6376
   16MOL   C130 2260   0.028   0.630   4.985 -0.3221  0.7217  0.7566
   16MOL   N131 2261   0.094   0.541   5.007  0.0400 -0.2531  0.5101
   16MOL   H132 2262   8.276   0.933   4.850 -0.4130 -0.0332 -0.0575
   16MOL   H133 2263   8.307   0.791   4.758 -1.2175  1.0874 -0.5619
   16MOL   H134 2264   8.170   0.697   4.918 -2.0126  1.4444  0.9938
   16MOL   C135 2265   8.198   0.832   5.072 -0.7079 -0.2641 -0.3157
   16MOL   C136 2266   8.055   0.872   5.050  0.4141  0.4635 -0.0504
   16MOL   C137 2267   8.029   1.015   5.089  0.5910 -0.1299 -0.8208
   16MOL   N138 2268   8.007   1.126   5.127 -0.2074 -0.1985 -0.1571
   16MOL   H139 2269   8.202   0.772   5.163  1.1136  0.1321 -0.1218
   16MOL   H140 2270   8.254   0.922   5.096  0.0537 -1.1365  1.2439
   16MOL   H141 2271   7.982   0.803   5.092 -0.2892 -0.2608 -2.4187
   16MOL   H142 2272   8.036   0.869   4.943 -1.8293 -0.2816  0.3464
   17MOL     C1 2273   7.135   3.398   3.368  0.7034 -0.0556  0.5642
   17MOL     C2 2274   7.043   3.510   3.301  0.5391  0.2080  0.7804
   17MOL     C3 2275   7.102   3.641   3.345 -0.0485 -0.0840 -0.5146
   17MOL     N4 2276   7.144   3.743   3.378  0.5219 -0.0859 -0.1598
   17MOL     H5 2277   7.146   3.427   3.473  2.3761  2.2110 -0.1894
   17MOL     H6 2278   7.228   3.412   3.313  0.7279 -2.4056 -0.0310
   17MOL     H7 2279   6.942   3.496   3.340 -0.8151 -0.5758 -2.7922
   17MOL     H8 2280   7.097   3.297   3.354 -0.8067  0.5986 -0.0824
   17MOL     C9 2281   7.027   3.498   3.149  0.6389 -0.1868  1.4381
   17MOL    C10 2282   6.962   3.621   3.078  0.2107 -0.3850  0.1589
   17MOL    C11 2283   6.995   3.612   2.936  0.6030 -0.7494 -0.6022
   17MOL    N12 2284   7.019   3.601   2.823  0.0640 -0.8495 -0.1452
   17MOL    H13 2285   7.127   3.485   3.107 -0.6615 -0.2650 -1.7609
   17MOL    H14 2286   6.973   3.405   3.131  1.6582 -0.4833 -0.2163
   17MOL    H15 2287   7.009   3.716   3.099  1.2469 -1.1374  1.3317
   17MOL    C16 2288   6.811   3.626   3.092  0.6253 -0.2183  0.7168
   17MOL    C17 2289   6.766   3.772   3.133  0.7566  0.0791 -0.4553
   17MOL    C18 2290   6.799   3.874   3.029  0.1434 -0.3867 -0.2051
   17MOL    N19 2291   6.827   3.947   2.946 -0.1593 -0.3845  0.6666
   17MOL    H20 2292   6.764   3.581   3.005 -0.2298 -0.7150  1.4226
   17MOL    H21 2293   6.777   3.562   3.173 -3.4509  1.0237  0.0719
   17MOL    H22 2294   6.830   3.802   3.216  0.7272 -0.8003 -0.1140
   17MOL    C23 2295   6.616   3.773   3.174 -0.1279 -0.2615 -0.1388
   17MOL    C24 2296   6.591   3.717   3.314 -0.3755 -0.7685 -0.5761
   17MOL    C25 2297   6.584   3.569   3.311 -0.6057  0.2134  0.7747
   17MOL    N26 2298   6.589   3.453   3.308  0.1172  0.7240  0.3779
   17MOL    H27 2299   6.567   3.868   3.155  2.1950  1.1896  0.8488
   17MOL    H28 2300   6.554   3.708   3.112 -0.7312  1.8746 -1.8399
   17MOL    H29 2301   6.489   3.743   3.344 -0.7140 -0.1473 -2.1845
   17MOL    C30 2302   6.684   3.764   3.420  0.1944 -0.0595 -0.6837
   17MOL    C31 2303   6.628   3.749   3.568  0.1940  0.7237 -0.1257
   17MOL    C32 2304   6.566   3.620   3.604  0.2346  0.2379 -0.3273
   17MOL    N33 2305   6.518   3.520   3.629  0.2241 -0.1113  0.2804
   17MOL    H34 2306   6.787   3.729   3.413  0.1365 -0.0103 -1.9338
   17MOL    H35 2307   6.701   3.871   3.404  2.8015 -0.5911 -1.7216
   17MOL    H36 2308   6.544   3.817   3.580 -1.0328 -0.2707 -2.4789
   17MOL    C37 2309   6.744   3.791   3.667  0.1724  0.4150 -0.1980
   17MOL    C38 2310   6.714   3.795   3.824 -0.5726  0.9038  0.0987
   17MOL    C39 2311   6.606   3.888   3.853  0.0294  0.0962 -0.8816
   17MOL    N40 2312   6.519   3.961   3.880 -0.2247 -0.4000 -0.5442
   17MOL    H41 2313   6.832   3.729   3.650 -0.4476 -0.8586  1.1501
   17MOL    H42 2314   6.769   3.893   3.635  1.1076  0.4211  0.5444
   17MOL    H43 2315   6.807   3.837   3.863  1.1321  0.0400 -2.8525
   17MOL    C44 2316   6.702   3.663   3.900  0.2710  0.5824 -0.1580
   17MOL    C45 2317   6.785   3.665   4.034 -0.6990 -0.0874 -0.6753
   17MOL    C46 2318   6.733   3.559   4.123  0.0582 -0.1585  0.5504
   17MOL    N47 2319   6.692   3.470   4.188 -0.4076  0.3391 -0.0375
   17MOL    H48 2320   6.596   3.649   3.919  0.8353 -0.9376  2.0674
   17MOL    H49 2321   6.739   3.585   3.834 -0.4268 -0.5524  0.7638
   17MOL    H50 2322   6.773   3.763   4.079  1.2954 -0.7056  1.3078
   17MOL    C51 2323   6.933   3.640   4.004  0.2224 -0.2420  0.2074
   17MOL    C52 2324   7.026   3.649   4.130 -0.3759 -0.2903 -0.4069
   17MOL    C53 2325   6.976   3.743   4.227 -0.2864  0.5497  0.2111
   17MOL    N54 2326   6.942   3.822   4.304 -0.8451  0.2760  0.0739
   17MOL    H55 2327   6.953   3.543   3.960 -2.1779 -0.2949 -0.8091
   17MOL    H56 2328   6.968   3.719   3.937  1.5040  0.1704  1.3364
   17MOL    H57 2329   7.119   3.691   4.091  0.2827 -1.1409  0.2303
   17MOL    C58 2330   7.060   3.511   4.196  0.0346  1.1412  0.1460
   17MOL    C59 2331   7.177   3.496   4.301 -0.4053 -1.2611  0.5099
   17MOL    C60 2332   7.312   3.489   4.245  0.6953  0.0214 -0.4132
   17MOL    N61 2333   7.417   3.481   4.204 -0.3963 -0.5909  0.2995
   17MOL    H62 2334   6.966   3.466   4.228  0.3656 -1.0041 -1.7836
   17MOL    H63 2335   7.088   3.446   4.113  2.7261  0.6661  1.3907
   17MOL    H64 2336   7.158   3.397   4.342 -2.4881 -1.1646 -0.1540
   17MOL    C65 2337   7.168   3.585   4.428  0.1719  0.0993  0.0184
   17MOL    C66 2338   7.274   3.557   4.539  0.2929  0.3612 -0.0787
   17MOL    C67 2339   7.414   3.609   4.514  0.0667 -0.4190 -0.5643
   17MOL    N68 2340   7.520   3.645   4.499 -0.0364 -0.3453 -0.1172
   17MOL    H69 2341   7.185   3.689   4.398 -2.4772  0.9068  1.1517
   17MOL    H70 2342   7.064   3.568   4.457  0.4797 -2.0349 -0.1138
   17MOL    H71 2343   7.279   3.448   4.545  0.1658  0.4405  1.4772
   17MOL    C72 2344   7.212   3.614   4.672  0.6602 -0.2539 -0.0065
   17MOL    C73 2345   7.291   3.605   4.800  0.1312 -0.1245 -0.3897
   17MOL    C74 2346   7.405   3.698   4.809 -0.2618  0.0791  0.0005
   17MOL    N75 2347   7.495   3.773   4.812 -0.3177 -0.0176 -0.4166
   17MOL    H76 2348   7.169   3.713   4.652  3.3450  0.8714 -0.4931
   17MOL    H77 2349   7.130   3.544   4.682 -0.2226  0.6851 -0.4982
   17MOL    H78 2350   7.330   3.507   4.825 -1.3758 -0.4911  0.5687
   17MOL    C79 2351   7.206   3.635   4.919  0.0077  0.5462  0.4870
   17MOL    C80 2352   7.078   3.545   4.933 -0.6058  0.7067  0.0652
   17MOL    C81 2353   7.102   3.406   4.962  0.4111  0.2256 -0.4337
   17MOL    N82 2354   7.117   3.296   4.981 -0.1987 -0.8736  0.3944
   17MOL    H83 2355   7.270   3.643   5.007 -0.2555 -0.6076  0.7886
   17MOL    H84 2356   7.181   3.741   4.910  0.3987  0.4105 -3.3528
   17MOL    H85 2357   7.015   3.544   4.844 -2.4552 -2.0882  1.3163
   17MOL    C86 2358   6.979   3.611   5.026 -0.1806 -0.2423 -0.0367
   17MOL    C87 2359   6.827   3.574   5.021 -0.7177 -0.3879 -0.0533
   17MOL    C88 2360   6.801   3.431   5.045 -0.1752 -0.2736 -0.1340
   17MOL    N89 2361   6.791   3.314   5.064  0.8245 -0.2588  0.2108
   17MOL    H90 2362   7.032   3.592   5.120 -0.3248 -3.2080 -0.4970
   17MOL    H91 2363   6.997   3.717   5.011  0.9949 -0.4459 -0.0787
   17MOL    H92 2364   6.797   3.585   4.917  1.7575 -0.0836 -0.7659
   17MOL    C93 2365   6.739   3.655   5.111  0.9482 -0.4832  0.4053
   17MOL    C94 2366   6.609   3.704   5.038  0.3747 -0.3089  0.5293
   17MOL    C95 2367   6.665   3.804   4.945  0.2295 -0.0290 -0.0305
   17MOL    N96 2368   6.708   3.883   4.874 -0.9224 -0.0407 -0.4409
   17MOL    H97 2369   6.703   3.613   5.205 -0.4628  2.8227  1.4197
   17MOL    H98 2370   6.790   3.749   5.135 -1.7087  1.1378 -0.1045
   17MOL    H99 2371   6.548   3.762   5.106  0.0373 -1.0073  0.8304
   17MOL   C100 2372   6.525   3.589   4.971  0.0458 -0.0275 -0.3608
   17MOL   C101 2373   6.400   3.640   4.899  0.3064  0.4348  0.2566
   17MOL   C102 2374   6.289   3.695   4.977 -0.0751 -0.1056  0.3816
   17MOL   N103 2375   6.200   3.741   5.030  0.5800  0.1807  0.3835
   17MOL   H104 2376   6.588   3.522   4.912 -0.0765 -1.5303  1.1967
   17MOL   H105 2377   6.489   3.522   5.048 -1.5428  1.1254 -0.0740
   17MOL   H106 2378   6.357   3.541   4.881  3.3297 -0.6619 -1.2093
   17MOL   C107 2379   6.418   3.697   4.761  0.5845 -0.0725 -0.6134
   17MOL   C108 2380   6.297   3.753   4.687  0.9727 -0.4645 -0.1753
   17MOL   C109 2381   6.242   3.873   4.751 -0.1292  0.1925 -0.4986
   17MOL   N110 2382   6.195   3.968   4.806  0.1657 -0.1454  0.1284
   17MOL   H111 2383   6.486   3.782   4.756  0.8237 -0.3386 -2.5388
   17MOL   H112 2384   6.457   3.612   4.704  0.4812 -0.9911  0.6707
   17MOL   H113 2385   6.211   3.692   4.716  0.6040 -0.6752 -1.6903
   17MOL   C114 2386   6.321   3.758   4.536  0.2845  0.0021 -0.2751
   17MOL   C115 2387   6.276   3.645   4.443  0.3365  0.0408 -0.6407
   17MOL   C116 2388   6.128   3.632   4.453  0.6487  0.3081  0.1307
   17MOL   N117 2389   6.010   3.615   4.456 -0.3358 -0.7750 -0.1924
   17MOL   H118 2390   6.264   3.845   4.503  1.0593  0.5373 -0.2063
   17MOL   H119 2391   6.428   3.770   4.522  0.8659 -0.4509  3.1427
   17MOL   H120 2392   6.318   3.553   4.486 -0.3049 -0.1068 -0.3261
   17MOL   C121 2393   6.312   3.647   4.289  0.2254 -0.3738  0.4255
   17MOL   C122 2394   6.237   3.746   4.202  0.5608 -0.4804 -0.8121
   17MOL   C123 2395   6.255   3.877   4.261  0.6785 -0.1476 -0.3214
   17MOL   N124 2396   6.271   3.982   4.310  0.1697 -0.0226  0.0699
   17MOL   H125 2397   6.420   3.662   4.290  0.1112  0.5380  0.0106
   17MOL   H126 2398   6.285   3.551   4.246  1.6076 -0.6582  0.1868
   17MOL   H127 2399   6.129   3.735   4.194  0.5903 -0.5375 -1.1219
   17MOL   C128 2400   6.294   3.742   4.062  0.9391  0.5552 -0.2468
   17MOL   C129 2401   6.201   3.805   3.954  0.0729 -0.1165 -0.3470
   17MOL   C130 2402   6.178   3.949   3.974 -0.3170  1.1978 -0.7844
   17MOL   N131 2403   6.161   4.058   3.998  0.0370  0.1492  0.1244
   17MOL   H132 2404   6.394   3.784   4.053  1.0534  0.2183 -0.5998
   17MOL   H133 2405   6.310   3.637   4.037  1.4904  0.2423  1.3829
   17MOL   H134 2406   6.100   3.768   3.973 -0.6334  1.8826 -0.1555
   17MOL   C135 2407   6.237   3.770   3.805  0.9379  0.1569  0.3125
   17MOL   C136 2408   6.176   3.865   3.695  0.1616  0.2040 -0.0182
   17MOL   C137 2409   6.233   3.825   3.563 -0.0405  0.3416 -0.0265
   17MOL   N138 2410   6.279   3.794   3.462  0.0000  0.5681 -0.1878
   17MOL   H139 2411   6.344   3.770   3.786  0.7505 -2.2587 -0.8794
   17MOL   H140 2412   6.204   3.674   3.766 -1.1453  1.9762 -2.6371
   17MOL   H141 2413   6.202   3.969   3.715  1.9072 -0.2247 -0.0329
   17MOL   H142 2414   6.067   3.865   3.693  0.0944 -0.2365  2.1003
   18MOL     C1 2415   3.519   4.229   1.776  0.2509 -0.5433  0.7774
   18MOL     C2 2416   3.381   4.221   1.834 -0.6843 -0.0237  0.1706
   18MOL     C3 2417   3.358   4.341   1.914 -0.1692  0.0421  0.6390
   18MOL     N4 2418   3.340   4.435   1.982  0.0331 -0.3280  0.0481
   18MOL     H5 2419   3.597   4.257   1.846  2.3742  0.3886 -1.8698
   18MOL     H6 2420   3.522   4.303   1.696 -2.8294 -0.8340  0.2983
   18MOL     H7 2421   3.372   4.145   1.911 -0.4557  0.1637  0.3770
   18MOL     H8 2422   3.551   4.137   1.725  2.9065  0.7224  0.0712
   18MOL     C9 2423   3.278   4.177   1.725  0.1723  0.0159 -0.1460
   18MOL    C10 2424   3.151   4.127   1.774  0.1441 -0.2750  0.1555
   18MOL    C11 2425   3.171   3.989   1.825 -0.0171 -0.1063  0.9622
   18MOL    N12 2426   3.188   3.883   1.869 -0.3832 -0.3282  0.4730
   18MOL    H13 2427   3.248   4.263   1.665 -2.0053  0.5576  1.6512
   18MOL    H14 2428   3.323   4.112   1.649 -0.8325 -1.7456  0.7417
   18MOL    H15 2429   3.088   4.118   1.686  0.9065 -1.4633 -0.2810
   18MOL    C16 2430   3.077   4.215   1.877 -0.3708  0.3913 -0.0059
   18MOL    C17 2431   2.924   4.199   1.872  0.4100  0.2602 -0.4036
   18MOL    C18 2432   2.875   4.093   1.785 -0.1490 -0.1795 -0.4890
   18MOL    N19 2433   2.838   4.011   1.713  0.1176 -0.3771  0.3033
   18MOL    H20 2434   3.111   4.179   1.974 -2.8536 -2.3841 -0.1032
   18MOL    H21 2435   3.095   4.323   1.878 -1.1583  0.5554 -2.0937
   18MOL    H22 2436   2.885   4.284   1.817  0.3345 -0.8838 -2.1357
   18MOL    C23 2437   2.859   4.203   2.011  0.0788  0.2092  0.0696
   18MOL    C24 2438   2.702   4.226   2.023 -0.3261 -0.6833 -0.2319
   18MOL    C25 2439   2.615   4.143   1.938  0.5006  0.3660  0.5641
   18MOL    N26 2440   2.548   4.079   1.870  0.1087 -0.1068 -0.2160
   18MOL    H27 2441   2.893   4.106   2.047  0.9351  0.6029  0.3221
   18MOL    H28 2442   2.906   4.284   2.067 -0.6934 -0.5013  1.7541
   18MOL    H29 2443   2.687   4.322   1.974 -1.1636  0.5725  2.4085
   18MOL    C30 2444   2.657   4.250   2.170 -0.5646 -0.8691 -0.4632
   18MOL    C31 2445   2.530   4.336   2.199  0.0918  1.0449 -0.6246
   18MOL    C32 2446   2.408   4.261   2.161  0.4272 -0.0356  0.0676
   18MOL    N33 2447   2.315   4.203   2.131  1.0344 -0.3970  0.1216
   18MOL    H34 2448   2.644   4.148   2.204 -1.6056 -0.8716 -0.8699
   18MOL    H35 2449   2.744   4.300   2.213 -1.6519  0.2858  0.4088
   18MOL    H36 2450   2.536   4.426   2.137  1.8814  1.2247 -0.2438
   18MOL    C37 2451   2.532   4.388   2.347 -0.9431  0.3350  0.4095
   18MOL    C38 2452   2.488   4.290   2.456  0.1795  0.5961  0.4974
   18MOL    C39 2453   2.543   4.152   2.440  0.3157 -0.7857  0.6711
   18MOL    N40 2454   2.593   4.047   2.421  0.2080  0.0372  0.5003
   18MOL    H41 2455   2.637   4.417   2.356 -1.1985  1.9362 -1.4003
   18MOL    H42 2456   2.470   4.477   2.358  1.0285  1.5304  2.5456
   18MOL    H43 2457   2.381   4.270   2.450  0.4309 -0.9621  0.8678
   18MOL    C44 2458   2.523   4.357   2.596  0.0460 -0.3000 -0.0103
   18MOL    C45 2459   2.502   4.266   2.715  0.1174  0.4552 -0.1267
   18MOL    C46 2460   2.610   4.169   2.738 -0.1373 -0.1692  0.4880
   18MOL    N47 2461   2.697   4.099   2.750 -0.0912  0.2295 -0.4062
   18MOL    H48 2462   2.624   4.394   2.584 -0.2811  0.8633  0.7314
   18MOL    H49 2463   2.452   4.440   2.594 -0.8438 -1.0646 -1.0620
   18MOL    H50 2464   2.415   4.201   2.703  0.7768 -0.2636 -1.1048
   18MOL    C51 2465   2.497   4.349   2.843  0.5486 -0.2447  0.2029
   18MOL    C52 2466   2.370   4.436   2.869 -0.4314 -0.2667 -1.0298
   18MOL    C53 2467   2.245   4.363   2.866 -0.4928  0.4875  0.4471
   18MOL    N54 2468   2.142   4.309   2.867  0.3697 -0.5176 -0.4396
   18MOL    H55 2469   2.497   4.283   2.930  2.3418  0.0098  0.4190
   18MOL    H56 2470   2.583   4.415   2.850 -0.5884  1.6372 -2.6654
   18MOL    H57 2471   2.345   4.507   2.790 -3.6355  0.4836  0.5619
   18MOL    C58 2472   2.379   4.515   2.997  0.4414 -0.4928 -0.0969
   18MOL    C59 2473   2.264   4.601   3.056  0.3183  0.2129 -0.0038
   18MOL    C60 2474   2.146   4.523   3.110 -0.4835  0.4664  0.0376
   18MOL    N61 2475   2.055   4.469   3.156 -0.3822  0.1327  0.0559
   18MOL    H62 2476   2.412   4.440   3.070  1.1161  0.3945  0.5169
   18MOL    H63 2477   2.469   4.577   2.991  0.3548 -0.1730  1.7315
   18MOL    H64 2478   2.227   4.659   2.972 -0.3192  0.2142  0.2682
   18MOL    C65 2479   2.322   4.697   3.161  0.0389 -0.4058  0.1290
   18MOL    C66 2480   2.395   4.631   3.283  0.1839 -0.1609 -0.1733
   18MOL    C67 2481   2.510   4.711   3.327 -0.3032  0.4174  0.4979
   18MOL    N68 2482   2.602   4.769   3.364 -0.2319 -0.3756 -0.4950
   18MOL    H69 2483   2.385   4.775   3.117 -1.2343  0.2902 -0.4925
   18MOL    H70 2484   2.243   4.759   3.203  0.5813 -1.2516  2.4457
   18MOL    H71 2485   2.431   4.531   3.263  0.8716  0.2778 -1.1601
   18MOL    C72 2486   2.314   4.609   3.407  0.9660  1.2192 -0.8728
   18MOL    C73 2487   2.395   4.540   3.534 -0.3318  0.7807  0.2972
   18MOL    C74 2488   2.487   4.437   3.490 -0.1511 -0.0879 -0.4244
   18MOL    N75 2489   2.566   4.361   3.455 -0.1331  0.1922  0.0162
   18MOL    H76 2490   2.282   4.708   3.438 -0.8958  0.7120 -1.0836
   18MOL    H77 2491   2.224   4.551   3.387 -0.2943  2.3899  1.2725
   18MOL    H78 2492   2.321   4.472   3.578  1.4097  0.1581  2.3520
   18MOL    C79 2493   2.442   4.644   3.646 -0.5013 -0.3211  0.2038
   18MOL    C80 2494   2.559   4.586   3.734  0.0892 -0.4905  0.7933
   18MOL    C81 2495   2.688   4.626   3.674 -0.0990 -0.3104  0.0898
   18MOL    N82 2496   2.784   4.660   3.624 -0.1762  0.0312 -0.5348
   18MOL    H83 2497   2.479   4.739   3.606 -1.8789  0.3915  0.5538
   18MOL    H84 2498   2.353   4.653   3.708 -0.4968  3.6399 -0.2347
   18MOL    H85 2499   2.548   4.478   3.743  1.6596 -0.8042 -0.7803
   18MOL    C86 2500   2.556   4.630   3.883 -0.0137 -0.1253 -0.3384
   18MOL    C87 2501   2.425   4.604   3.959 -0.6904 -0.1048  0.5544
   18MOL    C88 2502   2.373   4.472   3.916  0.7523 -0.2461  0.8012
   18MOL    N89 2503   2.338   4.372   3.885 -0.3302 -0.2049 -0.3039
   18MOL    H90 2504   2.638   4.584   3.937 -0.3129 -1.4550 -0.9948
   18MOL    H91 2505   2.579   4.736   3.878  0.1636 -0.2232 -2.1872
   18MOL    H92 2506   2.347   4.669   3.922  0.9258  1.0820 -0.8367
   18MOL    C93 2507   2.435   4.625   4.108 -0.4675 -0.5297 -0.5215
   18MOL    C94 2508   2.309   4.617   4.191 -0.0996 -0.0837  0.4340
   18MOL    C95 2509   2.328   4.557   4.319 -0.1143 -0.3235  0.3550
   18MOL    N96 2510   2.341   4.510   4.426  0.0275 -0.3297  0.4708
   18MOL    H97 2511   2.503   4.552   4.153 -1.3639 -1.5445 -0.7819
   18MOL    H98 2512   2.487   4.718   4.131 -0.6547 -1.0726  2.2727
   18MOL    H99 2513   2.228   4.563   4.143  0.2194  1.1738 -1.5652
   18MOL   C100 2514   2.247   4.751   4.226 -0.2144 -0.5329 -0.5948
   18MOL   C101 2515   2.324   4.854   4.315 -0.0969 -0.1012  0.0916
   18MOL   C102 2516   2.433   4.925   4.249  0.0648 -0.1029  0.0636
   18MOL   N103 2517   2.516   4.984   4.195 -0.3347  0.6380  0.0936
   18MOL   H104 2518   2.236   4.791   4.125  1.9716 -0.2213 -0.7385
   18MOL   H105 2519   2.148   4.731   4.266 -0.8755 -1.1352 -2.5047
   18MOL   H106 2520   2.378   4.800   4.392  1.6913  0.4579 -0.7490
   18MOL   C107 2521   2.229   4.956   4.383 -0.2436  0.0002 -0.4896
   18MOL   C108 2522   2.312   5.034   4.485 -0.3888 -0.3354 -0.3341
   18MOL   C109 2523   2.271   5.174   4.501  0.0122 -0.1119  0.1924
   18MOL   N110 2524   2.239   5.284   4.518  0.2619  0.4703  0.2037
   18MOL   H111 2525   2.195   5.029   4.309  0.5496 -0.1761 -1.0335
   18MOL   H112 2526   2.138   4.909   4.420 -0.1764  0.4477  0.2401
   18MOL   H113 2527   2.417   5.051   4.459 -0.3159  0.1062  0.2184
   18MOL   C114 2528   2.314   4.958   4.616  0.0655 -0.8341 -0.7964
   18MOL   C115 2529   2.386   5.024   4.735  0.0741 -0.4649  0.9939
   18MOL   C116 2530   2.298   5.119   4.803 -0.0731  0.9437 -0.4440
   18MOL   N117 2531   2.231   5.194   4.858  0.1234 -0.2754 -0.3690
   18MOL   H118 2532   2.207   4.950   4.632 -0.2290  2.9878 -0.3363
   18MOL   H119 2533   2.359   4.859   4.606  0.2382 -0.7446 -0.8923
   18MOL   H120 2534   2.464   5.086   4.692 -0.4864  0.5588  1.4495
   18MOL   C121 2535   2.471   4.930   4.831 -0.9471  0.0742 -0.3864
   18MOL   C122 2536   2.486   4.966   4.986 -0.3541 -0.1595  0.1305
   18MOL   C123 2537   2.363   4.980   5.059 -0.0978  0.6940 -0.2284
   18MOL   N124 2538   2.264   4.987   5.120 -0.2339 -0.1939  0.0579
   18MOL   H125 2539   2.439   4.826   4.827  0.3046 -0.3426  0.0681
   18MOL   H126 2540   2.574   4.935   4.795 -1.0026  0.3510 -0.5140
   18MOL   H127 2541   2.517   5.071   4.982  0.3948 -0.4009 -0.3926
   18MOL   C128 2542   2.598   4.898   5.069  0.1990 -0.6729  0.0485
   18MOL   C129 2543   2.576   4.748   5.120 -0.5986 -0.0692 -0.9275
   18MOL   C130 2544   2.541   4.654   5.009 -0.4522 -0.3576 -0.3716
   18MOL   N131 2545   2.520   4.580   4.927 -0.2120  1.0400 -0.0101
   18MOL   H132 2546   2.690   4.910   5.011  1.2306 -2.5749  1.2477
   18MOL   H133 2547   2.600   4.957   5.160  0.3115 -0.8982  0.1916
   18MOL   H134 2548   2.484   4.754   5.179 -1.6466 -0.6513 -2.4935
   18MOL   C135 2549   2.694   4.693   5.207 -0.0735 -0.0745 -0.0902
   18MOL   C136 2550   2.797   4.632   5.110 -0.5270 -1.2597  0.3952
   18MOL   C137 2551   2.925   4.602   5.165  0.3263 -0.7367 -0.5078
   18MOL   N138 2552   3.028   4.580   5.205 -0.0580 -0.6365 -0.8224
   18MOL   H139 2553   2.734   4.777   5.265  1.2818 -0.4206 -0.5103
   18MOL   H140 2554   2.654   4.612   5.268  0.8312 -0.2066  0.3468
   18MOL   H141 2555   2.810   4.716   5.042 -1.4100 -0.3005  1.3963
   18MOL   H142 2556   2.753   4.551   5.051 -0.3539 -0.2276 -1.2012
   19MOL     C1 2557   0.315   6.873   6.595  0.3122  1.0922  0.1141
   19MOL     C2 2558   0.340   6.758   6.500 -0.4127 -0.3320  0.2579
   19MOL     C3 2559   0.207   6.703   6.467 -0.2388 -0.0669  0.3641
   19MOL     N4 2560   0.104   6.658   6.437  0.0903 -0.7744  0.0140
   19MOL     H5 2561   0.285   6.825   6.689 -1.2173 -3.3335 -2.4522
   19MOL     H6 2562   0.228   6.936   6.576 -0.5728  0.1800  1.0473
   19MOL     H7 2563   0.395   6.669   6.531  1.8396  0.7480 -0.5259
   19MOL     H8 2564   0.395   6.935   6.634  0.2386  1.5532 -0.4728
   19MOL     C9 2565   0.417   6.812   6.370 -0.5911 -0.5723 -0.7784
   19MOL    C10 2566   0.566   6.861   6.395  0.3068 -0.6026 -0.3408
   19MOL    C11 2567   0.641   6.784   6.497 -0.8885  0.1472 -0.1437
   19MOL    N12 2568   0.701   6.724   6.576  0.2347  0.2249 -0.6252
   19MOL    H13 2569   0.424   6.726   6.303 -2.1048 -0.5099 -1.0312
   19MOL    H14 2570   0.356   6.887   6.320  0.4099 -0.3865 -1.7481
   19MOL    H15 2571   0.557   6.964   6.429 -2.7235 -0.9585  0.1076
   19MOL    C16 2572   0.645   6.873   6.265  0.0249  0.3503 -0.1651
   19MOL    C17 2573   0.598   6.981   6.163  0.3671  0.2750  0.3340
   19MOL    C18 2574   0.582   7.120   6.218 -0.0577 -0.4558 -0.2910
   19MOL    N19 2575   0.565   7.230   6.257 -0.2105  0.0047 -0.0962
   19MOL    H20 2576   0.747   6.904   6.288  0.7017 -2.3448  0.6694
   19MOL    H21 2577   0.657   6.774   6.220  1.2005 -0.2044  1.3195
   19MOL    H22 2578   0.491   6.965   6.144  0.3997  0.9487 -0.3939
   19MOL    C23 2579   0.671   6.965   6.027 -0.3194  0.1851  1.2831
   19MOL    C24 2580   0.824   7.007   6.032 -0.3813 -0.4357  1.1055
   19MOL    C25 2581   0.911   6.904   6.101 -0.6981 -0.0475  0.8823
   19MOL    N26 2582   0.977   6.826   6.156 -0.5319 -0.2607  0.4420
   19MOL    H27 2583   0.673   6.858   6.005 -1.2120  0.9373 -2.9829
   19MOL    H28 2584   0.613   7.018   5.951 -1.0345 -0.8511  1.0975
   19MOL    H29 2585   0.827   7.099   6.090 -0.7243  0.7767 -0.7521
   19MOL    C30 2586   0.881   7.054   5.894  0.7950  0.7742  0.1076
   19MOL    C31 2587   1.009   7.143   5.896  0.3668 -0.2562  0.1822
   19MOL    C32 2588   0.982   7.269   5.974 -0.4843 -0.0405  0.8201
   19MOL    N33 2589   0.968   7.360   6.040 -0.4016 -1.1024 -0.3307
   19MOL    H34 2590   0.895   6.959   5.841 -1.2063  1.1465 -1.1597
   19MOL    H35 2591   0.801   7.092   5.830 -0.1728 -0.9766  0.2359
   19MOL    H36 2592   1.018   7.164   5.789 -0.6778  0.5528  0.2476
   19MOL    C37 2593   1.141   7.065   5.935 -0.6657  0.2827 -0.6126
   19MOL    C38 2594   1.253   7.122   5.846 -0.0413  0.2560 -0.1428
   19MOL    C39 2595   1.281   7.267   5.869  0.5814  0.1804  0.3231
   19MOL    N40 2596   1.306   7.382   5.885 -0.2235 -0.1518  0.4275
   19MOL    H41 2597   1.172   7.081   6.038 -2.5110 -0.0630  0.0127
   19MOL    H42 2598   1.117   6.959   5.926 -0.1419  0.1236 -0.1725
   19MOL    H43 2599   1.207   7.109   5.748  1.3455  3.0595 -1.2488
   19MOL    C44 2600   1.374   7.027   5.843  0.1820 -0.4022 -0.2990
   19MOL    C45 2601   1.458   7.042   5.711  0.1978 -0.2051 -0.3794
   19MOL    C46 2602   1.493   7.179   5.663 -0.0156  0.7752  0.1999
   19MOL    N47 2603   1.521   7.286   5.626  0.4359 -0.2086  0.0352
   19MOL    H48 2604   1.433   7.038   5.934 -1.5577  0.7743  0.7224
   19MOL    H49 2605   1.332   6.927   5.842 -1.6464  0.3368 -0.0224
   19MOL    H50 2606   1.392   7.015   5.629  0.2092 -0.4456 -0.3129
   19MOL    C51 2607   1.575   6.941   5.716 -0.2134 -0.0009  0.0253
   19MOL    C52 2608   1.657   6.913   5.591 -0.0096 -0.2200  0.0791
   19MOL    C53 2609   1.741   7.025   5.558 -0.1500 -0.0958 -0.1991
   19MOL    N54 2610   1.807   7.116   5.531 -0.6455  0.2004 -0.7794
   19MOL    H55 2611   1.655   6.966   5.786  0.9307 -0.9606 -0.9120
   19MOL    H56 2612   1.540   6.841   5.742 -0.1525 -0.5917 -2.0974
   19MOL    H57 2613   1.590   6.902   5.506 -0.2183  0.9930  0.0895
   19MOL    C58 2614   1.742   6.780   5.612  0.0822  0.7263 -0.2615
   19MOL    C59 2615   1.817   6.733   5.488  0.3869  0.2923  0.3757
   19MOL    C60 2616   1.730   6.746   5.373  0.1342 -0.2064  0.6949
   19MOL    N61 2617   1.663   6.762   5.277 -0.4871  0.5309 -0.6542
   19MOL    H62 2618   1.805   6.781   5.701  0.8610  0.7469 -0.8166
   19MOL    H63 2619   1.678   6.693   5.627  0.9881  0.3596  1.6164
   19MOL    H64 2620   1.837   6.628   5.503  1.5275  0.4331 -0.1354
   19MOL    C65 2621   1.953   6.793   5.456  0.0206  0.7000 -0.8556
   19MOL    C66 2622   2.043   6.842   5.568 -0.0280 -0.6054 -0.1886
   19MOL    C67 2623   2.071   6.736   5.657 -0.3456  0.3424 -0.3108
   19MOL    N68 2624   2.096   6.647   5.731  0.8870 -0.3695 -0.2950
   19MOL    H69 2625   2.010   6.724   5.394  1.1922  2.8947 -2.3354
   19MOL    H70 2626   1.937   6.881   5.393  0.5868  0.6581 -1.0617
   19MOL    H71 2627   1.994   6.925   5.620  0.7261  0.6663 -1.4616
   19MOL    C72 2628   2.160   6.901   5.501 -0.7156  0.6634  0.0685
   19MOL    C73 2629   2.273   6.947   5.586  0.0021 -0.5286 -0.4450
   19MOL    C74 2630   2.382   7.012   5.503  0.2707  0.6577  0.3864
   19MOL    N75 2631   2.465   7.061   5.440 -0.1040 -0.2791  0.0388
   19MOL    H76 2632   2.202   6.823   5.437 -2.8918 -0.0848 -0.5047
   19MOL    H77 2633   2.138   6.980   5.429 -0.1058 -0.8059 -1.8009
   19MOL    H78 2634   2.330   6.871   5.640  1.6188  1.0573  0.1416
   19MOL    C79 2635   2.219   7.048   5.697 -0.1209  0.4014  0.4364
   19MOL    C80 2636   2.320   7.096   5.806 -0.4680  0.2297 -0.3191
   19MOL    C81 2637   2.435   7.176   5.749 -0.4364 -0.5724  0.2853
   19MOL    N82 2638   2.519   7.242   5.702 -0.0250 -0.4312  0.5523
   19MOL    H83 2639   2.179   7.138   5.650  3.0306  1.9468  0.6011
   19MOL    H84 2640   2.139   6.998   5.752 -0.0281  0.6775  0.8202
   19MOL    H85 2641   2.372   7.011   5.850  2.5130  1.4738 -1.3550
   19MOL    C86 2642   2.260   7.184   5.920 -0.0367 -0.2288  0.2376
   19MOL    C87 2643   2.194   7.111   6.039 -0.3193  0.7124 -0.3568
   19MOL    C88 2644   2.282   7.076   6.156  0.0012  0.6290  0.3972
   19MOL    N89 2645   2.356   7.042   6.239 -0.2205 -0.2895  1.0498
   19MOL    H90 2646   2.339   7.248   5.959 -1.0540  1.3071 -0.1814
   19MOL    H91 2647   2.192   7.259   5.879  1.2157  0.8655  0.1431
   19MOL    H92 2648   2.169   7.012   6.002 -0.1000  1.1184 -1.5954
   19MOL    C93 2649   2.066   7.181   6.082  0.2635 -0.5099  0.3439
   19MOL    C94 2650   1.996   7.111   6.202  0.4504  0.0004 -0.1061
   19MOL    C95 2651   2.030   7.182   6.330 -0.6262 -0.0818  0.2678
   19MOL    N96 2652   2.055   7.241   6.423  0.4127  0.3084  0.1247
   19MOL    H97 2653   2.084   7.286   6.105 -0.8546 -0.6255  1.8254
   19MOL    H98 2654   2.008   7.178   5.989  3.8856 -0.1522 -1.9992
   19MOL    H99 2655   2.042   7.015   6.224 -0.8056 -0.6218 -0.1476
   19MOL   C100 2656   1.849   7.089   6.183  0.1138  0.3784 -0.2684
   19MOL   C101 2657   1.805   6.951   6.115  0.3042 -0.1218  0.1674
   19MOL   C102 2658   1.872   6.938   5.983 -0.1681  0.3023  0.0190
   19MOL   N103 2659   1.932   6.934   5.883 -0.2748  0.2609  0.2305
   19MOL   H104 2660   1.799   7.089   6.279 -0.4342  0.5696 -0.5514
   19MOL   H105 2661   1.800   7.173   6.134  0.4117  0.9747  0.4605
   19MOL   H106 2662   1.701   6.977   6.093  0.2781  0.0454  0.4885
   19MOL   C107 2663   1.819   6.826   6.199  0.4986 -0.1709 -0.4415
   19MOL   C108 2664   1.743   6.704   6.147 -0.3567  0.6111 -0.0769
   19MOL   C109 2665   1.610   6.751   6.104 -0.2606  1.0387  0.3026
   19MOL   N110 2666   1.506   6.789   6.071 -0.3195 -0.5214  0.6669
   19MOL   H111 2667   1.926   6.811   6.210  0.5448 -0.1280 -0.8126
   19MOL   H112 2668   1.793   6.861   6.298 -0.4812 -0.0337 -0.7370
   19MOL   H113 2669   1.729   6.643   6.236 -0.3612  0.6286 -0.0658
   19MOL   C114 2670   1.815   6.622   6.040  0.2712  0.2004  0.1239
   19MOL   C115 2671   1.748   6.492   6.005  0.6070  0.3952  0.0084
   19MOL   C116 2672   1.626   6.498   5.920  0.0430  0.7935 -0.4780
   19MOL   N117 2673   1.525   6.504   5.855  0.9709  0.5744  0.5406
   19MOL   H118 2674   1.823   6.679   5.948 -0.8708 -1.4504 -1.0158
   19MOL   H119 2675   1.916   6.604   6.077  0.3143  0.6207  0.2090
   19MOL   H120 2676   1.728   6.436   6.096 -0.6155  2.1123  0.8152
   19MOL   C121 2677   1.845   6.405   5.919  0.1749  0.8069 -0.4047
   19MOL   C122 2678   1.785   6.287   5.838 -0.4076  0.2644  0.0574
   19MOL   C123 2679   1.823   6.286   5.700 -0.3586 -0.3831  1.0153
   19MOL   N124 2680   1.858   6.291   5.590  0.3188  0.3653 -0.0111
   19MOL   H125 2681   1.900   6.476   5.857 -1.5571  1.7585 -0.9076
   19MOL   H126 2682   1.923   6.374   5.987 -0.3620  0.8899  0.2582
   19MOL   H127 2683   1.676   6.295   5.833 -0.7159 -3.2674 -0.4145
   19MOL   C128 2684   1.797   6.152   5.910  0.7100 -0.2232  0.0593
   19MOL   C129 2685   1.919   6.070   5.880  0.4123 -0.0115 -0.7634
   19MOL   C130 2686   2.043   6.138   5.891 -0.4571  0.6280 -0.3716
   19MOL   N131 2687   2.144   6.191   5.901 -0.3532 -0.1159  0.2093
   19MOL   H132 2688   1.779   6.168   6.016  3.7393 -0.6973  0.6972
   19MOL   H133 2689   1.718   6.084   5.879  1.2753  0.0068 -1.9963
   19MOL   H134 2690   1.913   6.039   5.775  0.9948  1.1612 -1.1517
   19MOL   C135 2691   1.922   5.935   5.950 -0.4615 -0.0318 -0.1326
   19MOL   C136 2692   2.004   5.829   5.879  0.2221 -0.3955  0.2448
   19MOL   C137 2693   2.007   5.695   5.946 -0.7593  0.4546  0.4142
   19MOL   N138 2694   2.010   5.598   6.009 -0.0945  0.2317  0.6103
   19MOL   H139 2695   1.963   5.953   6.049 -1.1371 -0.4419  0.2236
   19MOL   H140 2696   1.818   5.902   5.955 -0.4765  0.0517  0.1134
   19MOL   H141 2697   2.107   5.861   5.861  0.0342  1.4378  2.1459
   19MOL   H142 2698   1.960   5.821   5.780  0.7482  1.6332 -0.1902
   20MOL     C1 2699   4.372   7.970   0.855  0.1275 -0.2843  0.2397
   20MOL     C2 2700   4.450   8.039   0.746 -0.3791 -0.3267  0.1138
   20MOL     C3 2701   4.592   8.044   0.791 -0.9868  0.4100  0.3016
   20MOL     N4 2702   4.698   8.049   0.833  0.3217 -0.2488  0.4011
   20MOL     H5 2703   4.267   7.972   0.828  0.4707  0.6973 -1.0688
   20MOL     H6 2704   4.384   8.017   0.952 -0.3264 -1.3677  0.8270
   20MOL     H7 2705   4.412   8.140   0.731 -2.7222 -1.1887  0.1230
   20MOL     H8 2706   4.398   7.864   0.856 -0.6561 -0.4701  2.1138
   20MOL     C9 2707   4.443   7.956   0.617 -0.1935  0.3714  0.0739
   20MOL    C10 2708   4.489   8.030   0.492  0.5774  0.6755 -0.0947
   20MOL    C11 2709   4.634   8.056   0.486 -1.0289 -0.7171  0.1306
   20MOL    N12 2710   4.749   8.079   0.479 -0.2317 -0.7435  0.7979
   20MOL    H13 2711   4.498   7.862   0.617  1.1307  1.1266  1.2114
   20MOL    H14 2712   4.344   7.916   0.599  0.0102 -0.2029  0.2237
   20MOL    H15 2713   4.448   8.131   0.495  2.2262  1.3693 -0.3951
   20MOL    C16 2714   4.427   7.961   0.365  0.2850 -0.5714  0.2267
   20MOL    C17 2715   4.441   8.052   0.242 -0.2535 -0.1141  0.1692
   20MOL    C18 2716   4.421   7.958   0.126  0.4263  0.6757  0.3897
   20MOL    N19 2717   4.413   7.882   0.040  0.2361  0.2674  0.2693
   20MOL    H20 2718   4.483   7.870   0.344  0.7459 -0.2398  0.0106
   20MOL    H21 2719   4.320   7.941   0.379  0.0440  0.2036 -0.4480
   20MOL    H22 2720   4.543   8.088   0.244 -1.0337  2.2220 -1.1835
   20MOL    C23 2721   4.335   8.168   0.239 -0.5020 -0.2224 -0.9146
   20MOL    C24 2722   4.338   8.269   0.126  0.1992  0.5444  0.1095
   20MOL    C25 2723   4.475   8.307   0.105  0.4488  0.0273  0.1394
   20MOL    N26 2724   4.583   0.026   0.082  0.2121 -0.1928 -0.3491
   20MOL    H27 2725   4.237   8.121   0.231 -1.1323  1.0062 -0.5432
   20MOL    H28 2726   4.330   8.211   0.339 -1.3721 -1.7429 -0.2946
   20MOL    H29 2727   4.281   0.044   0.157 -0.2213  1.3286 -2.6669
   20MOL    C30 2728   4.281   8.217   8.303 -0.0848 -0.5259 -0.2906
   20MOL    C31 2729   4.177   0.005   8.251  0.0655  0.3049  0.1548
   20MOL    C32 2730   4.246   0.133   8.225 -0.0298  0.8989 -0.8186
   20MOL    N33 2731   4.304   0.235   8.209  0.3087 -0.9069 -0.2049
   20MOL    H34 2732   4.365   8.211   8.235  0.6190  0.2189  0.4892
   20MOL    H35 2733   4.242   8.116   8.307  0.6556 -0.7524  2.0616
   20MOL    H36 2734   4.097   0.018   0.011 -0.6871  0.9515 -0.7963
   20MOL    C37 2735   4.090   8.273   8.129 -0.3766 -0.1819  0.7087
   20MOL    C38 2736   3.977   0.061   8.098 -0.0328 -0.1427  0.1744
   20MOL    C39 2737   4.032   0.178   8.028  0.1217 -0.3228 -0.1885
   20MOL    N40 2738   4.075   0.273   7.974 -0.0201  0.5089  0.2315
   20MOL    H41 2739   4.146   8.260   8.036 -2.0775 -1.4904 -0.1637
   20MOL    H42 2740   4.050   8.174   8.150  2.1501 -1.1606  1.0520
   20MOL    H43 2741   3.934   0.096   8.192  2.7056  0.6913  1.1542
   20MOL    C44 2742   3.856   8.311   8.009 -0.2478 -0.0694 -0.3152
   20MOL    C45 2743   3.876   8.279   7.862  0.4702  0.1636  0.2981
   20MOL    C46 2744   3.930   8.144   7.857 -0.6620  0.5480  0.5838
   20MOL    N47 2745   3.965   8.030   7.856  0.1177  0.2758 -0.5664
   20MOL    H48 2746   3.805   8.236   8.070 -0.3261  0.3852  0.1845
   20MOL    H49 2747   3.784   0.080   7.997  1.6692  1.8581  0.9698
   20MOL    H50 2748   3.948   0.035   7.817 -1.1593  2.0754  0.5484
   20MOL    C51 2749   3.750   8.301   7.771 -0.4747 -0.1011 -0.5152
   20MOL    C52 2750   3.777   8.285   7.623  0.0082 -0.3651 -0.5778
   20MOL    C53 2751   3.789   8.141   7.590 -0.0630  0.0633  0.6150
   20MOL    N54 2752   3.804   8.030   7.570  0.2147 -0.3232  0.2852
   20MOL    H55 2753   3.686   8.222   7.809 -1.3821  1.3848  1.1468
   20MOL    H56 2754   3.701   0.085   7.786  0.2628  0.0314  1.1912
   20MOL    H57 2755   3.872   0.022   7.602  0.1389  0.5943  2.0326
   20MOL    C58 2756   3.685   0.062   7.534  0.1335 -0.2470  0.5993
   20MOL    C59 2757   3.531   0.039   7.547 -0.2186 -0.3841 -0.3794
   20MOL    C60 2758   3.474   0.022   7.680  0.0957  0.1346  0.6152
   20MOL    N61 2759   3.422   0.007   7.780 -0.8728 -0.4248  0.2229
   20MOL    H62 2760   3.696   0.166   7.565 -0.4338  0.4204 -1.3721
   20MOL    H63 2761   3.708   0.068   7.428 -0.8902 -1.3128  0.3165
   20MOL    H64 2762   3.523   8.253   7.501 -0.4350  0.8095 -2.9677
   20MOL    C65 2763   3.454   0.149   7.469  0.7292  0.2569  0.7908
   20MOL    C66 2764   3.495   0.176   7.327 -0.4256 -0.2736  0.2628
   20MOL    C67 2765   3.501   0.051   7.246 -0.3532 -0.0349 -0.1033
   20MOL    N68 2766   3.498   8.261   7.185  0.6538  0.3657  0.4058
   20MOL    H69 2767   3.346   0.130   7.463  0.7963 -0.0486  0.5487
   20MOL    H70 2768   3.442   0.242   7.524  2.8788  1.0532 -0.0696
   20MOL    H71 2769   3.592   0.224   7.345 -0.0700  0.5413 -3.3743
   20MOL    C72 2770   3.411   0.293   7.265 -0.1609  0.7822  0.3017
   20MOL    C73 2771   3.407   0.437   7.323 -0.1441  0.5066 -0.0095
   20MOL    C74 2772   3.533   0.509   7.303  0.2232  0.1957 -0.6771
   20MOL    N75 2773   3.634   0.563   7.288 -0.3304  0.6311  0.2377
   20MOL    H76 2774   3.445   0.299   7.161  0.2911  0.3767  0.4248
   20MOL    H77 2775   3.311   0.251   7.256  1.0712 -2.0440 -0.6972
   20MOL    H78 2776   3.391   0.437   7.431  1.0655  1.3723  0.1811
   20MOL    C79 2777   3.291   0.528   7.283  1.2254 -0.8106  0.2816
   20MOL    C80 2778   3.304   0.687   7.303 -0.1618  0.2380 -0.7553
   20MOL    C81 2779   3.197   0.764   7.244  0.2384  0.5320  0.5015
   20MOL    N82 2780   3.110   0.827   7.198  0.5469  0.7634 -0.1498
   20MOL    H83 2781   3.272   0.506   7.178  0.7481 -0.7214  0.3482
   20MOL    H84 2782   3.197   0.497   7.330  0.3408  1.8054  0.3161
   20MOL    H85 2783   3.395   0.705   7.245  1.6663 -1.2320  1.5398
   20MOL    C86 2784   3.335   0.726   7.443 -0.6338  0.5353  0.1521
   20MOL    C87 2785   3.411   0.855   7.471  0.2579 -0.5800 -0.2107
   20MOL    C88 2786   3.318   0.971   7.501 -1.1941 -0.1361  0.2192
   20MOL    N89 2787   3.256   1.066   7.522 -0.2567  0.3343  0.3057
   20MOL    H90 2788   3.239   0.712   7.493 -0.7654 -1.9832 -0.7338
   20MOL    H91 2789   3.407   0.649   7.471 -0.1763  0.9536  0.1462
   20MOL    H92 2790   3.465   0.887   7.381  2.8031 -0.0425  1.4460
   20MOL    C93 2791   3.512   0.838   7.586  0.3515  0.2958  0.1104
   20MOL    C94 2792   3.655   0.787   7.543 -0.2108 -0.5007  0.1941
   20MOL    C95 2793   3.721   0.875   7.444  1.0667  0.4819 -0.0931
   20MOL    N96 2794   3.775   0.938   7.362  0.3212 -0.1275 -0.0530
   20MOL    H97 2795   3.526   0.930   7.642 -1.5411  1.3795 -1.1486
   20MOL    H98 2796   3.483   0.768   7.664  0.7780  0.3586  0.3261
   20MOL    H99 2797   3.625   0.699   7.487  0.7768 -0.8772  0.2494
   20MOL   C100 2798   3.754   0.755   7.659 -0.1457 -0.1920 -0.1011
   20MOL   C101 2799   3.716   0.640   7.758  0.1661 -0.4739 -0.5150
   20MOL   C102 2800   3.651   0.532   7.682 -0.5717 -0.5150  0.6926
   20MOL   N103 2801   3.599   0.448   7.618 -0.0406  0.1554 -0.8096
   20MOL   H104 2802   3.848   0.721   7.616  0.2678  0.0260  0.6144
   20MOL   H105 2803   3.780   0.846   7.713  0.3671 -0.5618  0.2833
   20MOL   H106 2804   3.650   0.689   7.829  1.4312 -0.7851  0.9130
   20MOL   C107 2805   3.835   0.577   7.832  0.3648  0.5019  0.8930
   20MOL   C108 2806   3.880   0.660   7.957  0.2253  0.4998 -0.6093
   20MOL   C109 2807   3.768   0.712   8.039 -0.1923  0.0705 -0.2185
   20MOL   N110 2808   3.678   0.754   8.101  0.0208  0.0533  0.2112
   20MOL   H111 2809   3.805   0.484   7.881 -0.6178 -0.0213 -0.6773
   20MOL   H112 2810   3.919   0.555   7.766 -0.2957 -0.1545  0.2566
   20MOL   H113 2811   3.933   0.748   7.922  0.9190  0.5867  0.6104
   20MOL   C114 2812   3.985   0.577   8.039 -0.5613 -0.6193  0.0050
   20MOL   C115 2813   4.075   0.660   8.145 -0.8789  0.2810  0.2244
   20MOL   C116 2814   4.002   0.673   8.274  0.7102  0.3423  0.3605
   20MOL   N117 2815   3.944   0.670   0.062  0.1639 -0.4424  0.5245
   20MOL   H118 2816   3.924   0.507   8.097 -1.7004 -0.3507 -0.8403
   20MOL   H119 2817   4.061   0.527   7.979 -0.0252 -0.4567  0.5447
   20MOL   H120 2818   4.090   0.753   8.089  0.1699 -0.1575 -0.2469
   20MOL   C121 2819   4.210   0.580   8.160 -0.1418  0.7523 -1.0338
   20MOL   C122 2820   4.305   0.572   8.038 -0.0789 -0.2931 -0.3823
   20MOL   C123 2821   4.261   0.660   7.934 -0.2828  0.5252  0.4990
   20MOL   N124 2822   4.220   0.730   7.855 -0.0874 -0.3594  0.2269
   20MOL   H125 2823   4.259   0.635   8.241 -0.7570  0.0316 -0.1720
   20MOL   H126 2824   4.201   0.479   8.198  0.1928  1.4226  0.8933
   20MOL   H127 2825   4.306   0.472   7.994  0.1773 -0.6260  0.3736
   20MOL   C128 2826   4.458   0.601   8.082 -0.4247  0.0116  0.3620
   20MOL   C129 2827   4.508   0.747   8.094 -0.0963 -0.0130 -0.5497
   20MOL   C130 2828   4.435   0.825   8.198 -0.4496  0.1329  0.0953
   20MOL   N131 2829   4.375   0.884   8.277  0.0414 -0.7494 -0.0322
   20MOL   H132 2830   4.466   0.544   8.174  2.1278 -1.9885 -1.0615
   20MOL   H133 2831   4.509   0.547   8.002 -1.8741 -0.5387 -0.2183
   20MOL   H134 2832   4.484   0.793   7.999  0.3743  0.0165 -0.6539
   20MOL   C135 2833   4.656   0.771   8.096  0.2692 -0.1221  1.0281
   20MOL   C136 2834   4.737   0.711   7.981 -0.1637 -0.3064  0.4899
   20MOL   C137 2835   4.864   0.785   7.955 -0.2938 -0.3113  0.0050
   20MOL   N138 2836   4.959   0.846   7.928 -0.5926  0.2381  0.6601
   20MOL   H139 2837   4.661   0.879   8.088 -2.4336  0.0259  0.7800
   20MOL   H140 2838   4.703   0.745   8.191  1.8124 -0.2747  0.2368
   20MOL   H141 2839   4.673   0.715   7.892  0.6775  0.4609 -0.0891
   20MOL   H142 2840   4.769   0.608   7.997 -1.2263 -0.7748 -0.2901
   21MOL     C1 2841   3.113   1.483   2.432  0.3482  0.5357 -0.0066
   21MOL     C2 2842   3.137   1.628   2.474 -0.1515 -0.1516 -0.0967
   21MOL     C3 2843   3.083   1.718   2.376  0.4433  0.0074  0.5268
   21MOL     N4 2844   3.034   1.787   2.300  0.2647 -0.4554  0.0086
   21MOL     H5 2845   3.172   1.414   2.492  0.1360  1.2955  1.0998
   21MOL     H6 2846   3.129   1.464   2.326 -0.7857  1.7297 -0.4039
   21MOL     H7 2847   3.245   1.637   2.461 -0.0149 -2.9777 -1.3035
   21MOL     H8 2848   3.011   1.466   2.466 -0.8283  2.3790 -2.4658
   21MOL     C9 2849   3.091   1.659   2.622 -0.1326 -0.2251  0.1577
   21MOL    C10 2850   3.189   1.591   2.728  0.0747 -0.5874  0.1623
   21MOL    C11 2851   3.337   1.622   2.715  0.1990 -0.8442 -0.3756
   21MOL    N12 2852   3.447   1.652   2.702  0.8845  0.3973  0.3691
   21MOL    H13 2853   3.086   1.767   2.634  2.0016 -0.3028  2.0948
   21MOL    H14 2854   2.992   1.620   2.645  0.6366 -2.0904  0.3808
   21MOL    H15 2855   3.187   1.482   2.715  0.4149 -0.3860 -1.6078
   21MOL    C16 2856   3.135   1.613   2.874 -0.6258 -0.1336 -0.0666
   21MOL    C17 2857   2.984   1.576   2.899 -0.3052 -0.1063 -0.2756
   21MOL    C18 2858   2.961   1.444   2.838  0.0055  0.7651  0.5942
   21MOL    N19 2859   2.945   1.336   2.794 -0.0306 -0.1869 -0.2391
   21MOL    H20 2860   3.206   1.558   2.934  0.3856  1.8535  0.6083
   21MOL    H21 2861   3.152   1.713   2.913 -3.0391 -0.0215  0.7740
   21MOL    H22 2862   2.922   1.646   2.843 -0.6978 -1.4955 -1.5988
   21MOL    C23 2863   2.935   1.598   3.044  0.4389  0.2173  0.1606
   21MOL    C24 2864   2.896   1.736   3.093 -0.0471 -0.0101  0.0095
   21MOL    C25 2865   2.757   1.746   3.049 -0.2240  0.6171  0.6975
   21MOL    N26 2866   2.651   1.753   3.008  0.0993 -0.4039  0.1180
   21MOL    H27 2867   2.863   1.518   3.060  1.4339 -1.0275 -1.3767
   21MOL    H28 2868   3.009   1.562   3.117  2.1545  2.7881 -0.2352
   21MOL    H29 2869   2.930   1.819   3.030 -2.6211  0.9875 -0.1463
   21MOL    C30 2870   2.925   1.762   3.244 -0.5135  0.1430  0.5309
   21MOL    C31 2871   2.961   1.906   3.286  0.0441  0.2626 -0.2825
   21MOL    C32 2872   3.091   1.928   3.229 -1.1140  0.1075 -0.4429
   21MOL    N33 2873   3.191   1.946   3.185  0.3341 -0.4068  0.3695
   21MOL    H34 2874   2.838   1.731   3.302 -1.4574  0.9781 -0.4280
   21MOL    H35 2875   3.017   1.706   3.264 -1.3383 -1.6298 -0.5191
   21MOL    H36 2876   2.972   1.909   3.395 -1.2485 -0.8353 -0.1161
   21MOL    C37 2877   2.871   2.016   3.233  0.3345  0.2214  0.5380
   21MOL    C38 2878   2.720   2.014   3.262  0.6723 -0.1916 -0.1691
   21MOL    C39 2879   2.686   1.979   3.402 -0.1763  0.8673 -0.3331
   21MOL    N40 2880   2.657   1.949   3.513 -0.3167 -0.3632 -0.4201
   21MOL    H41 2881   2.898   2.106   3.289  2.3037  0.2357 -0.4021
   21MOL    H42 2882   2.867   2.028   3.125 -1.7405  2.4945  0.8346
   21MOL    H43 2883   2.670   1.938   3.202 -0.4693 -1.3105  2.1597
   21MOL    C44 2884   2.648   2.145   3.216  0.5650  0.1608  0.3509
   21MOL    C45 2885   2.495   2.134   3.201 -0.2665 -0.3922  0.0419
   21MOL    C46 2886   2.439   2.266   3.161 -0.6881 -0.2786  0.2878
   21MOL    N47 2887   2.395   2.368   3.137  0.2485 -0.2597  0.3675
   21MOL    H48 2888   2.670   2.224   3.287 -1.3331 -1.1095  2.4573
   21MOL    H49 2889   2.696   2.174   3.123 -0.4319 -1.5674 -0.7372
   21MOL    H50 2890   2.458   2.120   3.303  1.7409 -2.6540  0.5051
   21MOL    C51 2891   2.437   2.030   3.106 -0.1360 -0.3674 -0.0934
   21MOL    C52 2892   2.452   2.039   2.957 -0.2208  0.1161  0.8918
   21MOL    C53 2893   2.594   2.050   2.918  0.4211 -0.5217  0.3478
   21MOL    N54 2894   2.705   2.063   2.888  0.2622  0.4863  0.3531
   21MOL    H55 2895   2.452   1.925   3.131 -0.3951 -0.0522  1.4318
   21MOL    H56 2896   2.328   2.042   3.107 -0.2226 -1.0998  3.2483
   21MOL    H57 2897   2.412   2.129   2.912 -0.2599 -0.1570  0.3826
   21MOL    C58 2898   2.390   1.909   2.888 -0.3902  0.3506  0.0273
   21MOL    C59 2899   2.452   1.868   2.752  0.6299  0.7630  0.8214
   21MOL    C60 2900   2.385   1.745   2.694  0.2078 -0.6355  0.1255
   21MOL    N61 2901   2.342   1.652   2.650 -0.5581  0.0218  0.1976
   21MOL    H62 2902   2.387   1.821   2.952 -1.5492  1.3609  1.4136
   21MOL    H63 2903   2.285   1.939   2.887 -1.0557 -1.9666 -1.1183
   21MOL    H64 2904   2.557   1.844   2.771  0.6245  1.9335  2.4741
   21MOL    C65 2905   2.445   1.978   2.645  0.0389 -0.1932 -0.9842
   21MOL    C66 2906   2.486   1.933   2.501  0.7189  0.3777 -0.2122
   21MOL    C67 2907   2.377   1.946   2.406 -0.1210  0.2624 -0.0027
   21MOL    N68 2908   2.296   1.961   2.324  0.8638  0.0499  0.0778
   21MOL    H69 2909   2.342   2.014   2.653  0.1645 -0.2362  1.1524
   21MOL    H70 2910   2.501   2.067   2.673 -1.4047  0.1658  0.8979
   21MOL    H71 2911   2.520   1.829   2.502  1.2168  0.5347 -0.5847
   21MOL    C72 2912   2.613   2.007   2.454  0.2814 -0.1796  1.0142
   21MOL    C73 2913   2.739   1.976   2.533 -0.1817  0.0715 -0.1233
   21MOL    C74 2914   2.754   1.835   2.551  0.4069 -0.1735  0.3325
   21MOL    N75 2915   2.763   1.721   2.578 -0.3144 -0.0318 -0.8533
   21MOL    H76 2916   2.634   1.985   2.349  0.4688  3.8089  0.1192
   21MOL    H77 2917   2.600   2.115   2.460  0.9114  0.0100 -0.6180
   21MOL    H78 2918   2.720   2.031   2.625 -3.7703  0.4061 -0.9986
   21MOL    C79 2919   2.865   2.051   2.486 -0.0968 -0.5318 -0.4629
   21MOL    C80 2920   2.962   2.095   2.600 -0.2374 -0.4955 -0.2607
   21MOL    C81 2921   2.973   1.999   2.709 -0.4108 -0.4877 -0.1051
   21MOL    N82 2922   2.982   1.919   2.796 -0.1800 -0.0682  0.2193
   21MOL    H83 2923   2.928   1.986   2.427  1.7452  1.0373 -0.2641
   21MOL    H84 2924   2.836   2.130   2.417 -1.6672 -0.0988  0.6409
   21MOL    H85 2925   2.920   2.187   2.641 -0.0859 -0.3016 -0.5357
   21MOL    C86 2926   3.102   2.126   2.550  0.4962  0.6532 -0.3080
   21MOL    C87 2927   3.127   2.233   2.445  0.1489 -0.4335 -0.0523
   21MOL    C88 2928   3.117   2.365   2.507  0.0180 -0.1788 -0.4827
   21MOL    N89 2929   3.114   2.469   2.560  1.1883  0.4705 -0.8239
   21MOL    H90 2930   3.152   2.147   2.645  0.8175 -0.9125 -0.1087
   21MOL    H91 2931   3.147   2.031   2.521 -1.5798 -1.7485  3.7890
   21MOL    H92 2932   3.040   2.227   2.380 -1.1879  1.0103  1.5381
   21MOL    C93 2933   3.260   2.213   2.366  0.8278  0.7114  0.2264
   21MOL    C94 2934   3.277   2.279   2.220 -0.0757  0.3557 -0.8944
   21MOL    C95 2935   3.169   2.246   2.125 -0.1175 -0.0627 -0.3321
   21MOL    N96 2936   3.089   2.223   2.051 -0.5234 -0.3878 -0.3650
   21MOL    H97 2937   3.338   2.257   2.429  0.8522  1.0049 -0.0065
   21MOL    H98 2938   3.282   2.107   2.350 -1.1468  0.7905 -3.4017
   21MOL    H99 2939   3.357   2.232   2.163 -0.9548 -2.0515 -0.2386
   21MOL   C100 2940   3.280   2.429   2.207 -0.1704 -0.2548  0.8955
   21MOL   C101 2941   3.417   2.500   2.223 -0.4105  0.3111  0.3465
   21MOL   C102 2942   3.496   2.477   2.104 -0.5844  0.2641 -0.8386
   21MOL   N103 2943   3.553   2.458   2.005 -0.6668  0.0319 -0.1625
   21MOL   H104 2944   3.231   2.467   2.117 -0.4510  0.2650  1.2616
   21MOL   H105 2945   3.219   2.470   2.288 -1.6313 -1.8302  0.5970
   21MOL   H106 2946   3.478   2.463   2.306 -0.8798 -0.2968  0.4278
   21MOL   C107 2947   3.397   2.654   2.251 -0.7970  0.6174  0.0717
   21MOL   C108 2948   3.314   2.685   2.383 -0.4565 -0.8835  0.2042
   21MOL   C109 2949   3.381   2.611   2.494 -0.1934  0.4671  0.0515
   21MOL   N110 2950   3.432   2.558   2.579 -0.3189 -0.1531 -1.4713
   21MOL   H111 2951   3.490   2.709   2.239 -0.0912 -0.3217  1.0892
   21MOL   H112 2952   3.346   2.700   2.166  1.4141 -0.5609 -1.9792
   21MOL   H113 2953   3.215   2.639   2.379 -0.0089 -1.9527  1.0402
   21MOL   C114 2954   3.303   2.841   2.404  0.6208  0.7737  0.0766
   21MOL   C115 2955   3.214   2.899   2.523  0.6509  0.2837 -0.6822
   21MOL   C116 2956   3.070   2.904   2.493  0.3324  0.9005 -0.4386
   21MOL   N117 2957   2.956   2.908   2.468  0.3540 -0.0936 -0.0082
   21MOL   H118 2958   3.401   2.889   2.409  0.7174  0.4271  2.3537
   21MOL   H119 2959   3.251   2.882   2.318  0.0111  0.0956  0.1154
   21MOL   H120 2960   3.233   3.005   2.540  1.3227 -0.1664  1.5847
   21MOL   C121 2961   3.239   2.828   2.659  0.0856  0.6078  0.7508
   21MOL   C122 2962   3.376   2.845   2.732 -0.3312 -0.5396  0.2022
   21MOL   C123 2963   3.403   2.985   2.776  0.2864  1.0770  0.0018
   21MOL   N124 2964   3.434   3.093   2.805  1.1329  0.3119  0.4906
   21MOL   H125 2965   3.162   2.854   2.732 -0.1814 -3.2450  1.9847
   21MOL   H126 2966   3.223   2.722   2.641  0.4308  0.6720  0.0500
   21MOL   H127 2967   3.453   2.823   2.658  0.7232 -0.4071  1.2273
   21MOL   C128 2968   3.406   2.745   2.849  0.3475 -0.2505 -0.5331
   21MOL   C129 2969   3.285   2.724   2.951 -0.2207  0.4113 -0.2005
   21MOL   C130 2970   3.238   2.843   3.020  0.2542  0.3283 -0.4566
   21MOL   N131 2971   3.197   2.937   3.069 -0.1924  0.5286 -0.2698
   21MOL   H132 2972   3.443   2.651   2.808  0.2296 -0.0261 -1.1631
   21MOL   H133 2973   3.494   2.777   2.905  0.6466  1.3685 -1.8817
   21MOL   H134 2974   3.341   2.673   3.028 -0.7121 -1.1404 -0.8523
   21MOL   C135 2975   3.174   2.626   2.911 -0.5285  0.1964  0.1127
   21MOL   C136 2976   3.222   2.484   2.872 -0.6097  0.1575 -0.1461
   21MOL   C137 2977   3.104   2.394   2.869 -0.2266 -0.3928 -0.5613
   21MOL   N138 2978   3.009   2.326   2.870 -0.2853 -0.5286  0.0340
   21MOL   H139 2979   3.108   2.610   2.996 -0.4297  0.8605  0.3165
   21MOL   H140 2980   3.122   2.664   2.823 -0.4336  0.1501  0.0356
   21MOL   H141 2981   3.293   2.435   2.939 -1.9160 -0.7472  0.5838
   21MOL   H142 2982   3.261   2.481   2.770 -0.4509  1.0877 -0.1177
   22MOL     C1 2983   8.256   5.519   2.016  0.0809  0.1885 -0.0975
   22MOL     C2 2984   0.040   5.415   1.947 -0.1787  0.5422  0.5511
   22MOL     C3 2985   0.008   5.405   1.807 -0.6521  0.2621 -0.2075
   22MOL     N4 2986   8.291   5.406   1.691 -0.7731  0.0503  0.1731
   22MOL     H5 2987   8.152   5.490   2.001 -0.1990  1.5795 -0.9987
   22MOL     H6 2988   8.266   5.620   1.975 -1.0796 -0.5475 -2.2981
   22MOL     H7 2989   0.012   5.318   1.987  0.1320  0.2499  0.0670
   22MOL     H8 2990   8.288   5.521   2.120  2.8166 -0.3295 -0.8968
   22MOL     C9 2991   0.192   5.442   1.974 -0.1197 -0.1503 -0.4981
   22MOL    C10 2992   0.292   5.330   1.964  0.1886 -0.4876  0.1906
   22MOL    C11 2993   0.328   5.305   1.826  0.2168 -0.1442  0.0706
   22MOL    N12 2994   0.357   5.293   1.716 -0.3281 -0.5775  0.4953
   22MOL    H13 2995   0.222   5.528   1.916 -0.2193 -0.8376 -1.5814
   22MOL    H14 2996   0.206   5.477   2.076  1.6561 -0.3886 -0.6527
   22MOL    H15 2997   0.244   5.241   2.004 -1.7637 -0.1275 -1.2720
   22MOL    C16 2998   0.420   5.353   2.046  0.7286  0.6317  0.1744
   22MOL    C17 2999   0.506   5.472   2.007 -0.2693 -0.0642 -0.0705
   22MOL    C18 3000   0.449   5.602   1.996  0.2509  0.2288  0.7711
   22MOL    N19 3001   0.402   5.708   1.996 -0.4560 -0.5213 -0.4211
   22MOL    H20 3002   0.395   5.362   2.152  0.3845  1.5706  0.0212
   22MOL    H21 3003   0.477   5.261   2.035 -0.2665 -0.1431  1.3193
   22MOL    H22 3004   0.541   5.461   1.905 -1.8137  2.2937 -0.8876
   22MOL    C23 3005   0.628   5.481   2.101  0.6496 -0.0577 -0.7236
   22MOL    C24 3006   0.591   5.526   2.249 -0.1618 -0.1443  0.6177
   22MOL    C25 3007   0.548   5.414   2.335 -0.1597 -0.2244 -0.5224
   22MOL    N26 3008   0.510   5.324   2.402 -0.1608 -0.3537  0.2591
   22MOL    H27 3009   0.685   5.388   2.107 -1.9589 -1.7462 -1.4859
   22MOL    H28 3010   0.692   5.558   2.058 -0.5882  1.2932 -0.1493
   22MOL    H29 3011   0.497   5.580   2.239  0.2579  0.3834 -0.7346
   22MOL    C30 3012   0.697   5.610   2.322 -0.6404  0.4707  0.4088
   22MOL    C31 3013   0.681   5.629   2.473 -0.2249 -0.1984  0.5694
   22MOL    C32 3014   0.804   5.683   2.534  0.0815 -0.2713 -0.0241
   22MOL    N33 3015   0.904   5.711   2.581 -0.1044 -0.0946  0.1060
   22MOL    H34 3016   0.786   5.548   2.315 -0.7175  0.2252  1.4925
   22MOL    H35 3017   0.711   5.706   2.272 -0.8179 -0.0477 -0.6412
   22MOL    H36 3018   0.688   5.533   2.524  0.7157 -0.0015  0.8101
   22MOL    C37 3019   0.555   5.718   2.521 -0.6875 -0.2579 -0.0544
   22MOL    C38 3020   0.540   5.748   2.677 -0.3926 -0.4367  0.0322
   22MOL    C39 3021   0.397   5.781   2.703  0.4729 -0.3459 -0.1578
   22MOL    N40 3022   0.285   5.809   2.719 -0.4195 -0.2223  0.7167
   22MOL    H41 3023   0.563   5.817   2.477  2.5617  0.2945  1.5950
   22MOL    H42 3024   0.461   5.670   2.497 -0.4723 -0.2965 -0.8432
   22MOL    H43 3025   0.599   5.834   2.710  0.7326 -0.4949 -1.7771
   22MOL    C44 3026   0.579   5.631   2.772 -0.5182 -0.3756 -0.5665
   22MOL    C45 3027   0.589   5.673   2.923  0.1621  0.2517  0.3421
   22MOL    C46 3028   0.552   5.573   3.019  0.8379 -0.0427 -0.0351
   22MOL    N47 3029   0.521   5.495   3.105 -0.3786  0.1301 -0.2291
   22MOL    H48 3030   0.492   5.565   2.776  0.0575 -1.0370  1.7655
   22MOL    H49 3031   0.668   5.573   2.747 -0.7547 -0.2355 -1.7585
   22MOL    H50 3032   0.519   5.756   2.936  1.6640  1.6725 -0.4816
   22MOL    C51 3033   0.731   5.734   2.962 -0.0284 -0.0412 -0.7843
   22MOL    C52 3034   0.832   5.654   3.055  0.9519  0.6037  0.5596
   22MOL    C53 3035   0.889   5.530   2.984  0.1267  0.0233 -0.3598
   22MOL    N54 3036   0.931   5.434   2.934 -0.4500  0.3371  0.6714
   22MOL    H55 3037   0.788   5.762   2.874  0.5583 -1.1548 -0.7695
   22MOL    H56 3038   0.711   5.830   3.010  0.0236 -0.3394 -0.1633
   22MOL    H57 3039   0.772   5.631   3.143  0.2276 -2.3359 -0.6542
   22MOL    C58 3040   0.946   5.750   3.095  0.1583 -0.2594 -0.1866
   22MOL    C59 3041   1.050   5.724   3.203 -0.1799  0.8640 -0.8152
   22MOL    C60 3042   0.971   5.702   3.325  0.5705 -0.1119  0.2570
   22MOL    N61 3043   0.915   5.681   3.426 -0.9530 -0.1344  0.5570
   22MOL    H62 3044   0.995   5.780   3.003  1.5804 -2.3585 -0.1372
   22MOL    H63 3045   0.889   5.838   3.125  0.0785 -1.0354  2.0736
   22MOL    H64 3046   1.090   5.822   3.228 -1.8365  1.4807 -0.4694
   22MOL    C65 3047   1.172   5.628   3.170  0.3153  1.0194 -0.3451
   22MOL    C66 3048   1.288   5.628   3.268  0.2920 -0.2981 -0.3342
   22MOL    C67 3049   1.249   5.579   3.399  0.1617  0.8092 -0.3009
   22MOL    N68 3050   1.224   5.549   3.503  0.3710  0.6376 -0.4953
   22MOL    H69 3051   1.137   5.526   3.153  0.2673  1.1182 -0.8456
   22MOL    H70 3052   1.206   5.653   3.070  0.3197  0.2271 -0.5488
   22MOL    H71 3053   1.305   5.735   3.278 -1.2745 -0.0283 -0.3850
   22MOL    C72 3054   1.413   5.554   3.211 -0.1503  0.2266 -0.2444
   22MOL    C73 3055   1.521   5.646   3.162 -0.4410 -1.1242 -0.2570
   22MOL    C74 3056   1.567   5.741   3.267 -0.0734  0.1144  0.3875
   22MOL    N75 3057   1.596   5.813   3.349 -0.1499 -0.0050 -0.7872
   22MOL    H76 3058   1.449   5.493   3.294 -3.2552 -0.9807  0.2914
   22MOL    H77 3059   1.378   5.497   3.125  0.1319 -1.4288  0.7076
   22MOL    H78 3060   1.470   5.710   3.090  1.0790  0.3202 -0.0689
   22MOL    C79 3061   1.633   5.593   3.073  0.8970  0.2361 -0.2129
   22MOL    C80 3062   1.721   5.700   3.007  0.2873  0.1729  0.1399
   22MOL    C81 3063   1.813   5.755   3.110  0.0543 -0.0199  0.2481
   22MOL    N82 3064   1.890   5.796   3.186 -0.1544  0.4227  0.4840
   22MOL    H83 3065   1.688   5.516   3.128 -1.2821 -0.1785  1.4475
   22MOL    H84 3066   1.582   5.549   2.988  1.1116  2.3523 -1.4840
   22MOL    H85 3067   1.663   5.782   2.965 -0.4997 -0.0936  0.6923
   22MOL    C86 3068   1.794   5.645   2.887 -0.3276 -0.5924  0.2747
   22MOL    C87 3069   1.881   5.736   2.808 -0.9673  0.0626 -0.7299
   22MOL    C88 3070   1.814   5.862   2.777  0.3361  0.2838 -0.6764
   22MOL    N89 3071   1.755   5.955   2.747 -0.3372  0.0823 -0.3389
   22MOL    H90 3072   1.853   5.557   2.912  1.1647  0.5270  0.7373
   22MOL    H91 3073   1.718   5.603   2.821 -2.9664  2.3276  1.3244
   22MOL    H92 3074   1.897   5.699   2.706  0.9009 -0.8067 -0.1504
   22MOL    C93 3075   2.024   5.756   2.865  0.4745 -0.0385 -0.5016
   22MOL    C94 3076   2.117   5.868   2.804  0.1725  0.0886 -0.4046
   22MOL    C95 3077   2.114   5.863   2.659  0.1967 -0.7738  0.3745
   22MOL    N96 3078   2.112   5.863   2.547  0.1697  0.0226  0.1734
   22MOL    H97 3079   2.028   5.775   2.972  0.6481 -0.3189 -0.4584
   22MOL    H98 3080   2.074   5.660   2.861  1.0492  0.1955  0.9787
   22MOL    H99 3081   2.218   5.832   2.824  0.4060  0.7888 -0.3257
   22MOL   C100 3082   2.086   6.009   2.857  0.3985 -0.1473 -1.0743
   22MOL   C101 3083   2.160   6.130   2.796  0.0548 -0.3449  0.0693
   22MOL   C102 3084   2.303   6.120   2.769  0.3998  0.1902  0.1281
   22MOL   N103 3085   2.415   6.104   2.740 -0.1180  0.3597 -0.7806
   22MOL   H104 3086   1.982   6.029   2.882  0.7143  0.6024 -0.3148
   22MOL   H105 3087   2.131   5.999   2.955  0.2686  0.2914 -0.9669
   22MOL   H106 3088   2.148   6.203   2.876 -0.1826  1.3946 -1.5227
   22MOL   C107 3089   2.068   6.211   2.691 -0.3071 -0.3712  0.2299
   22MOL   C108 3090   2.133   6.327   2.619 -0.2010 -0.1911 -0.1106
   22MOL   C109 3091   2.053   6.375   2.510 -0.0255 -0.4125  0.6795
   22MOL   N110 3092   1.989   6.416   2.423  0.2380  0.6730 -0.9543
   22MOL   H111 3093   2.024   6.151   2.612  2.3518 -0.5559 -1.1736
   22MOL   H112 3094   1.981   6.250   2.743 -0.4937  0.3191 -0.5900
   22MOL   H113 3095   2.224   6.277   2.586 -0.5546 -0.7820 -0.1988
   22MOL   C114 3096   2.180   6.442   2.720  0.3711 -0.1602 -0.6602
   22MOL   C115 3097   2.281   6.551   2.671  0.6069  0.4364  0.3471
   22MOL   C116 3098   2.226   6.616   2.553 -0.7568 -0.5023  0.0265
   22MOL   N117 3099   2.187   6.669   2.458  0.0882 -0.2478 -0.2436
   22MOL   H118 3100   2.100   6.501   2.763 -1.7630 -1.1930 -3.0798
   22MOL   H119 3101   2.218   6.405   2.815 -0.0439 -1.1701 -0.8807
   22MOL   H120 3102   2.377   6.517   2.632  0.8482  1.6877 -0.1454
   22MOL   C121 3103   2.298   6.653   2.784 -0.5576  0.2440  0.3787
   22MOL   C122 3104   2.389   6.773   2.760 -0.2315 -0.4008  0.1825
   22MOL   C123 3105   2.370   6.866   2.870 -0.2206 -0.1828 -0.8494
   22MOL   N124 3106   2.361   6.939   2.958 -0.2645 -0.4143  0.3174
   22MOL   H125 3107   2.203   6.700   2.809 -1.0350 -0.8497  0.6430
   22MOL   H126 3108   2.331   6.612   2.879 -0.3587 -0.0473  0.1836
   22MOL   H127 3109   2.352   6.842   2.685 -0.0967 -0.6838 -0.1482
   22MOL   C128 3110   2.539   6.748   2.731  0.0931 -0.1453  0.8779
   22MOL   C129 3111   2.644   6.783   2.840 -0.0780 -0.3177 -0.1682
   22MOL   C130 3112   2.630   6.683   2.946 -0.3896  0.0510 -0.1940
   22MOL   N131 3113   2.622   6.603   3.029 -0.1962 -0.5873  0.5990
   22MOL   H132 3114   2.549   6.644   2.702 -0.3205  0.2698 -0.8189
   22MOL   H133 3115   2.564   6.807   2.643  1.9638  2.2663  2.9593
   22MOL   H134 3116   2.616   6.881   2.878 -1.5238 -0.9644  0.4729
   22MOL   C135 3117   2.786   6.786   2.783 -0.1766 -0.5225  0.5201
   22MOL   C136 3118   2.890   6.823   2.890  0.6991 -0.2790  0.3259
   22MOL   C137 3119   3.020   6.871   2.836  0.6389  0.2626 -0.2870
   22MOL   N138 3120   3.121   6.904   2.790  0.3275  0.1930 -0.3365
   22MOL   H139 3121   2.810   6.681   2.764 -0.6611 -0.7055  0.9130
   22MOL   H140 3122   2.798   6.858   2.701  2.0245 -0.6823  0.6835
   22MOL   H141 3123   2.908   6.741   2.960  0.4874 -1.2751 -0.7667
   22MOL   H142 3124   2.847   6.901   2.953 -0.4792 -0.8681  0.2600
   23MOL     C1 3125   3.113   1.721   8.050  0.8095 -0.3765 -0.3937
   23MOL     C2 3126   3.215   1.684   7.943 -0.3927 -0.6395  0.0545
   23MOL     C3 3127   3.354   1.706   7.985 -0.4898  0.4691  0.0039
   23MOL     N4 3128   3.467   1.729   8.010  0.1761  0.1375 -0.6839
   23MOL     H5 3129   3.107   1.830   8.055  1.8232 -0.3694  0.8654
   23MOL     H6 3130   3.145   1.678   8.145  2.6784 -0.6676 -1.1392
   23MOL     H7 3131   3.210   1.752   7.858  2.4551  0.8465  1.0049
   23MOL     H8 3132   3.014   1.685   8.020  0.7441  1.3880 -2.4039
   23MOL     C9 3133   3.200   1.548   7.883 -0.2212  0.0518  0.4149
   23MOL    C10 3134   3.208   1.423   7.981  0.2396  0.1413  0.0336
   23MOL    C11 3135   3.091   1.410   8.071  0.4946 -0.3741  0.2792
   23MOL    N12 3136   3.000   1.396   8.139 -0.5614 -0.2917 -0.1684
   23MOL    H13 3137   3.105   1.547   7.830  1.5718  1.4768 -3.0047
   23MOL    H14 3138   3.268   1.531   7.799 -1.0982 -0.3517 -0.2175
   23MOL    H15 3139   3.294   1.446   8.045  0.8379 -1.0960 -0.3179
   23MOL    C16 3140   3.238   1.296   7.902 -0.3252  1.0379  0.1210
   23MOL    C17 3141   3.333   1.199   7.977  1.0731 -0.1194  0.4272
   23MOL    C18 3142   3.328   1.066   7.911 -0.0435  0.1764  0.2656
   23MOL    N19 3143   3.317   0.964   7.856 -0.1595 -0.0601  0.7829
   23MOL    H20 3144   3.147   1.247   7.869  0.9812 -1.4250  0.0607
   23MOL    H21 3145   3.308   1.315   7.820  1.1066 -1.1501  0.7772
   23MOL    H22 3146   3.282   1.184   8.072  1.6449 -4.1065  0.1916
   23MOL    C23 3147   3.480   1.261   7.985 -0.1070  0.0252  0.2332
   23MOL    C24 3148   3.583   1.164   8.052  0.0815  0.6163 -0.5370
   23MOL    C25 3149   3.649   1.077   7.954 -0.5210 -0.3583 -0.6713
   23MOL    N26 3150   3.706   1.014   7.881  0.2934 -0.0505  0.0500
   23MOL    H27 3151   3.522   1.285   7.888 -1.0214 -0.4517 -0.2805
   23MOL    H28 3152   3.479   1.345   8.054  1.8278  0.2455  0.0432
   23MOL    H29 3153   3.524   1.095   8.113  1.2843 -0.3969 -0.5108
   23MOL    C30 3154   3.684   1.240   8.148  0.2491  0.6748  0.3806
   23MOL    C31 3155   3.771   1.158   8.247  0.5036 -0.1827  0.8501
   23MOL    C32 3156   3.865   1.058   8.187 -0.4342  0.4410 -0.5723
   23MOL    N33 3157   3.933   0.981   8.137  0.2256 -0.6806 -0.2145
   23MOL    H34 3158   3.750   1.289   8.076 -1.3853  0.3148 -1.3994
   23MOL    H35 3159   3.635   1.312   8.213  0.7302  0.1886  1.2972
   23MOL    H36 3160   3.706   1.095   8.308  0.4449  0.6716  1.6772
   23MOL    C37 3161   3.857   1.250   0.031 -0.1975  0.7191  0.0590
   23MOL    C38 3162   3.836   1.210   0.184  0.6038  0.2732 -0.1964
   23MOL    C39 3163   3.701   1.253   0.235  0.5834  0.0814  0.1022
   23MOL    N40 3164   3.602   1.295   0.275 -0.3358 -0.2679  0.7134
   23MOL    H41 3165   3.964   1.257   0.014 -0.0399  1.1554  1.1381
   23MOL    H42 3166   3.812   1.348   0.017 -0.6661  0.5776  0.5291
   23MOL    H43 3167   3.901   1.276   0.241  3.2070 -0.4360 -2.2258
   23MOL    C44 3168   3.873   1.060   0.220  0.0703  0.2749  0.0973
   23MOL    C45 3169   3.938   1.039   0.359 -0.1779 -0.5625  0.1568
   23MOL    C46 3170   3.864   1.102   0.467 -0.0875 -1.0072 -0.6147
   23MOL    N47 3171   3.818   1.153   0.556 -0.3163 -0.2782 -0.1098
   23MOL    H48 3172   3.778   1.006   0.219  0.3797 -0.3514  2.2591
   23MOL    H49 3173   3.942   1.016   0.149 -0.4113 -0.8711  0.3329
   23MOL    H50 3174   4.031   1.095   0.350 -1.1740  0.8160 -1.9858
   23MOL    C51 3175   3.971   0.891   0.400 -0.3868 -0.1075 -0.6579
   23MOL    C52 3176   3.866   0.811   0.492 -0.3197 -0.9316 -0.0323
   23MOL    C53 3177   3.745   0.766   0.419 -0.1917 -0.2552 -0.1431
   23MOL    N54 3178   3.653   0.727   0.355  0.4781 -0.2073  0.0094
   23MOL    H55 3179   3.991   0.824   0.316  0.8021 -2.4197  1.4155
   23MOL    H56 3180   4.067   0.896   0.451 -0.0337 -0.5178 -1.2838
   23MOL    H57 3181   3.813   0.879   0.558  0.1722 -0.9165  0.3439
   23MOL    C58 3182   3.928   0.698   0.573 -0.0369  0.6923 -0.3639
   23MOL    C59 3183   3.841   0.659   0.692 -0.4642 -0.1998  0.4337
   23MOL    C60 3184   3.842   0.515   0.745  0.5003 -0.8815 -0.0274
   23MOL    N61 3185   3.846   0.407   0.784 -0.4130  0.1849 -0.4057
   23MOL    H62 3186   3.934   0.614   0.503  0.3394 -1.0783  1.7499
   23MOL    H63 3187   4.028   0.728   0.603  0.1521 -0.6728  0.3964
   23MOL    H64 3188   3.740   0.683   0.659 -0.1626  0.4069 -0.0472
   23MOL    C65 3189   3.855   0.768   0.804  0.1554  0.4873  0.2994
   23MOL    C66 3190   3.768   0.748   0.929 -0.6772 -0.4269  0.9115
   23MOL    C67 3191   3.648   0.674   0.894  0.2374  0.5833  0.8690
   23MOL    N68 3192   3.555   0.611   0.862  0.2504 -0.8320 -0.5097
   23MOL    H69 3193   3.961   0.778   0.827 -0.0580  3.7710  0.2106
   23MOL    H70 3194   3.820   0.861   0.758 -1.2399 -0.4923 -0.6553
   23MOL    H71 3195   3.728   0.847   0.951 -0.6680 -0.0994 -0.5079
   23MOL    C72 3196   3.851   0.686   1.047 -0.0505  0.9246 -0.1994
   23MOL    C73 3197   3.765   0.656   1.172  0.0196  1.0177  0.2350
   23MOL    C74 3198   3.661   0.759   1.202 -0.2153 -0.6417  0.3860
   23MOL    N75 3199   3.589   0.844   1.223 -0.0772 -0.7469  0.1872
   23MOL    H76 3200   3.888   0.588   1.017 -0.5755  0.8413 -0.5914
   23MOL    H77 3201   3.943   0.739   1.069  0.2818  0.6826 -0.9971
   23MOL    H78 3202   3.830   0.656   1.259 -0.7096 -2.7830  0.8318
   23MOL    C79 3203   3.688   0.519   1.181 -0.4391 -0.8519  0.1079
   23MOL    C80 3204   3.757   0.392   1.132  0.1346  0.3692  0.3737
   23MOL    C81 3205   3.896   0.400   1.183  0.2158  0.3534 -0.2954
   23MOL    N82 3206   4.005   0.410   1.230  0.2288 -0.2196 -0.0979
   23MOL    H83 3207   3.677   0.512   1.289 -0.6073  1.4355  0.2493
   23MOL    H84 3208   3.592   0.528   1.129  0.5591 -1.4794 -1.9228
   23MOL    H85 3209   3.755   0.392   1.023 -0.5652  1.6526  0.3835
   23MOL    C86 3210   3.685   0.269   1.188  0.3281  1.1157 -0.0069
   23MOL    C87 3211   3.544   0.230   1.134 -1.1955  0.4166 -0.0533
   23MOL    C88 3212   3.438   0.310   1.200 -0.5186  0.1613 -0.6080
   23MOL    N89 3213   3.360   0.371   1.257  0.1261  0.4017  0.0093
   23MOL    H90 3214   3.757   0.187   1.181  1.0200  1.8443 -1.6869
   23MOL    H91 3215   3.669   0.285   1.294 -0.7373 -3.0361  0.5618
   23MOL    H92 3216   3.530   0.123   1.152 -0.8024  0.6981  2.0114
   23MOL    C93 3217   3.536   0.259   0.987 -1.0449 -0.2250  0.0583
   23MOL    C94 3218   3.417   0.208   0.910  0.2493  0.4118 -0.2256
   23MOL    C95 3219   3.288   0.208   0.976 -0.3125  0.2067  0.4805
   23MOL    N96 3220   3.182   0.214   1.031 -0.1235  0.6313  0.2724
   23MOL    H97 3221   3.538   0.368   0.977  2.7174  0.2418  4.1934
   23MOL    H98 3222   3.619   0.212   0.935  0.2490  1.7477  0.2755
   23MOL    H99 3223   3.432   0.100   0.901 -2.5764 -0.1239  0.9148
   23MOL   C100 3224   3.411   0.271   0.768  0.1111 -0.2365 -0.2353
   23MOL   C101 3225   3.304   0.213   0.675  0.3369  0.5422  0.0106
   23MOL   C102 3226   3.177   0.276   0.694  0.0212  0.3791  0.0003
   23MOL   N103 3227   3.075   0.331   0.713  0.3159 -0.1882 -0.0429
   23MOL   H104 3228   3.417   0.379   0.778 -0.3722 -0.1324 -0.9907
   23MOL   H105 3229   3.506   0.252   0.718  1.4939  0.2066  2.1441
   23MOL   H106 3230   3.296   0.106   0.697 -0.4405  0.6736  0.3676
   23MOL   C107 3231   3.352   0.224   0.521  0.3785  0.0327 -0.7755
   23MOL   C108 3232   3.488   0.144   0.485  0.0450  0.1738  0.2891
   23MOL   C109 3233   3.484   8.311   0.524 -0.0517  0.3296  0.0501
   23MOL   N110 3234   3.484   8.198   0.552  0.5082  0.0250 -0.0117
   23MOL   H111 3235   3.261   0.190   0.471 -0.0404  1.0827 -0.7281
   23MOL   H112 3236   3.366   0.327   0.491 -1.5507  0.6884  0.4768
   23MOL   H113 3237   3.584   0.167   0.530  1.0482 -1.1038 -1.1153
   23MOL   C114 3238   3.511   0.150   0.334 -0.0318 -0.2665 -0.6653
   23MOL   C115 3239   3.546   0.285   0.280  0.0535  1.5166 -0.2954
   23MOL   C116 3240   3.634   0.363   0.368  0.4999 -0.3761  0.6879
   23MOL   N117 3241   3.701   0.424   0.439  0.1279  0.1347 -0.8366
   23MOL   H118 3242   3.586   0.077   0.306  0.8020  1.7914 -4.0774
   23MOL   H119 3243   3.427   0.116   0.274  0.7552 -1.2657 -1.2180
   23MOL   H120 3244   3.452   0.341   0.283  0.4746  2.2118 -0.0646
   23MOL   C121 3245   3.600   0.285   0.138  0.5163 -0.4310  0.4190
   23MOL   C122 3246   3.663   0.416   0.085  0.0143  0.0746  0.6630
   23MOL   C123 3247   3.692   0.391   8.255  0.0154 -0.0108  0.1064
   23MOL   N124 3248   3.718   0.371   8.145 -0.5111 -0.1305  0.8771
   23MOL   H125 3249   3.664   0.199   0.117  0.5503 -0.1525 -0.6915
   23MOL   H126 3250   3.505   0.276   0.083 -0.1516  2.6995  0.9699
   23MOL   H127 3251   3.757   0.438   0.135  0.2910  1.5103 -0.4730
   23MOL   C128 3252   3.587   0.547   0.097  0.0029 -0.5373  0.8287
   23MOL   C129 3253   3.466   0.565   0.007 -0.6368 -0.9183 -0.2040
   23MOL   C130 3254   3.344   0.483   0.033 -0.2627 -1.0906 -0.0337
   23MOL   N131 3255   3.252   0.419   0.053  0.2799 -0.2289 -0.4468
   23MOL   H132 3256   3.552   0.562   0.199 -1.6783 -0.9993  0.3482
   23MOL   H133 3257   3.652   0.634   0.091  0.7379 -1.2383 -2.3117
   23MOL   H134 3258   3.501   0.547   8.218  1.4787  3.2710 -0.3114
   23MOL   C135 3259   3.416   0.708   0.010 -0.5767 -0.3564 -0.2208
   23MOL   C136 3260   3.344   0.747   8.191 -0.0093 -0.1181  0.4209
   23MOL   C137 3261   3.256   0.867   8.203  1.1460  0.2539 -0.0535
   23MOL   N138 3262   3.188   0.965   8.211  0.2935  0.7196 -0.1443
   23MOL   H139 3263   3.357   0.733   0.099 -0.1939 -0.9522  0.2036
   23MOL   H140 3264   3.499   0.777   0.027  0.8577 -1.4460 -2.5991
   23MOL   H141 3265   3.269   0.671   8.170 -0.7082  1.1510 -1.8496
   23MOL   H142 3266   3.414   0.766   8.110  0.6114  0.5150  1.0990
   24MOL     C1 3267   3.304   7.461   7.674  0.3070  0.2879 -0.5475
   24MOL     C2 3268   3.432   7.393   7.607 -0.0021 -0.1676  0.0601
   24MOL     C3 3269   3.395   7.295   7.505  0.2006 -0.6550 -0.0118
   24MOL     N4 3270   3.359   7.224   7.426  0.0255 -0.1368 -0.6800
   24MOL     H5 3271   3.335   7.519   7.761 -2.2798  0.4559  0.2972
   24MOL     H6 3272   3.239   7.387   7.719 -0.0267  0.0739 -1.3668
   24MOL     H7 3273   3.477   7.347   7.695 -1.6724 -0.5440  0.7343
   24MOL     H8 3274   3.252   7.524   7.601 -2.8734  0.6372  1.8876
   24MOL     C9 3275   3.551   7.490   7.574 -0.2802 -0.6133  0.2323
   24MOL    C10 3276   3.594   7.579   7.696  0.5505 -0.3668  0.4807
   24MOL    C11 3277   3.631   7.496   7.812 -0.4180 -1.2610 -0.0403
   24MOL    N12 3278   3.660   7.429   7.900  0.4296 -0.7165  0.1165
   24MOL    H13 3279   3.635   7.431   7.539  1.2218  2.1949 -1.0795
   24MOL    H14 3280   3.519   7.547   7.487 -1.2829 -0.9525  0.3657
   24MOL    H15 3281   3.504   7.637   7.715 -0.7577 -1.6455 -1.6582
   24MOL    C16 3282   3.709   7.680   7.662  0.5090  0.7722  0.7254
   24MOL    C17 3283   3.861   7.626   7.680 -0.4794 -0.0911 -0.2036
   24MOL    C18 3284   3.873   7.475   7.651 -0.0771 -0.4683 -0.3046
   24MOL    N19 3285   3.882   7.359   7.625  0.0759 -0.6570 -0.7305
   24MOL    H20 3286   3.683   7.709   7.560  0.5968 -0.8579  0.2282
   24MOL    H21 3287   3.690   7.762   7.731  0.0326  2.3007 -1.1577
   24MOL    H22 3288   3.878   7.623   7.788 -2.3591 -0.3037  0.1019
   24MOL    C23 3289   3.969   7.713   7.616 -0.4632  0.0889  0.1421
   24MOL    C24 3290   4.115   7.710   7.663  0.0281  0.0913 -0.2678
   24MOL    C25 3291   4.166   7.571   7.665  0.4971 -0.8056  0.2945
   24MOL    N26 3292   4.202   7.461   7.658 -0.5021 -0.5083  0.2308
   24MOL    H27 3293   3.961   7.695   7.509 -1.2128  0.0085  0.2121
   24MOL    H28 3294   3.935   7.817   7.613  1.1316  0.6454  0.5726
   24MOL    H29 3295   4.117   7.736   7.769 -3.1707 -1.3320  0.1980
   24MOL    C30 3296   4.219   7.809   7.598 -0.7564 -0.1720 -0.3930
   24MOL    C31 3297   4.222   7.949   7.660 -0.1734 -0.4332  0.6554
   24MOL    C32 3298   4.260   7.930   7.798  0.4772  0.4178  0.6809
   24MOL    N33 3299   4.283   7.901   7.908 -0.2380  0.0006 -0.1061
   24MOL    H34 3300   4.318   7.765   7.612 -0.2163  0.8626 -0.9306
   24MOL    H35 3301   4.206   7.830   7.492 -0.3990 -0.7062 -0.5445
   24MOL    H36 3302   4.120   7.987   7.649 -0.6802 -2.2381 -1.2638
   24MOL    C37 3303   4.312   8.060   7.586  0.3246 -0.0433 -0.1438
   24MOL    C38 3304   4.319   8.200   7.644 -0.1472 -0.0021  0.0904
   24MOL    C39 3305   4.389   8.220   7.778 -0.4597  0.6445 -0.8406
   24MOL    N40 3306   4.441   8.238   7.882  0.0016  0.7029 -0.0294
   24MOL    H41 3307   4.413   8.021   7.574  0.3815  0.2252 -0.5397
   24MOL    H42 3308   4.267   8.068   7.487  0.0559  4.1794  0.2285
   24MOL    H43 3309   4.218   8.239   7.657 -0.7603 -1.7503  0.6603
   24MOL    C44 3310   4.387   8.290   7.539 -0.2245  0.1904 -0.3876
   24MOL    C45 3311   4.392   0.128   7.582 -0.2085 -0.5101 -0.7977
   24MOL    C46 3312   4.436   0.207   7.468  0.3529 -0.1032  0.4815
   24MOL    N47 3313   4.462   0.272   7.376  0.2744  0.3838 -0.1638
   24MOL    H48 3314   4.484   8.246   7.515 -0.1024 -0.5074  1.2793
   24MOL    H49 3315   4.340   8.285   7.441  0.5619  2.0442 -0.8907
   24MOL    H50 3316   4.477   0.143   7.649  0.6015 -1.7493 -1.5369
   24MOL    C51 3317   4.268   0.185   7.659  0.3819  0.6121 -0.4915
   24MOL    C52 3318   4.249   0.339   7.676  0.1559 -0.5789 -0.7215
   24MOL    C53 3319   4.376   0.407   7.713  0.0323 -0.3987  0.0233
   24MOL    N54 3320   4.476   0.453   7.745  0.4929  0.5921  0.6491
   24MOL    H55 3321   4.179   0.149   7.608  1.3184 -1.2234 -0.8789
   24MOL    H56 3322   4.281   0.139   7.756 -2.0800  0.3494 -0.2795
   24MOL    H57 3323   4.181   0.349   7.761  0.4249 -0.8988 -0.4635
   24MOL    C58 3324   4.190   0.410   7.551 -0.1806  0.7149 -0.0321
   24MOL    C59 3325   4.057   0.357   7.490  0.3799  1.5029 -0.4173
   24MOL    C60 3326   3.966   0.310   7.602 -0.6461 -0.1268 -0.1047
   24MOL    N61 3327   3.897   0.278   7.690 -0.2048 -0.0138 -0.2353
   24MOL    H62 3328   4.172   0.510   7.589 -0.1989  0.9407 -0.6334
   24MOL    H63 3329   4.266   0.433   7.476  0.0253 -0.7324 -0.2764
   24MOL    H64 3330   4.090   0.266   7.440 -4.1102 -0.8082  0.4853
   24MOL    C65 3331   3.972   0.448   7.400  0.0869  0.5594  0.6943
   24MOL    C66 3332   4.053   0.525   7.296  0.0483 -0.7245  0.0958
   24MOL    C67 3333   4.141   0.444   7.219 -0.2595  0.2243  0.3404
   24MOL    N68 3334   4.217   0.382   7.157  0.0771  0.3603 -0.6385
   24MOL    H69 3335   3.892   0.389   7.357  0.3845  0.3292  0.4618
   24MOL    H70 3336   3.928   0.518   7.471  0.4292  0.3100  1.1615
   24MOL    H71 3337   4.115   0.583   7.364  0.3366  0.6811 -1.3226
   24MOL    C72 3338   3.959   0.629   7.213  0.5690  0.2792 -0.2914
   24MOL    C73 3339   3.931   0.575   7.074  0.5910  0.0059  0.5668
   24MOL    C74 3340   3.852   0.450   7.072  0.7081 -0.3585 -0.1570
   24MOL    N75 3341   3.796   0.347   7.073 -0.8585 -0.4750 -0.5248
   24MOL    H76 3342   3.869   0.655   7.269  1.0466  2.6095 -0.5422
   24MOL    H77 3343   4.008   0.726   7.198  0.1997  0.6186  0.6451
   24MOL    H78 3344   4.022   0.539   7.026 -0.9063 -1.2025 -1.4588
   24MOL    C79 3345   3.869   0.693   6.989 -0.3404  0.0024  0.0314
   24MOL    C80 3346   3.806   0.656   6.855 -0.6004  0.0912 -0.6354
   24MOL    C81 3347   3.703   0.750   6.814  1.0042  0.1368 -0.6674
   24MOL    N82 3348   3.621   0.826   6.783  0.1378 -0.0199 -0.4153
   24MOL    H83 3349   3.791   0.737   7.051  0.1212  1.6124 -0.4903
   24MOL    H84 3350   3.936   0.779   6.977 -1.0044  0.8139  1.9582
   24MOL    H85 3351   3.749   0.564   6.861  0.5027 -0.5320  0.5676
   24MOL    C86 3352   3.910   0.619   6.751 -0.1182 -0.4952 -1.0641
   24MOL    C87 3353   3.862   0.501   6.677  0.4907 -0.6798  0.0893
   24MOL    C88 3354   3.728   0.523   6.621  0.6181 -0.6306 -0.1480
   24MOL    N89 3355   3.623   0.543   6.580 -0.0217 -0.1929  0.0776
   24MOL    H90 3356   3.924   0.694   6.673  2.1298 -1.5694 -1.7506
   24MOL    H91 3357   4.006   0.597   6.798 -2.0627  2.3100  4.6870
   24MOL    H92 3358   3.853   0.419   6.749 -1.1273 -0.2678  0.3617
   24MOL    C93 3359   3.957   0.450   6.567 -0.1540  0.2383  0.0690
   24MOL    C94 3360   4.094   0.408   6.617 -0.7276 -0.1377  0.2052
   24MOL    C95 3361   4.080   0.323   6.736 -0.8987  0.0297 -0.2654
   24MOL    N96 3362   4.065   0.257   6.828  0.0711 -0.1134 -0.2604
   24MOL    H97 3363   3.920   0.358   6.523  0.6556  0.5120 -1.2174
   24MOL    H98 3364   3.963   0.525   6.488 -1.6357 -1.0242 -1.2808
   24MOL    H99 3365   4.158   0.493   6.640 -0.2685 -0.5568  0.5086
   24MOL   C100 3366   4.167   0.315   6.509 -0.2964 -0.4416  0.0034
   24MOL   C101 3367   4.234   0.398   6.392  0.2338  0.1813 -0.7455
   24MOL   C102 3368   4.333   0.314   6.319 -0.5336  0.0908 -0.6315
   24MOL   N103 3369   4.408   0.252   6.256 -0.8094 -0.1246  0.2446
   24MOL   H104 3370   4.247   0.262   6.561 -0.7198 -0.3730  0.7325
   24MOL   H105 3371   4.102   0.242   6.461 -0.7247  0.0584 -0.1864
   24MOL   H106 3372   4.278   0.488   6.435 -0.0833  1.2927 -2.6934
   24MOL   C107 3373   4.139   0.455   6.277  0.1291 -1.0180  0.2694
   24MOL   C108 3374   4.177   0.599   6.222  0.1677 -0.1891  0.4717
   24MOL   C109 3375   4.319   0.618   6.202 -0.1122 -1.2244 -0.4704
   24MOL   N110 3376   4.431   0.640   6.194 -0.0129 -0.3109 -0.2098
   24MOL   H111 3377   4.149   0.395   6.186  0.2077  0.5091 -0.7412
   24MOL   H112 3378   4.036   0.450   6.312  0.8789  2.3997  3.2283
   24MOL   H113 3379   4.149   0.657   6.309 -0.8528  0.2484 -0.1405
   24MOL   C114 3380   4.096   0.633   6.104 -0.4947 -0.5924 -0.4285
   24MOL   C115 3381   3.952   0.673   6.146 -0.7374 -0.0088  0.2793
   24MOL   C116 3382   3.964   0.787   6.237  0.7159 -0.6603  0.2167
   24MOL   N117 3383   3.976   0.879   6.313  0.2671 -0.4384  0.0387
   24MOL   H118 3384   4.136   0.716   6.046  0.3703 -0.7165 -0.0108
   24MOL   H119 3385   4.100   0.552   6.032 -2.0288  1.0242 -2.4143
   24MOL   H120 3386   3.895   0.597   6.199 -0.9512  0.4836  0.7599
   24MOL   C121 3387   3.867   0.710   6.023 -0.4208 -0.1016  0.2962
   24MOL   C122 3388   3.841   0.588   5.929 -0.4247  0.9501  0.0559
   24MOL   C123 3389   3.756   0.472   5.970 -0.8441 -0.3511  0.2971
   24MOL   N124 3390   3.696   0.381   6.001 -0.4371  0.0829 -0.1111
   24MOL   H125 3391   3.778   0.760   6.062  1.1708  1.4617  2.0491
   24MOL   H126 3392   3.922   0.787   5.969 -1.2763  0.7994  0.6891
   24MOL   H127 3393   3.938   0.541   5.914 -0.5410  0.3972  1.0438
   24MOL   C128 3394   3.785   0.640   5.791 -0.6603  0.2662 -0.2658
   24MOL   C129 3395   3.632   0.641   5.778 -0.4936  0.1189 -0.7769
   24MOL   C130 3396   3.572   0.727   5.882 -0.2112  0.4826  0.0869
   24MOL   N131 3397   3.527   0.793   5.961 -0.0925  0.3974  0.3705
   24MOL   H132 3398   3.836   0.734   5.769  0.5898 -0.2176  0.5654
   24MOL   H133 3399   3.814   0.575   5.709 -0.8388  1.4178 -1.2543
   24MOL   H134 3400   3.582   0.545   5.786 -1.4404  0.6408 -0.2754
   24MOL   C135 3401   3.595   0.708   5.644 -0.1507  0.0519  0.8191
   24MOL   C136 3402   3.445   0.679   5.607 -0.2161  0.2387 -0.6161
   24MOL   C137 3403   3.335   0.741   5.686  0.6994 -0.1476  0.6327
   24MOL   N138 3404   3.249   0.783   5.754 -0.1211 -0.4397  0.4551
   24MOL   H139 3405   3.600   0.817   5.648 -1.0487  0.0440  3.0825
   24MOL   H140 3406   3.657   0.684   5.558 -1.9350  1.5645 -0.9451
   24MOL   H141 3407   3.428   0.571   5.602 -1.3062  0.3090  1.1362
   24MOL   H142 3408   3.444   0.719   5.506  0.3765 -0.9354 -1.1041
   25MOL     C1 3409   4.306   0.744   7.175  0.2221  0.2331  0.3151
   25MOL     C2 3410   4.356   0.850   7.072 -0.1456  0.4568  1.0801
   25MOL     C3 3411   4.466   0.798   6.988 -0.1319 -0.4572  0.3962
   25MOL     N4 3412   4.553   0.751   6.924  0.1162  0.0401  0.2581
   25MOL     H5 3413   4.247   0.799   7.248  0.4715 -0.5854  1.1406
   25MOL     H6 3414   4.386   0.685   7.219 -1.4904 -1.8366  0.7337
   25MOL     H7 3415   4.408   0.918   7.139  2.8518  0.1979 -0.8853
   25MOL     H8 3416   4.229   0.680   7.134 -0.9935  1.5696  0.4609
   25MOL     C9 3417   4.241   0.910   6.985 -0.5437  0.8002 -0.1716
   25MOL    C10 3418   4.249   1.065   6.965  0.1429  0.6235  0.0914
   25MOL    C11 3419   4.263   1.132   7.094 -0.3988 -0.4902 -0.0265
   25MOL    N12 3420   4.277   1.185   7.198 -0.6183  0.4723 -0.0146
   25MOL    H13 3421   4.216   0.841   6.905 -0.0320 -0.1304  0.4588
   25MOL    H14 3422   4.154   0.892   7.048 -1.9115  0.0701 -2.2309
   25MOL    H15 3423   4.150   1.092   6.927 -0.1833 -0.2035  0.3299
   25MOL    C16 3424   4.350   1.099   6.857 -0.2926  0.1747  0.4047
   25MOL    C17 3425   4.285   1.066   6.724  0.1512 -0.2871 -0.0597
   25MOL    C18 3426   4.197   1.178   6.689 -0.1044  0.4566 -0.5805
   25MOL    N19 3427   4.133   1.270   6.663 -0.7061 -0.0333  0.6103
   25MOL    H20 3428   4.375   1.205   6.849 -0.8217  0.2986  0.3979
   25MOL    H21 3429   4.444   1.044   6.867  0.6389  1.6796  0.1197
   25MOL    H22 3430   4.222   0.977   6.729 -2.0187  1.1370 -0.7224
   25MOL    C23 3431   4.382   1.044   6.616  0.3853  0.7799  0.7610
   25MOL    C24 3432   4.334   0.968   6.492  0.4451 -0.0995 -0.1222
   25MOL    C25 3433   4.247   0.849   6.530 -0.0930  0.4546 -0.0270
   25MOL    N26 3434   4.182   0.755   6.559 -0.3508 -0.1302 -0.2705
   25MOL    H27 3435   4.409   1.146   6.588  2.6867 -0.0417 -0.1316
   25MOL    H28 3436   4.466   0.987   6.656 -0.8360 -1.2100  0.5436
   25MOL    H29 3437   4.424   0.932   6.443  0.3051 -0.0681 -0.4097
   25MOL    C30 3438   4.265   1.065   6.393  0.1148  0.2198 -0.1519
   25MOL    C31 3439   4.343   1.092   6.264  0.4930 -0.0690  0.5437
   25MOL    C32 3440   4.478   1.139   6.285 -0.2713 -0.3370 -0.1754
   25MOL    N33 3441   4.591   1.169   6.301  0.4564  0.3001  0.2423
   25MOL    H34 3442   4.167   1.023   6.369 -0.1185  1.1658 -0.8897
   25MOL    H35 3443   4.238   1.163   6.431  1.5009  0.3418  0.5277
   25MOL    H36 3444   4.283   1.177   6.231  1.0364  0.6357  1.3298
   25MOL    C37 3445   4.333   0.983   6.160  0.0954  0.4642  0.2980
   25MOL    C38 3446   4.429   1.000   6.043 -0.1991  0.4331  0.6003
   25MOL    C39 3447   4.413   0.898   5.948 -0.0652 -0.3463 -0.0489
   25MOL    N40 3448   4.399   0.817   5.871 -0.5445  0.5246  0.8680
   25MOL    H41 3449   4.368   0.894   6.213 -0.7853  0.6297  1.1725
   25MOL    H42 3450   4.228   0.970   6.135  0.5496 -0.7269 -1.0698
   25MOL    H43 3451   4.529   0.999   6.086  1.1760  1.8155 -2.4350
   25MOL    C44 3452   4.414   1.133   5.960 -0.1122 -0.5015 -0.1262
   25MOL    C45 3453   4.462   1.144   5.816  0.2514  0.3610  1.0092
   25MOL    C46 3454   4.444   1.284   5.770  0.1211 -0.2082  0.1847
   25MOL    N47 3455   4.428   1.396   5.738  0.4074 -0.6139  0.1127
   25MOL    H48 3456   4.309   1.165   5.961 -0.7998 -2.6775  0.0989
   25MOL    H49 3457   4.463   1.205   6.025 -0.0365 -0.0575 -0.6676
   25MOL    H50 3458   4.402   1.087   5.745 -1.6521  2.2178  1.0491
   25MOL    C51 3459   4.611   1.109   5.817  0.1023 -0.2352 -0.0980
   25MOL    C52 3460   4.684   1.149   5.687  0.0450  0.1658 -0.5624
   25MOL    C53 3461   4.829   1.120   5.696 -0.0760  0.5900 -0.3244
   25MOL    N54 3462   4.941   1.092   5.695 -0.6830 -0.1814 -0.1416
   25MOL    H55 3463   4.662   1.169   5.893 -0.2602  0.6753 -0.5679
   25MOL    H56 3464   4.637   1.005   5.839 -0.1450 -0.6389 -1.6680
   25MOL    H57 3465   4.686   1.257   5.673 -1.5087  0.0082 -2.2684
   25MOL    C58 3466   4.612   1.098   5.565  0.0975 -0.4722  0.0389
   25MOL    C59 3467   4.657   1.129   5.418 -0.3246 -0.4122 -0.3246
   25MOL    C60 3468   4.721   1.264   5.406  0.1915 -0.2117  0.6044
   25MOL    N61 3469   4.770   1.368   5.404 -0.1785  0.0487  0.4388
   25MOL    H62 3470   4.598   0.992   5.583 -0.0087 -0.5075 -0.2591
   25MOL    H63 3471   4.512   1.141   5.568  0.0033 -0.7395  1.0392
   25MOL    H64 3472   4.571   1.133   5.352 -1.0781 -1.4468  0.5635
   25MOL    C65 3473   4.759   1.020   5.380 -0.3369 -0.3011  0.0925
   25MOL    C66 3474   4.848   1.049   5.260 -0.4046 -0.0284  0.6384
   25MOL    C67 3475   4.781   1.114   5.144 -0.4302  0.3636 -0.0905
   25MOL    N68 3476   4.726   1.169   5.057  0.0278  0.6808 -0.2671
   25MOL    H69 3477   4.812   0.993   5.471 -3.0099 -0.1337  1.7650
   25MOL    H70 3478   4.707   0.927   5.356 -1.2202 -0.3674  2.1521
   25MOL    H71 3479   4.856   0.947   5.224  0.9942  0.2919 -0.0038
   25MOL    C72 3480   4.979   1.122   5.305 -0.7301  0.0084 -0.1014
   25MOL    C73 3481   5.108   1.070   5.238  0.1296 -0.4016 -0.4453
   25MOL    C74 3482   5.126   0.921   5.256  0.1333 -1.1172  0.5106
   25MOL    N75 3483   5.130   0.806   5.261 -0.5490  0.4134  0.0545
   25MOL    H76 3484   4.982   1.230   5.288 -2.1411 -0.0254 -0.6848
   25MOL    H77 3485   4.995   1.114   5.412  2.1187 -0.8450 -0.5457
   25MOL    H78 3486   5.194   1.113   5.290 -0.8325 -0.2615  1.0680
   25MOL    C79 3487   5.109   1.096   5.086 -0.7177 -0.4968 -0.1310
   25MOL    C80 3488   5.247   1.105   5.017  0.2550  0.4140 -0.6397
   25MOL    C81 3489   5.328   1.220   5.060 -0.1773  0.0657  0.0112
   25MOL    N82 3490   5.394   1.314   5.094  0.1822  0.9610  0.7507
   25MOL    H83 3491   5.035   1.029   5.042 -1.1312 -1.2812  1.6915
   25MOL    H84 3492   5.064   1.194   5.073  0.3030  0.3041  2.0799
   25MOL    H85 3493   5.221   1.136   4.915 -1.7757  0.0010 -0.2645
   25MOL    C86 3494   5.323   0.975   5.006  0.1988  0.1295  0.2829
   25MOL    C87 3495   5.259   0.875   4.906  0.0588 -0.8035  0.0685
   25MOL    C88 3496   5.201   0.920   4.776 -0.3233  0.0497 -0.2006
   25MOL    N89 3497   5.161   0.958   4.674  0.3076  0.4488 -0.6993
   25MOL    H90 3498   5.428   0.990   4.982  0.2544 -2.8074 -1.5802
   25MOL    H91 3499   5.339   0.936   5.107  1.3793 -0.9414 -0.3011
   25MOL    H92 3500   5.178   0.820   4.954 -1.5331 -0.4125 -2.0639
   25MOL    C93 3501   5.360   0.761   4.879 -0.6130 -0.6025 -0.7147
   25MOL    C94 3502   5.359   0.670   5.007  0.6228 -0.3216  0.4491
   25MOL    C95 3503   5.298   0.538   4.980  0.4315  0.3346 -0.2020
   25MOL    N96 3504   5.250   0.431   4.968 -0.3763  0.4682  0.1944
   25MOL    H97 3505   5.324   0.707   4.791 -1.2619  0.1571 -0.9269
   25MOL    H98 3506   5.452   0.813   4.851 -0.6861  0.3619  0.8125
   25MOL    H99 3507   5.293   0.714   5.082 -0.8608 -0.7849 -0.5561
   25MOL   C100 3508   5.494   0.668   5.075  0.2894 -0.6318 -0.1748
   25MOL   C101 3509   5.491   0.653   5.225 -0.3000 -0.1485 -0.9137
   25MOL   C102 3510   5.465   0.789   5.281 -0.4905  0.1794 -0.1356
   25MOL   N103 3511   5.446   0.898   5.322 -0.0245 -0.6456  0.0393
   25MOL   H104 3512   5.545   0.580   5.036  0.6515 -0.3682 -0.2966
   25MOL   H105 3513   5.546   0.760   5.047  0.3913 -1.0557 -1.3782
   25MOL   H106 3514   5.595   0.639   5.255 -0.5433  1.6520  0.8985
   25MOL   C107 3515   5.423   0.530   5.287 -0.7559 -0.4360 -0.3397
   25MOL   C108 3516   5.496   0.396   5.252  0.4632  0.2402  0.2344
   25MOL   C109 3517   5.637   0.395   5.279 -0.0124 -0.3884 -0.1583
   25MOL   N110 3518   5.749   0.397   5.300 -0.4862  0.2866 -0.1380
   25MOL   H111 3519   5.407   0.545   5.393  0.2236  0.9592 -0.3800
   25MOL   H112 3520   5.321   0.535   5.249 -0.1519  1.4180 -1.7804
   25MOL   H113 3521   5.495   0.394   5.143  0.0313  0.7861  0.2255
   25MOL   C114 3522   5.426   0.280   5.334 -0.5446 -0.2611  0.1991
   25MOL   C115 3523   5.313   0.208   5.259 -0.2590  0.1045 -0.1777
   25MOL   C116 3524   5.359   0.145   5.134 -0.1190  0.0954 -0.5517
   25MOL   N117 3525   5.386   0.091   5.037 -0.1987 -0.7495  0.1688
   25MOL   H118 3526   5.495   0.197   5.347  0.1177  0.1700 -0.5368
   25MOL   H119 3527   5.405   0.329   5.430 -0.3050 -0.4213  0.3358
   25MOL   H120 3528   5.245   0.287   5.226 -0.8673 -0.3279  0.0479
   25MOL   C121 3529   5.236   0.116   5.356  0.0909 -0.2085  0.3462
   25MOL   C122 3530   5.081   0.094   5.327 -0.2853 -0.2291  0.3057
   25MOL   C123 3531   5.065   0.035   5.190 -0.6414 -0.3020 -0.3718
   25MOL   N124 3532   5.058   8.309   5.082 -0.1974 -0.6490  0.6958
   25MOL   H125 3533   5.284   0.018   5.363 -0.9184 -0.6128  1.8553
   25MOL   H126 3534   5.251   0.160   5.454 -0.1279 -2.0302  1.2256
   25MOL   H127 3535   5.026   0.187   5.318  1.2477  0.9098  2.3545
   25MOL   C128 3536   5.020   0.005   5.443 -0.1851  0.0187  0.1350
   25MOL   C129 3537   4.865   8.290   5.435 -0.0104 -1.4672  0.4762
   25MOL   C130 3538   4.823   8.209   5.314 -0.3345  0.1348 -0.1365
   25MOL   N131 3539   4.790   8.142   5.223  0.0856 -0.1149  0.2465
   25MOL   H132 3540   5.082   8.228   5.451  2.5147  1.6645 -1.5469
   25MOL   H133 3541   5.041   0.053   5.539 -0.5003 -1.4780  0.9718
   25MOL   H134 3542   4.824   0.072   5.399  0.5949 -0.7814  1.5850
   25MOL   C135 3543   4.795   8.249   5.568  0.1412 -0.0370  0.2496
   25MOL   C136 3544   4.643   8.235   5.558 -0.5240 -0.7297 -0.5204
   25MOL   C137 3545   4.587   8.266   5.688 -0.6901 -0.5860 -1.0453
   25MOL   N138 3546   4.543   8.282   5.792  0.1239 -0.4040 -0.2606
   25MOL   H139 3547   4.838   8.159   5.611 -1.0829 -0.2548  1.0639
   25MOL   H140 3548   4.824   0.015   5.638  1.3839  1.6273 -2.0844
   25MOL   H141 3549   4.611   8.136   5.527 -1.3445 -1.0664  1.3560
   25MOL   H142 3550   4.595   8.310   5.494 -0.5059  1.4070  1.8793
   26MOL     C1 3551   0.835   4.744   3.936 -0.0645  0.8367  0.3453
   26MOL     C2 3552   0.727   4.700   4.033 -0.0313  0.1375  0.2648
   26MOL     C3 3553   0.587   4.729   3.991 -0.1660  0.5940  0.4065
   26MOL     N4 3554   0.481   4.751   3.956 -0.1760 -0.0540  0.4062
   26MOL     H5 3555   0.865   4.845   3.965 -1.6212  1.2816  0.4046
   26MOL     H6 3556   0.816   4.743   3.829 -0.5636 -0.8212  0.4354
   26MOL     H7 3557   0.745   4.759   4.122 -4.4868  2.0527  0.0124
   26MOL     H8 3558   0.923   4.688   3.969 -2.6943 -0.3612  5.8470
   26MOL     C9 3559   0.727   4.551   4.069  0.0241 -0.4597  0.4197
   26MOL    C10 3560   0.628   4.459   3.994 -0.1438 -0.2684 -0.1430
   26MOL    C11 3561   0.623   4.493   3.848 -0.1932 -0.2590 -0.2179
   26MOL    N12 3562   0.619   4.511   3.737 -0.0866 -0.0959  0.3102
   26MOL    H13 3563   0.833   4.528   4.067  0.1460  0.1903 -1.6671
   26MOL    H14 3564   0.697   4.536   4.173 -3.3275 -0.9978 -0.5575
   26MOL    H15 3565   0.527   4.485   4.027 -0.3329 -2.2151  0.8810
   26MOL    C16 3566   0.656   4.306   4.003  0.0142 -0.6011  0.2039
   26MOL    C17 3567   0.774   4.249   3.921 -0.2135 -0.9175 -0.2723
   26MOL    C18 3568   0.890   4.331   3.920 -0.3456  0.0686  0.1869
   26MOL    N19 3569   0.988   4.397   3.920 -0.3483 -0.1325 -0.6160
   26MOL    H20 3570   0.658   4.276   4.108  1.3400 -0.8203  0.1270
   26MOL    H21 3571   0.567   4.255   3.964  1.2555 -0.4123 -3.0564
   26MOL    H22 3572   0.755   4.232   3.815 -0.1221  2.6756 -0.9475
   26MOL    C23 3573   0.779   4.096   3.960 -0.6772  0.0217  0.1465
   26MOL    C24 3574   0.885   4.014   3.882  0.8659  0.1066  0.5814
   26MOL    C25 3575   1.028   4.047   3.894  0.0799 -0.3619 -0.5038
   26MOL    N26 3576   1.145   4.070   3.897 -0.3694  0.0627 -0.4984
   26MOL    H27 3577   0.820   4.087   4.060  0.6172  0.5020 -0.3296
   26MOL    H28 3578   0.684   4.043   3.965 -1.3756  1.4879  3.2078
   26MOL    H29 3579   0.862   4.048   3.781  0.1233 -0.2346  0.6311
   26MOL    C30 3580   0.865   3.866   3.876  1.0602  0.4382 -0.6849
   26MOL    C31 3581   0.932   3.785   3.984 -0.8264 -0.5280 -0.0368
   26MOL    C32 3582   0.945   3.851   4.116 -0.1950 -0.2166 -0.1492
   26MOL    N33 3583   0.952   3.907   4.216 -0.3771 -1.0109 -0.1672
   26MOL    H34 3584   0.759   3.843   3.886  1.0747 -0.0732 -1.6361
   26MOL    H35 3585   0.889   3.832   3.775 -0.3131 -0.3719 -0.7479
   26MOL    H36 3586   1.036   3.784   3.952 -0.8500  3.9166 -0.6420
   26MOL    C37 3587   0.877   3.645   4.000 -0.0978 -0.0967  0.2247
   26MOL    C38 3588   0.977   3.528   4.034 -0.2650  0.0668  0.4494
   26MOL    C39 3589   1.026   3.547   4.169  0.1937 -0.8236  0.0549
   26MOL    N40 3590   1.065   3.558   4.276  0.5831 -0.5403 -0.7119
   26MOL    H41 3591   0.802   3.651   4.079 -1.4663  0.6324 -1.1003
   26MOL    H42 3592   0.834   3.614   3.905  2.0811  1.3127 -1.2660
   26MOL    H43 3593   1.070   3.541   3.979 -0.1062  0.9274  0.9150
   26MOL    C44 3594   0.921   3.390   4.011  0.4339 -0.3686 -0.0677
   26MOL    C45 3595   1.018   3.273   4.012 -0.4207 -0.7093 -0.1044
   26MOL    C46 3596   0.936   3.154   3.993  0.0669  0.9298 -0.1198
   26MOL    N47 3597   0.876   3.059   3.980  0.5246 -0.4805  0.0495
   26MOL    H48 3598   0.848   3.363   4.087  0.4962 -1.1647 -0.2851
   26MOL    H49 3599   0.858   3.383   3.922  0.9494 -0.4487 -0.4323
   26MOL    H50 3600   1.065   3.260   4.109 -1.7276 -1.3142  0.4476
   26MOL    C51 3601   1.127   3.281   3.903  0.3199  0.0631 -0.1201
   26MOL    C52 3602   1.235   3.168   3.921  0.3256 -0.0628  0.2536
   26MOL    C53 3603   1.200   3.039   3.869 -0.5629  1.2041 -0.3111
   26MOL    N54 3604   1.166   2.934   3.831  0.3038  0.0388 -1.0386
   26MOL    H55 3605   1.075   3.274   3.808 -0.2462 -0.6405  0.2353
   26MOL    H56 3606   1.178   3.377   3.897 -0.9620  0.7462 -0.2430
   26MOL    H57 3607   1.261   3.149   4.025 -0.5248 -0.1877  0.4511
   26MOL    C58 3608   1.359   3.213   3.855 -0.8317 -0.2998 -0.2185
   26MOL    C59 3609   1.487   3.127   3.869 -0.0686 -0.1114  0.5090
   26MOL    C60 3610   1.579   3.192   3.764  0.5203 -0.6567  0.1867
   26MOL    N61 3611   1.654   3.241   3.689 -0.5229 -0.3901 -0.7179
   26MOL    H62 3612   1.347   3.220   3.746 -0.7291 -0.7314 -0.2593
   26MOL    H63 3613   1.386   3.316   3.879  0.3636 -0.4283 -0.9197
   26MOL    H64 3614   1.472   3.023   3.841 -2.3108  0.5598 -0.9045
   26MOL    C65 3615   1.542   3.140   4.013  0.0672 -0.0068  0.6454
   26MOL    C66 3616   1.681   3.073   4.050 -0.3720 -0.5794 -0.1250
   26MOL    C67 3617   1.798   3.124   3.976  0.0941  0.4738 -0.3899
   26MOL    N68 3618   1.893   3.159   3.919  0.1086 -0.6307  0.7777
   26MOL    H69 3619   1.553   3.247   4.032  4.0202 -0.0582 -0.7981
   26MOL    H70 3620   1.460   3.103   4.073 -0.0001  1.6233  1.5882
   26MOL    H71 3621   1.670   2.971   4.013 -1.8234 -0.3170 -0.4393
   26MOL    C72 3622   1.722   3.068   4.201  0.0209 -0.2844  0.1466
   26MOL    C73 3623   1.621   2.992   4.285 -0.3422  0.4558  0.5514
   26MOL    C74 3624   1.614   2.848   4.252  0.1011  0.0117  0.2481
   26MOL    N75 3625   1.609   2.731   4.229 -0.3403  0.6289  0.2823
   26MOL    H76 3626   1.825   3.033   4.211  1.0445  1.9773 -1.8712
   26MOL    H77 3627   1.736   3.169   4.240 -1.3142  0.5279 -1.4171
   26MOL    H78 3628   1.521   3.024   4.257 -0.9248 -0.5723  1.4065
   26MOL    C79 3629   1.633   3.008   4.437  0.3837 -0.3258 -0.3988
   26MOL    C80 3630   1.743   2.924   4.511 -0.1729 -0.4909  0.2239
   26MOL    C81 3631   1.878   2.985   4.485  0.3491  0.6244  0.3096
   26MOL    N82 3632   1.979   3.031   4.457 -0.4103  0.5858  0.7185
   26MOL    H83 3633   1.648   3.113   4.462 -0.6384 -0.2233 -0.1770
   26MOL    H84 3634   1.537   2.974   4.477  0.1825 -1.9547 -2.1885
   26MOL    H85 3635   1.758   2.833   4.453  0.0297  1.1050 -2.2618
   26MOL    C86 3636   1.712   2.879   4.656  0.1096 -0.3530 -0.5392
   26MOL    C87 3637   1.780   2.747   4.703  0.0580  0.1928  0.0908
   26MOL    C88 3638   1.778   2.748   4.853  0.1135  0.2191 -0.1432
   26MOL    N89 3639   1.770   2.747   4.966  0.3549 -0.1458  0.1494
   26MOL    H90 3640   1.748   2.964   4.715 -1.6326  0.9332 -1.2727
   26MOL    H91 3641   1.606   2.863   4.677 -0.0777 -1.6330 -2.3922
   26MOL    H92 3642   1.885   2.753   4.677 -0.1161 -0.1139 -0.6790
   26MOL    C93 3643   1.722   2.619   4.634 -0.0442 -0.5348  0.2578
   26MOL    C94 3644   1.586   2.566   4.681 -0.3073 -0.2313  0.1331
   26MOL    C95 3645   1.480   2.660   4.633  0.4345 -0.0994 -0.1459
   26MOL    N96 3646   1.401   2.736   4.591  0.4096  0.4994 -0.7844
   26MOL    H97 3647   1.716   2.625   4.526  0.3824 -1.0067  0.2081
   26MOL    H98 3648   1.790   2.536   4.654  0.8844  0.2459  0.3586
   26MOL    H99 3649   1.584   2.557   4.789  1.6486  1.4515  0.3439
   26MOL   C100 3650   1.555   2.429   4.627 -0.1840  0.1831  0.0229
   26MOL   C101 3651   1.435   2.357   4.689 -0.6419 -0.4531  0.0573
   26MOL   C102 3652   1.369   2.262   4.594 -0.1200  0.2966 -1.2090
   26MOL   N103 3653   1.320   2.188   4.523  0.3120  0.2116  0.4122
   26MOL   H104 3654   1.547   2.436   4.519  0.3289  3.1760  0.1302
   26MOL   H105 3655   1.636   2.356   4.636  0.4057  0.7358 -0.7039
   26MOL   H106 3656   1.353   2.422   4.720 -0.7300 -0.7386  0.4377
   26MOL   C107 3657   1.470   2.288   4.825 -0.5964  0.7407 -0.2511
   26MOL   C108 3658   1.506   2.133   4.826 -0.7057 -0.0014 -0.1576
   26MOL   C109 3659   1.638   2.115   4.758 -0.4709  0.1997  0.1661
   26MOL   N110 3660   1.739   2.098   4.693  0.0480  0.8625 -0.7350
   26MOL   H111 3661   1.544   2.341   4.885  1.3548 -3.5388  1.3016
   26MOL   H112 3662   1.379   2.306   4.882 -1.0525  2.2425 -1.4060
   26MOL   H113 3663   1.442   2.076   4.758  2.2175  0.2690 -3.2439
   26MOL   C114 3664   1.498   2.081   4.974 -0.4921  0.3790  0.8734
   26MOL   C115 3665   1.503   1.926   4.976  0.7354 -0.4049 -0.0581
   26MOL   C116 3666   1.636   1.873   4.941 -0.1009  0.0634 -0.4935
   26MOL   N117 3667   1.741   1.831   4.911 -0.1008 -0.0033 -0.1609
   26MOL   H118 3668   1.564   2.124   5.050 -0.0169  2.0467 -0.4549
   26MOL   H119 3669   1.397   2.094   5.015 -0.0714 -0.5919  2.2400
   26MOL   H120 3670   1.436   1.884   4.901  0.1982 -2.2776  1.4116
   26MOL   C121 3671   1.480   1.860   5.115  0.4427  0.0590  0.4079
   26MOL   C122 3672   1.331   1.824   5.133 -0.6573 -0.1030 -0.2944
   26MOL   C123 3673   1.337   1.697   5.204 -0.0683  0.0644 -0.0693
   26MOL   N124 3674   1.337   1.594   5.263 -0.3251 -0.1288  0.0990
   26MOL   H125 3675   1.541   1.769   5.126  0.9872 -0.0993 -3.4401
   26MOL   H126 3676   1.518   1.932   5.187 -2.1217 -1.9753  3.9735
   26MOL   H127 3677   1.280   1.822   5.037  0.6112 -0.3916 -0.9647
   26MOL   C128 3678   1.268   1.929   5.226 -0.2074 -0.4844 -1.2639
   26MOL   C129 3679   1.119   1.919   5.253  0.7627 -0.0661  0.8235
   26MOL   C130 3680   1.101   1.960   5.393  0.6059 -1.0114  0.0583
   26MOL   N131 3681   1.083   1.989   5.504 -0.2524 -0.5075 -0.2677
   26MOL   H132 3682   1.313   1.913   5.323  0.6945 -0.7159 -1.7159
   26MOL   H133 3683   1.299   2.032   5.206  0.4835 -0.0181  2.0221
   26MOL   H134 3684   1.100   1.812   5.252 -1.7861  0.3409 -3.2555
   26MOL   C135 3685   1.032   1.984   5.149  0.0537  0.0614 -0.2562
   26MOL   C136 3686   0.879   1.966   5.183 -0.1668  0.2576  0.4210
   26MOL   C137 3687   0.815   2.038   5.069  0.0359  0.1448  0.1816
   26MOL   N138 3688   0.763   2.093   4.979 -0.1728  0.3517 -1.2937
   26MOL   H139 3689   1.058   2.090   5.141  0.3762  0.0002 -0.0446
   26MOL   H140 3690   1.063   1.929   5.061  0.0663 -0.8661  0.3267
   26MOL   H141 3691   0.851   2.023   5.271  1.6377  1.5384  0.2083
   26MOL   H142 3692   0.849   1.861   5.185  0.5730  0.0308 -0.0556
   27MOL     C1 3693   0.307   6.601   1.786 -1.6628  0.7076  0.5175
   27MOL     C2 3694   0.198   6.535   1.709 -0.5135  0.0970 -0.0523
   27MOL     C3 3695   0.251   6.421   1.632 -0.2580  0.6357  0.1426
   27MOL     N4 3696   0.295   6.328   1.574 -0.1787  0.5924 -0.3390
   27MOL     H5 3697   0.377   6.529   1.829 -0.8533  1.2473  0.1224
   27MOL     H6 3698   0.272   6.660   1.872 -1.2907 -0.2149  1.3127
   27MOL     H7 3699   0.170   6.611   1.636  0.2827 -0.4295 -0.9236
   27MOL     H8 3700   0.366   6.666   1.722  0.1554 -0.0681  1.3709
   27MOL     C9 3701   0.079   6.486   1.792  0.6177 -0.7334  0.5960
   27MOL    C10 3702   8.276   6.391   1.739  0.0705  0.0315  0.2870
   27MOL    C11 3703   0.001   6.251   1.710 -0.3164 -0.3165 -0.2259
   27MOL    N12 3704   0.034   6.140   1.691 -0.5073 -0.4390  0.3207
   27MOL    H13 3705   0.118   6.439   1.882  0.6920 -1.3050  0.2675
   27MOL    H14 3706   0.023   6.572   1.829 -0.5437 -0.9174 -0.6810
   27MOL    H15 3707   8.236   6.439   1.649 -1.0132 -2.7735 -0.7874
   27MOL    C16 3708   8.154   6.405   1.835  0.0750  0.5926 -0.5699
   27MOL    C17 3709   8.140   6.325   1.967 -0.2483 -0.1750 -0.1899
   27MOL    C18 3710   8.264   6.310   2.036  0.7165 -0.4535 -0.7745
   27MOL    N19 3711   0.044   6.301   2.100 -0.0337  0.4077 -0.1105
   27MOL    H20 3712   8.126   6.508   1.855  2.0892  1.5873 -2.6018
   27MOL    H21 3713   8.070   6.370   1.776  1.6070 -3.7545 -0.4072
   27MOL    H22 3714   8.103   6.231   1.927  0.2120 -0.4874  0.1109
   27MOL    C23 3715   8.017   6.375   2.052  0.3621 -0.5377  0.1686
   27MOL    C24 3716   7.959   6.288   2.172 -0.2738 -0.4545 -0.1208
   27MOL    C25 3717   8.067   6.285   2.277  0.8074 -0.4878  0.1582
   27MOL    N26 3718   8.148   6.287   2.356 -0.0598 -0.4478  0.6558
   27MOL    H27 3719   8.026   6.481   2.073  1.2830 -0.7387  0.8044
   27MOL    H28 3720   7.929   6.379   1.988 -1.0413 -2.3897  1.8941
   27MOL    H29 3721   7.940   6.184   2.142  0.8647 -0.3572 -1.2546
   27MOL    C30 3722   7.833   6.347   2.228  0.2115  0.2897 -0.0099
   27MOL    C31 3723   7.761   6.276   2.348  0.3922 -0.4276  0.1222
   27MOL    C32 3724   7.840   6.265   2.474  0.3372 -0.5818 -0.3142
   27MOL    N33 3725   7.899   6.256   2.573  0.4002 -0.2876  0.0686
   27MOL    H34 3726   7.855   6.448   2.263  0.2849  0.0665  0.6014
   27MOL    H35 3727   7.765   6.360   2.144  0.9977  0.3163 -0.6419
   27MOL    H36 3728   7.730   6.172   2.331  2.1016 -0.5179 -2.6942
   27MOL    C37 3729   7.624   6.341   2.385  0.0983 -0.2547 -0.4773
   27MOL    C38 3730   7.605   6.498   2.377 -0.2938 -1.2027 -0.0151
   27MOL    C39 3731   7.582   6.544   2.236  0.1296 -0.1350  0.2495
   27MOL    N40 3732   7.561   6.582   2.130 -0.6728  0.0902  0.0758
   27MOL    H41 3733   7.547   6.308   2.315 -0.0339  0.4359 -0.6542
   27MOL    H42 3734   7.594   6.308   2.485  1.7405  0.2197  0.1944
   27MOL    H43 3735   7.700   6.545   2.404  0.5574 -1.3243 -2.6682
   27MOL    C44 3736   7.504   6.548   2.483 -0.4288  0.4447  0.8572
   27MOL    C45 3737   7.508   6.702   2.499  0.4272 -0.2149  0.3684
   27MOL    C46 3738   7.462   6.783   2.390  0.2757  0.2731  0.1908
   27MOL    N47 3739   7.428   6.848   2.301  0.5999 -0.0311  0.0437
   27MOL    H48 3740   7.403   6.522   2.450  0.0430  0.7463 -0.8374
   27MOL    H49 3741   7.511   6.483   2.570 -2.0973 -0.7685  0.1078
   27MOL    H50 3742   7.614   6.722   2.514  0.2852  1.6546 -1.0424
   27MOL    C51 3743   7.444   6.752   2.629  0.4231  0.4260  0.5543
   27MOL    C52 3744   7.474   6.678   2.759  0.1232  0.6565 -0.1277
   27MOL    C53 3745   7.622   6.663   2.785  0.4237  0.0557 -0.3141
   27MOL    N54 3746   7.734   6.656   2.807  0.2565 -0.2432  0.5839
   27MOL    H55 3747   7.471   6.857   2.640  0.5656  0.4730 -0.2142
   27MOL    H56 3748   7.337   6.744   2.611  0.7256 -0.2127 -1.1081
   27MOL    H57 3749   7.435   6.576   2.756 -1.3112  1.2139 -0.7558
   27MOL    C58 3750   7.399   6.751   2.869  0.9530  0.0324 -0.5166
   27MOL    C59 3751   7.389   6.684   3.009 -0.5253 -0.4079  0.4665
   27MOL    C60 3752   7.520   6.691   3.067 -0.3581  0.4370 -0.2290
   27MOL    N61 3753   7.629   6.700   3.119 -0.3660 -0.5622  0.2360
   27MOL    H62 3754   7.450   6.847   2.881 -1.3751  0.9588  2.5388
   27MOL    H63 3755   7.296   6.776   2.842  0.5606 -1.0856 -0.0834
   27MOL    H64 3756   7.384   6.575   2.997  0.3023 -0.2383 -1.5564
   27MOL    C65 3757   7.287   6.745   3.099  0.4823  0.5139 -0.4213
   27MOL    C66 3758   7.237   6.646   3.205 -0.0471 -0.8357 -0.2517
   27MOL    C67 3759   7.344   6.578   3.272  1.2479 -0.2838 -0.6168
   27MOL    N68 3760   7.431   6.529   3.331 -0.0613  0.5333  1.5058
   27MOL    H69 3761   7.326   6.837   3.142  1.6047  0.0973 -0.5245
   27MOL    H70 3762   7.200   6.769   3.038  0.0781  1.2891  0.4541
   27MOL    H71 3763   7.173   6.570   3.161 -1.6144  0.9130 -1.0614
   27MOL    C72 3764   7.152   6.726   3.306  0.8524  0.8279 -0.3841
   27MOL    C73 3765   7.106   6.655   3.434  0.6833 -0.3864 -0.2591
   27MOL    C74 3766   7.030   6.760   3.503  0.4833  0.4439  0.4575
   27MOL    N75 3767   6.979   6.846   3.561 -0.0258  0.1069 -1.0120
   27MOL    H76 3768   7.214   6.814   3.326  2.0483 -0.1425  0.3083
   27MOL    H77 3769   7.070   6.766   3.246  0.2195  1.2375  0.7461
   27MOL    H78 3770   7.196   6.628   3.490  0.6983  2.2484  1.0200
   27MOL    C79 3771   7.024   6.526   3.393 -0.1856 -0.4529 -0.2350
   27MOL    C80 3772   6.955   6.460   3.510  0.3327  0.3861 -0.1532
   27MOL    C81 3773   6.836   6.385   3.464  0.1332  0.1848  0.5105
   27MOL    N82 3774   6.737   6.332   3.433  0.0968  0.2391  0.6333
   27MOL    H83 3775   6.953   6.555   3.316 -0.5289 -1.9879 -0.5278
   27MOL    H84 3776   7.090   6.454   3.345 -1.0228 -1.7949  0.5894
   27MOL    H85 3777   6.903   6.545   3.555  0.5228  0.8676 -0.8317
   27MOL    C86 3778   7.040   6.388   3.615 -0.1382 -0.6997  0.1085
   27MOL    C87 3779   6.963   6.337   3.738  0.1361 -0.7422 -0.8018
   27MOL    C88 3780   6.860   6.438   3.779  0.9516  1.0309  0.0756
   27MOL    N89 3781   6.775   6.507   3.809  0.0597  0.2824 -0.2870
   27MOL    H90 3782   7.108   6.311   3.577  1.6500 -0.5133  2.8360
   27MOL    H91 3783   7.097   6.469   3.659 -0.4853 -0.0599 -0.6239
   27MOL    H92 3784   7.030   6.336   3.824  1.0370 -0.5030 -1.4934
   27MOL    C93 3785   6.896   6.199   3.723 -0.3068  0.1563 -0.1249
   27MOL    C94 3786   6.992   6.083   3.689  0.6471 -0.5450 -0.5161
   27MOL    C95 3787   7.123   6.087   3.755  0.2500  0.3249  0.4535
   27MOL    N96 3788   7.230   6.093   3.807  0.9785  0.1555  0.6949
   27MOL    H97 3789   6.848   6.172   3.817  0.3783 -0.6314  0.0166
   27MOL    H98 3790   6.812   6.215   3.657  0.3244  1.7885 -0.5426
   27MOL    H99 3791   7.006   6.112   3.585  0.8672 -1.3022 -0.7050
   27MOL   C100 3792   6.929   5.941   3.684  0.5984 -0.4805  0.0303
   27MOL   C101 3793   6.949   5.855   3.813 -0.2641  0.2682  0.0706
   27MOL   C102 3794   6.930   5.934   3.934  0.2452  0.0659 -0.4299
   27MOL   N103 3795   6.921   5.990   4.037 -0.2455 -0.1587  0.2926
   27MOL   H104 3796   6.825   5.945   3.653 -0.0500  1.3020  2.3116
   27MOL   H105 3797   6.988   5.898   3.603 -0.3821  0.8625 -1.4285
   27MOL   H106 3798   7.052   5.818   3.811 -0.1462  0.5833  0.3077
   27MOL   C107 3799   6.855   5.734   3.819 -0.0354 -0.2415 -0.5443
   27MOL   C108 3800   6.863   5.661   3.957 -0.9492 -0.3574 -0.0863
   27MOL   C109 3801   6.752   5.568   3.975  0.1902  0.3801  0.4380
   27MOL   N110 3802   6.663   5.493   3.980  1.0275  0.0302 -0.7270
   27MOL   H111 3803   6.754   5.774   3.813  0.9043  2.9523  2.9702
   27MOL   H112 3804   6.879   5.660   3.743  0.4656 -0.7032  0.0497
   27MOL   H113 3805   6.854   5.737   4.034  0.7371  2.2837 -2.4145
   27MOL   C114 3806   6.999   5.585   3.971 -0.1515 -0.0891  0.1151
   27MOL   C115 3807   6.995   5.437   4.028 -0.2139  0.0688 -1.4624
   27MOL   C116 3808   7.116   5.364   3.998 -0.0725  0.3443 -0.5311
   27MOL   N117 3809   7.208   5.298   3.974  0.2027  0.0878  0.1992
   27MOL   H118 3810   7.045   5.574   3.873 -0.2765  2.6797 -0.2817
   27MOL   H119 3811   7.072   5.656   4.011  1.0952 -1.4995  0.4480
   27MOL   H120 3812   6.915   5.379   3.980 -0.9766 -0.0570 -0.0616
   27MOL   C121 3813   6.961   5.450   4.184  0.6073  0.2892  0.0475
   27MOL   C122 3814   6.984   5.314   4.258  0.1772 -0.5368  0.5051
   27MOL   C123 3815   6.937   5.188   4.195 -0.0106  0.5850  0.3594
   27MOL   N124 3816   6.903   5.089   4.154  0.6622  0.5533 -0.3914
   27MOL   H125 3817   7.019   5.534   4.220  0.0590  0.4553  0.5572
   27MOL   H126 3818   6.854   5.471   4.188  0.0392 -2.1349 -1.2735
   27MOL   H127 3819   6.909   5.321   4.337 -0.0919  2.6287  0.0388
   27MOL   C128 3820   7.123   5.302   4.325  0.3231  0.1179 -0.1181
   27MOL   C129 3821   7.153   5.177   4.414  0.1155 -0.1204  0.2558
   27MOL   C130 3822   7.183   5.057   4.332 -0.6254 -0.1895 -0.9790
   27MOL   N131 3823   7.197   4.967   4.267  0.4272 -0.4197  0.0216
   27MOL   H132 3824   7.207   5.310   4.256  1.3371  1.4045  1.2214
   27MOL   H133 3825   7.120   5.396   4.380 -2.7622 -0.6264  1.1281
   27MOL   H134 3826   7.061   5.139   4.457 -0.9354 -0.6637 -2.3562
   27MOL   C135 3827   7.253   5.218   4.524  0.0243 -0.1879  0.3212
   27MOL   C136 3828   7.341   5.097   4.569  0.4394 -0.7864 -0.0300
   27MOL   C137 3829   7.454   5.128   4.662  0.2596 -0.3286 -0.5529
   27MOL   N138 3830   7.540   5.157   4.735 -0.2851  0.5978  0.6291
   27MOL   H139 3831   7.315   5.297   4.482  1.2542 -1.9434 -1.2645
   27MOL   H140 3832   7.192   5.254   4.607  1.2402 -0.3217  1.2856
   27MOL   H141 3833   7.402   5.055   4.490 -0.2323  0.7576 -1.4063
   27MOL   H142 3834   7.280   5.025   4.623 -0.4276  0.0255  0.0923
   28MOL     C1 3835   2.048   5.973   0.322 -0.1083  0.6808 -0.4085
   28MOL     C2 3836   2.063   6.124   0.330 -0.0537 -0.2597 -0.4251
   28MOL     C3 3837   2.111   6.163   0.464 -0.1551 -0.0142 -0.2751
   28MOL     N4 3838   2.152   6.194   0.570 -0.1414  0.3429  0.2260
   28MOL     H5 3839   2.012   5.928   0.415 -1.4205  0.4022 -1.0372
   28MOL     H6 3840   2.128   5.910   0.282  1.8088  1.0222  2.6920
   28MOL     H7 3841   1.974   6.184   0.314  1.5730  1.7558 -2.3192
   28MOL     H8 3842   1.966   5.952   0.253 -1.3507  1.3611  0.8436
   28MOL     C9 3843   2.168   6.163   0.223 -0.4077 -0.4921  0.5706
   28MOL    C10 3844   2.122   6.151   0.071 -0.2091 -0.4256 -0.1895
   28MOL    C11 3845   2.023   6.253   0.029 -0.0306  0.1612  0.6657
   28MOL    N12 3846   1.950   6.335   8.311 -0.0666 -0.8446 -0.5933
   28MOL    H13 3847   2.203   6.264   0.244  3.0244 -0.8585 -2.8430
   28MOL    H14 3848   2.257   6.103   0.241 -0.4798 -1.2404 -1.4209
   28MOL    H15 3849   2.070   6.057   0.055 -1.1453  0.4159 -2.2363
   28MOL    C16 3850   2.231   6.139   8.285  0.5200 -0.0982 -0.2479
   28MOL    C17 3851   2.337   6.256   8.278 -0.2763  0.1644 -0.1574
   28MOL    C18 3852   2.454   6.229   0.060  0.4352 -0.7228 -0.3342
   28MOL    N19 3853   2.545   6.215   0.125 -0.6388  0.1921  1.0342
   28MOL    H20 3854   2.291   6.049   8.293  1.7931  0.8106  0.7111
   28MOL    H21 3855   2.191   6.124   8.185  0.6427  0.8109 -0.4424
   28MOL    H22 3856   2.299   6.358   8.294 -0.8498  0.2333 -1.8734
   28MOL    C23 3857   2.387   6.276   8.131  0.2827  0.4997  0.1096
   28MOL    C24 3858   2.497   6.388   8.123  0.2139 -0.1842 -0.2960
   28MOL    C25 3859   2.545   6.391   7.983  0.3318 -0.6614  0.2521
   28MOL    N26 3860   2.574   6.384   7.871 -0.0862  0.4647  0.0174
   28MOL    H27 3861   2.420   6.180   8.091  1.3344  1.0396 -0.3306
   28MOL    H28 3862   2.300   6.311   8.076 -0.6101 -0.1280  1.1038
   28MOL    H29 3863   2.586   6.352   8.174  0.7511 -2.4120 -2.7472
   28MOL    C30 3864   2.464   6.521   8.182  0.6782 -0.3783 -0.8153
   28MOL    C31 3865   2.566   6.628   8.162  0.3919  0.3296 -0.1602
   28MOL    C32 3866   2.540   6.692   8.034  0.4267  0.0813 -0.4307
   28MOL    N33 3867   2.520   6.746   7.932 -0.1794 -0.2386  0.3017
   28MOL    H34 3868   2.361   6.546   8.154  1.2936  2.1942 -0.8777
   28MOL    H35 3869   2.461   6.509   8.290 -1.9209 -1.2861 -0.9594
   28MOL    H36 3870   2.664   6.580   8.148  1.1106  0.9908  2.3422
   28MOL    C37 3871   2.572   6.725   8.280 -0.0594 -0.1630  0.2342
   28MOL    C38 3872   2.676   6.843   8.278 -0.2618 -0.5086  0.8592
   28MOL    C39 3873   2.638   6.948   8.178  0.0002 -0.0965 -0.2507
   28MOL    N40 3874   2.607   7.028   8.102 -0.3515  0.3888  0.0611
   28MOL    H41 3875   2.475   6.770   8.299  0.2331  1.1638 -1.2979
   28MOL    H42 3876   2.595   6.669   0.059  0.1737 -3.4271 -1.7449
   28MOL    H43 3877   2.773   6.795   8.260  0.7136  0.4826  3.2697
   28MOL    C44 3878   2.665   6.909   0.109  0.0075  0.0193  0.3946
   28MOL    C45 3879   2.768   7.018   0.144 -0.5239  0.2328  0.3364
   28MOL    C46 3880   2.729   7.067   0.279  0.0611  0.4542 -0.1779
   28MOL    N47 3881   2.699   7.101   0.383  0.1646 -0.3712  0.1165
   28MOL    H48 3882   2.567   6.955   0.121 -0.0687  0.3300 -1.2654
   28MOL    H49 3883   2.685   6.827   0.178  0.6472  1.4982  1.9963
   28MOL    H50 3884   2.768   7.088   0.061  0.3899  0.4717  0.5381
   28MOL    C51 3885   2.914   6.969   0.151  0.1782  0.2621 -0.1733
   28MOL    C52 3886   3.010   7.084   0.119 -0.6196  0.1505 -0.0458
   28MOL    C53 3887   2.980   7.210   0.187 -0.1347  0.0908 -0.6602
   28MOL    N54 3888   2.966   7.315   0.244  0.2547  0.5954  0.7410
   28MOL    H55 3889   2.932   6.927   0.250  1.0157  2.6593  0.7452
   28MOL    H56 3890   2.925   6.894   0.073 -0.3092 -0.5687  0.5561
   28MOL    H57 3891   2.980   7.117   0.020  1.2038  2.5911  0.1718
   28MOL    C58 3892   3.163   7.046   0.116  0.0691  0.0625 -0.0392
   28MOL    C59 3893   3.245   7.166   0.057  0.3677 -0.6158 -0.4310
   28MOL    C60 3894   3.362   7.191   0.143 -0.4501  0.0576 -0.0078
   28MOL    N61 3895   3.456   7.211   0.208  0.2212  0.2413  0.4683
   28MOL    H62 3896   3.198   7.022   0.216  1.1330  0.0863 -0.3989
   28MOL    H63 3897   3.175   6.958   0.052 -2.6203  0.0736 -0.6245
   28MOL    H64 3898   3.192   7.258   0.085 -0.9522 -1.3981 -0.3100
   28MOL    C65 3899   3.263   7.175   8.217  0.0872  0.3706 -0.3864
   28MOL    C66 3900   3.358   7.278   8.172 -0.4952 -0.4862  0.0433
   28MOL    C67 3901   3.364   7.268   8.026 -0.3682  0.3248 -0.9034
   28MOL    N68 3902   3.372   7.246   7.912 -0.1361  0.2648 -0.0613
   28MOL    H69 3903   3.286   7.079   8.173  1.1688 -0.9179  2.8288
   28MOL    H70 3904   3.170   7.203   8.167  0.1485  0.8346 -0.2428
   28MOL    H71 3905   3.449   7.244   8.220 -0.4678 -1.7107 -0.8578
   28MOL    C72 3906   3.326   7.420   8.208 -0.8935 -0.3052  0.3260
   28MOL    C73 3907   3.438   7.530   8.180 -0.4154  0.3665  0.1077
   28MOL    C74 3908   3.378   7.664   8.207 -0.0779  0.4222 -0.0393
   28MOL    N75 3909   3.335   7.767   8.237 -0.2433  0.1951 -0.0592
   28MOL    H76 3910   3.227   7.443   8.168 -0.4374  0.4653 -0.3841
   28MOL    H77 3911   3.305   7.431   0.002  0.1518 -1.3786  0.6638
   28MOL    H78 3912   3.455   7.527   8.072 -0.9529 -1.4567  0.0733
   28MOL    C79 3913   3.570   7.504   8.254  0.3516  0.0908 -0.5770
   28MOL    C80 3914   3.664   7.621   8.281 -0.1402 -0.0790  0.4049
   28MOL    C81 3915   3.745   7.593   0.087 -0.0600  0.4846  0.4294
   28MOL    N82 3916   3.805   7.563   0.179  0.1670  0.2441  0.2344
   28MOL    H83 3917   3.564   7.446   0.034 -0.4060 -1.2818 -1.4610
   28MOL    H84 3918   3.624   7.421   8.208  1.8939  0.3147  0.7660
   28MOL    H85 3919   3.608   7.714   8.291  0.2948  0.0419  1.7410
   28MOL    C86 3920   3.753   7.643   8.156  0.1389 -0.3460  0.3698
   28MOL    C87 3921   3.851   7.764   8.167 -0.1646  0.3193  0.2171
   28MOL    C88 3922   3.781   7.890   8.214 -0.3540  0.0383 -0.7060
   28MOL    N89 3923   3.734   7.988   8.253 -0.0180  0.4984  0.6243
   28MOL    H90 3924   3.801   7.553   8.117  2.3016 -0.3831  2.9371
   28MOL    H91 3925   3.688   7.663   8.071  1.5177 -0.9426 -0.8428
   28MOL    H92 3926   3.898   7.788   8.071  0.1427  2.1250  0.8069
   28MOL    C93 3927   3.976   7.720   8.244  0.0349  0.0752 -0.2597
   28MOL    C94 3928   4.045   7.582   8.212  0.4875 -0.6539  0.1827
   28MOL    C95 3929   4.068   7.572   8.066  0.9249  0.0034  0.5689
   28MOL    N96 3930   4.091   7.571   7.953 -0.1113  0.6996 -0.2145
   28MOL    H97 3931   4.054   7.796   8.241  1.0813 -0.9458  0.5624
   28MOL    H98 3932   3.946   7.725   0.036  0.9364 -1.6180  0.1066
   28MOL    H99 3933   3.982   7.495   8.229  0.4351 -0.6249  0.1350
   28MOL   C100 3934   4.189   7.563   8.273 -0.6951 -0.5947 -0.5384
   28MOL   C101 3935   4.186   7.531   0.113 -0.1790  0.3050 -1.0816
   28MOL   C102 3936   4.149   7.391   0.145  0.2640 -0.2540 -0.7719
   28MOL   N103 3937   4.121   7.280   0.163 -0.3940  0.5572 -0.3113
   28MOL   H104 3938   4.246   7.486   8.222 -0.4321 -0.8188  0.0893
   28MOL   H105 3939   4.257   7.644   8.249  1.0712 -0.9261  2.9298
   28MOL   H106 3940   4.110   7.597   0.156 -0.9478 -0.3201 -1.4709
   28MOL   C107 3941   4.318   7.560   0.193  0.1155 -0.7841 -0.7237
   28MOL   C108 3942   4.440   7.477   0.131  0.5980 -0.4173  0.0331
   28MOL   C109 3943   4.507   7.543   0.021  0.8235  0.0405  0.1128
   28MOL   N110 3944   4.566   7.594   8.245 -0.0680 -0.1279 -0.5181
   28MOL   H111 3945   4.347   7.663   0.174 -0.2497 -0.5894 -0.2055
   28MOL   H112 3946   4.307   7.546   0.300 -0.6426  1.2686 -0.5207
   28MOL   H113 3947   4.405   7.380   0.095 -0.0526  0.5251 -1.9640
   28MOL   C114 3948   4.535   7.436   0.252  0.1503 -0.5054  0.5685
   28MOL   C115 3949   4.673   7.377   0.215 -0.3422  0.0558 -0.2073
   28MOL   C116 3950   4.654   7.270   0.113  0.4682 -0.2809  0.0651
   28MOL   N117 3951   4.641   7.192   0.028 -0.2221 -0.2663 -0.2601
   28MOL   H118 3952   4.549   7.525   0.314  0.3555 -0.5975  0.6553
   28MOL   H119 3953   4.485   7.361   0.313 -0.0593 -1.2023 -0.4529
   28MOL   H120 3954   4.697   7.332   0.311 -0.2525  2.0108  0.7286
   28MOL   C121 3955   4.781   7.478   0.181  0.0288 -0.2640  0.2375
   28MOL   C122 3956   4.928   7.450   0.217  0.0253  0.1158 -0.0460
   28MOL   C123 3957   4.962   7.322   0.163  0.5996  0.5805  0.2765
   28MOL   N124 3958   4.984   7.213   0.125  0.0039  0.1320 -0.2588
   28MOL   H125 3959   4.773   7.496   0.074 -0.1850 -0.0573  0.2861
   28MOL   H126 3960   4.768   7.575   0.229  1.4285 -0.0840  0.2792
   28MOL   H127 3961   4.928   7.435   0.325  1.1403 -1.2556 -0.2292
   28MOL   C128 3962   5.019   7.569   0.174  0.0127 -0.5662  0.4424
   28MOL   C129 3963   5.162   7.555   0.217 -0.4556 -0.6483  0.0138
   28MOL   C130 3964   5.248   7.656   0.160 -0.4569 -0.1558  0.3659
   28MOL   N131 3965   5.319   7.735   0.109  0.6683 -0.3899 -0.1651
   28MOL   H132 3966   5.028   7.568   0.065  0.2987  1.2440  0.4429
   28MOL   H133 3967   4.985   7.664   0.215  0.0462 -0.2769 -0.1941
   28MOL   H134 3968   5.209   7.464   0.180  2.4620  0.7015  0.2791
   28MOL   C135 3969   5.174   7.548   0.368 -0.2702  0.2861  0.2280
   28MOL   C136 3970   5.309   7.493   0.426 -0.7290  0.1736  0.2250
   28MOL   C137 3971   5.427   7.572   0.432 -0.2469  0.3169 -0.5846
   28MOL   N138 3972   5.523   7.633   0.440 -0.1257 -0.2601 -0.5270
   28MOL   H139 3973   5.156   7.647   0.408  2.2658  0.7573  0.2522
   28MOL   H140 3974   5.100   7.485   0.418  0.2135 -1.5134 -1.2463
   28MOL   H141 3975   5.337   7.404   0.369 -1.2725  0.9158 -1.2270
   28MOL   H142 3976   5.281   7.457   0.525 -0.3575 -1.1904 -0.1479
   29MOL     C1 3977   3.349   3.453   4.862 -0.2319 -0.0501 -0.3477
   29MOL     C2 3978   3.236   3.540   4.794 -0.0046 -0.7105 -0.5669
   29MOL     C3 3979   3.295   3.674   4.783 -0.1650  0.1354  0.2795
   29MOL     N4 3980   3.346   3.777   4.770  0.8799  0.3140  0.2217
   29MOL     H5 3981   3.441   3.457   4.805  0.0336  1.1238  0.1480
   29MOL     H6 3982   3.313   3.354   4.891  1.4115 -0.4438  0.4382
   29MOL     H7 3983   3.152   3.551   4.864  1.9006 -2.3794  2.1046
   29MOL     H8 3984   3.380   3.499   4.956 -2.0170 -2.3008  1.4147
   29MOL     C9 3985   3.193   3.486   4.664  0.3466 -0.4860 -0.3203
   29MOL    C10 3986   3.107   3.358   4.660 -0.2979  0.1338 -0.0703
   29MOL    C11 3987   2.978   3.376   4.731  0.7048 -0.4849  0.1616
   29MOL    N12 3988   2.876   3.388   4.790 -0.3767 -0.0498 -0.2481
   29MOL    H13 3989   3.128   3.556   4.612 -0.7867 -1.9808 -0.9858
   29MOL    H14 3990   3.287   3.480   4.608  2.7233 -2.2077  3.6373
   29MOL    H15 3991   3.158   3.279   4.714 -1.0487  0.4929  1.1634
   29MOL    C16 3992   3.075   3.304   4.518  0.0819  0.1870  0.2972
   29MOL    C17 3993   3.033   3.154   4.516 -0.4428 -0.5686 -0.0547
   29MOL    C18 3994   2.964   3.139   4.385  0.3143  0.7042  0.2985
   29MOL    N19 3995   2.907   3.131   4.281  0.1381  0.0084  0.1343
   29MOL    H20 3996   2.999   3.366   4.469 -0.4394 -0.8300 -0.1944
   29MOL    H21 3997   3.153   3.316   4.442 -0.1165  1.8373  0.3355
   29MOL    H22 3998   2.954   3.145   4.591  0.1028 -0.2880  0.5552
   29MOL    C23 3999   3.149   3.056   4.552  0.5772  0.3390  0.0563
   29MOL    C24 4000   3.122   2.906   4.523  0.0178 -0.2206 -0.5042
   29MOL    C25 4001   3.258   2.850   4.519 -0.3684  0.0769 -0.2978
   29MOL    N26 4002   3.364   2.806   4.516 -0.1348 -0.1496  1.0281
   29MOL    H27 4003   3.235   3.099   4.500  1.6159  0.3978  1.7948
   29MOL    H28 4004   3.159   3.076   4.659 -1.1399  0.6104  0.1845
   29MOL    H29 4005   3.087   2.897   4.420  1.1326  0.4080 -0.9487
   29MOL    C30 4006   3.027   2.839   4.626 -0.5520  0.2826 -0.5639
   29MOL    C31 4007   2.993   2.694   4.584  0.3233  0.0831  0.1343
   29MOL    C32 4008   2.986   2.612   4.708 -0.1959  0.0997  0.5988
   29MOL    N33 4009   2.990   2.544   4.801 -0.0020  0.1193 -0.1509
   29MOL    H34 4010   3.073   2.836   4.725 -1.0894  1.1924 -0.2834
   29MOL    H35 4011   2.943   2.906   4.644 -0.6929 -0.0149 -0.0920
   29MOL    H36 4012   3.067   2.652   4.517 -0.6219 -0.6710 -0.4450
   29MOL    C37 4013   2.859   2.699   4.495 -0.1497  0.7083 -0.2061
   29MOL    C38 4014   2.828   2.568   4.422 -0.2535 -0.1387 -0.0559
   29MOL    C39 4015   2.927   2.535   4.317 -0.2653 -0.4467 -0.0057
   29MOL    N40 4016   3.006   2.512   4.243 -0.5080  0.0136  0.0139
   29MOL    H41 4017   2.772   2.718   4.558 -0.4700 -1.3630  0.0091
   29MOL    H42 4018   2.873   2.778   4.420  0.3193  1.5377  0.7307
   29MOL    H43 4019   2.738   2.582   4.362 -0.6012 -0.2153  0.4440
   29MOL    C44 4020   2.792   2.433   4.497 -0.0225 -0.4317 -0.5455
   29MOL    C45 4021   2.639   2.402   4.516 -0.3710 -0.2707 -0.1214
   29MOL    C46 4022   2.572   2.507   4.591  0.7161 -0.3538  0.5500
   29MOL    N47 4023   2.514   2.588   4.651 -0.3437 -0.1427  0.3130
   29MOL    H48 4024   2.828   2.351   4.436 -1.3975 -0.0546 -1.8884
   29MOL    H49 4025   2.850   2.417   4.588 -2.1042 -0.2163  0.8425
   29MOL    H50 4026   2.632   2.316   4.581  0.7932 -0.5105 -0.3028
   29MOL    C51 4027   2.563   2.364   4.382  0.6779  0.7344 -1.0316
   29MOL    C52 4028   2.462   2.246   4.392  0.0840 -0.2263  0.6572
   29MOL    C53 4029   2.386   2.249   4.517 -0.8504  0.2670  1.1552
   29MOL    N54 4030   2.323   2.237   4.615 -0.1743  1.3003  0.2515
   29MOL    H55 4031   2.507   2.454   4.354 -0.7341 -1.0211 -4.1156
   29MOL    H56 4032   2.637   2.359   4.302  1.6420 -3.3075  0.0275
   29MOL    H57 4033   2.530   2.162   4.406 -1.3416 -1.3413  0.9576
   29MOL    C58 4034   2.371   2.219   4.268 -0.5847 -0.3994  0.1523
   29MOL    C59 4035   2.447   2.167   4.146 -0.0648  0.4793  0.0251
   29MOL    C60 4036   2.523   2.051   4.184 -0.7580  0.5199 -0.0478
   29MOL    N61 4037   2.583   1.953   4.208  0.3117  0.1420 -0.0444
   29MOL    H62 4038   2.294   2.149   4.301 -3.5030  2.7178  0.1714
   29MOL    H63 4039   2.321   2.314   4.248  0.0185  0.2909  1.7862
   29MOL    H64 4040   2.522   2.242   4.120 -0.0729  0.1406 -0.9639
   29MOL    C65 4041   2.350   2.147   4.028 -0.3678 -0.0774  0.8013
   29MOL    C66 4042   2.303   2.273   3.954 -0.7195 -0.1983  1.0451
   29MOL    C67 4043   2.419   2.352   3.911  0.2775 -0.7606  0.5111
   29MOL    N68 4044   2.510   2.420   3.888  0.4147  0.3409  0.1919
   29MOL    H69 4045   2.410   2.096   3.953 -0.5508 -1.6860  1.7420
   29MOL    H70 4046   2.268   2.079   4.051  1.0539 -1.6171  1.4002
   29MOL    H71 4047   2.259   2.334   4.032 -0.3540  1.5909 -0.1338
   29MOL    C72 4048   2.203   2.250   3.844  0.0292 -0.7043  0.1372
   29MOL    C73 4049   2.215   2.336   3.718  0.1481 -0.0115 -0.3040
   29MOL    C74 4050   2.321   2.284   3.628 -0.1960  0.1125 -0.0666
   29MOL    N75 4051   2.408   2.249   3.562  0.3093 -0.6360 -0.0625
   29MOL    H76 4052   2.201   2.145   3.813 -0.2660 -0.8181  0.5409
   29MOL    H77 4053   2.105   2.270   3.887  0.4572  2.3485 -0.2420
   29MOL    H78 4054   2.242   2.437   3.750  2.0878 -0.0886 -1.5868
   29MOL    C79 4055   2.087   2.345   3.640 -0.2245 -0.1506 -0.6984
   29MOL    C80 4056   2.102   2.391   3.496 -0.1458 -0.3389  0.1119
   29MOL    C81 4057   2.162   2.286   3.404  0.4478  0.0940 -0.4930
   29MOL    N82 4058   2.209   2.209   3.333  0.0115 -0.1419 -0.1191
   29MOL    H83 4059   2.057   2.240   3.635  4.7408 -1.6947 -1.3460
   29MOL    H84 4060   2.015   2.404   3.697 -1.2844 -1.8154 -0.2767
   29MOL    H85 4061   2.174   2.473   3.494 -0.6459  0.2060  2.6006
   29MOL    C86 4062   1.963   2.442   3.445 -1.0570 -0.0387 -0.1810
   29MOL    C87 4063   1.874   2.338   3.376  0.1998  0.6281 -0.6794
   29MOL    C88 4064   1.869   2.205   3.438 -0.0010 -0.3650 -0.6432
   29MOL    N89 4065   1.872   2.104   3.489  0.4586  0.2070 -0.1394
   29MOL    H90 4066   1.905   2.485   3.527 -2.5096 -1.2273 -0.5635
   29MOL    H91 4067   1.985   2.528   3.381 -0.6907  0.0309  0.0362
   29MOL    H92 4068   1.924   2.324   3.279  0.5328 -3.1483 -0.0316
   29MOL    C93 4069   1.726   2.377   3.360 -0.4870 -0.7578  0.0446
   29MOL    C94 4070   1.708   2.481   3.251  0.4892 -0.2069 -0.7123
   29MOL    C95 4071   1.762   2.451   3.119 -0.4036  0.2460  0.1205
   29MOL    N96 4072   1.806   2.427   3.017  0.2264 -0.2095 -0.2027
   29MOL    H97 4073   1.665   2.294   3.327  0.2133 -1.4138  0.3730
   29MOL    H98 4074   1.682   2.410   3.454 -0.5825  1.5377 -0.7640
   29MOL    H99 4075   1.772   2.565   3.276 -0.6685  0.4799  0.0002
   29MOL   C100 4076   1.567   2.538   3.239 -0.5058 -0.2252  0.0778
   29MOL   C101 4077   1.460   2.435   3.202  0.4782  0.5188 -0.4556
   29MOL   C102 4078   1.329   2.472   3.264  0.3459 -0.2986 -0.3650
   29MOL   N103 4079   1.229   2.502   3.313 -0.0855 -0.6007 -0.6738
   29MOL   H104 4080   1.540   2.593   3.329  1.5819  1.5389 -0.3650
   29MOL   H105 4081   1.565   2.625   3.175 -2.2500 -1.1142 -1.1215
   29MOL   H106 4082   1.484   2.335   3.239 -0.9401  0.3909  0.1259
   29MOL   C107 4083   1.446   2.411   3.050  1.2956 -0.5283 -0.1540
   29MOL   C108 4084   1.364   2.288   3.001 -0.3220 -0.1276  0.3427
   29MOL   C109 4085   1.443   2.162   3.037  0.3030  0.1746  0.0336
   29MOL   N110 4086   1.506   2.067   3.064  0.1041 -0.3329  0.0692
   29MOL   H111 4087   1.416   2.504   3.001 -0.3413 -1.4929 -1.0239
   29MOL   H112 4088   1.546   2.392   3.010  0.9627 -2.6598 -0.0399
   29MOL   H113 4089   1.373   2.291   2.892 -0.1499  0.9998  0.3845
   29MOL   C114 4090   1.212   2.280   3.031  0.1471  0.2122  0.4071
   29MOL   C115 4091   1.123   2.398   2.990  0.7535  0.2578  0.2458
   29MOL   C116 4092   1.103   2.396   2.842 -0.5555  0.1281  0.7076
   29MOL   N117 4093   1.094   2.405   2.729  0.0912  0.6103 -0.0216
   29MOL   H118 4094   1.157   2.189   3.006 -0.6797  0.3271  1.7550
   29MOL   H119 4095   1.210   2.270   3.140 -0.7033 -2.1680  0.2033
   29MOL   H120 4096   1.172   2.492   3.017  0.5356  0.2241  0.7609
   29MOL   C121 4097   0.996   2.382   3.071  0.3990  0.2418  0.5851
   29MOL   C122 4098   0.885   2.488   3.053 -0.1139  0.0860 -0.1324
   29MOL   C123 4099   0.820   2.481   2.917 -0.1941  0.3648  0.0861
   29MOL   N124 4100   0.776   2.478   2.813  0.3407  0.4456  0.4616
   29MOL   H125 4101   0.952   2.289   3.035  0.3736  0.2688  0.5454
   29MOL   H126 4102   1.014   2.365   3.177 -1.1461 -2.4573  0.4560
   29MOL   H127 4103   0.937   2.584   3.046  1.8319 -1.0408 -1.7184
   29MOL   C128 4104   0.780   2.499   3.168 -0.3352 -0.4175  0.9187
   29MOL   C129 4105   0.660   2.601   3.158 -0.6948  0.0855 -0.1024
   29MOL   C130 4106   0.560   2.578   3.051  0.4883 -0.3169 -0.9477
   29MOL   N131 4107   0.477   2.559   2.972  0.1521  0.0100 -0.4291
   29MOL   H132 4108   0.743   2.400   3.193 -0.0108 -0.8822 -0.3711
   29MOL   H133 4109   0.838   2.524   3.256 -1.1026  2.6929  0.5846
   29MOL   H134 4110   0.707   2.697   3.134  1.8651 -1.1825 -0.3925
   29MOL   C135 4111   0.600   2.624   3.296  0.4617  0.5570 -0.4499
   29MOL   C136 4112   0.506   2.750   3.292 -0.0779  0.2771 -0.4892
   29MOL   C137 4113   0.566   2.885   3.271  0.0663  0.5816 -0.6358
   29MOL   N138 4114   0.609   2.995   3.258 -0.9724  0.7161 -0.4173
   29MOL   H139 4115   0.556   2.527   3.320 -0.1879  1.4151  1.9544
   29MOL   H140 4116   0.683   2.626   3.367 -0.0349 -1.5410  0.2334
   29MOL   H141 4117   0.466   2.754   3.393  0.8738  1.0978 -0.1461
   29MOL   H142 4118   0.419   2.733   3.228 -0.4636 -0.7127  0.2775
   30MOL     C1 4119   1.902   0.512   8.295  0.5576 -0.1166  0.7636
   30MOL     C2 4120   1.837   0.443   8.173 -0.3883  0.0117  0.4278
   30MOL     C3 4121   1.731   0.353   8.219  0.0019  0.6336  0.6686
   30MOL     N4 4122   1.649   0.283   8.256  0.6793  0.2391  0.5788
   30MOL     H5 4123   1.847   0.597   0.022  1.2361  1.3657 -1.3691
   30MOL     H6 4124   1.996   0.554   8.259 -0.0801 -0.1344 -0.9720
   30MOL     H7 4125   1.915   0.378   8.133  0.7003  2.0711 -0.8767
   30MOL     H8 4126   1.929   0.446   0.064  0.8199 -1.0424 -0.0617
   30MOL     C9 4127   1.785   0.548   8.076 -0.2032  0.3024  0.3157
   30MOL    C10 4128   1.638   0.599   8.116 -0.5386  0.1417  0.2373
   30MOL    C11 4129   1.629   0.694   8.226  0.2120 -0.2146  0.0558
   30MOL    N12 4130   1.622   0.770   8.310  0.0266  0.7759  0.0088
   30MOL    H13 4131   1.856   0.630   8.067 -0.0667  0.1263 -0.2331
   30MOL    H14 4132   1.768   0.510   7.975 -1.2960  1.1962  0.1411
   30MOL    H15 4133   1.587   0.507   8.145 -1.0604  0.5597  0.6582
   30MOL    C16 4134   1.564   0.666   7.992  0.9085 -0.0114  0.1992
   30MOL    C17 4135   1.403   0.672   8.004  0.3998  0.1642 -0.2693
   30MOL    C18 4136   1.357   0.539   8.033  0.4226  0.6972 -0.6965
   30MOL    N19 4137   1.321   0.430   8.058 -0.6245  0.0640  0.2298
   30MOL    H20 4138   1.606   0.766   7.981  0.7971 -0.0308 -0.4339
   30MOL    H21 4139   1.580   0.615   7.897 -0.4749 -1.8832  0.9203
   30MOL    H22 4140   1.377   0.692   7.900 -0.4402  0.9670  0.0893
   30MOL    C23 4141   1.346   0.774   8.110  0.0957  0.7210  0.6077
   30MOL    C24 4142   1.197   0.807   8.076  0.1191  0.1288 -0.2901
   30MOL    C25 4143   1.107   0.746   8.175  0.8044 -0.6012  0.3570
   30MOL    N26 4144   1.035   0.699   8.248  0.5232  0.1581 -0.3990
   30MOL    H27 4145   1.347   0.740   8.214 -1.3678 -2.4479 -0.3702
   30MOL    H28 4146   1.405   0.866   8.113 -0.3051  1.0955 -2.1828
   30MOL    H29 4147   1.181   0.755   7.981  0.2835  1.6435 -1.1682
   30MOL    C30 4148   1.178   0.955   8.052 -0.0736  0.1801 -0.6111
   30MOL    C31 4149   1.032   0.984   8.017  0.6362  0.2597  0.8432
   30MOL    C32 4150   0.986   0.923   7.889  0.0731 -0.2886 -0.0321
   30MOL    N33 4151   0.951   0.870   7.788 -0.8068 -0.4088 -0.2705
   30MOL    H34 4152   1.195   1.020   8.138  0.1191  2.3516 -2.2738
   30MOL    H35 4153   1.245   0.994   7.976  0.9469  2.4988  1.4250
   30MOL    H36 4154   1.037   1.091   7.996  0.4249  0.6575  2.7516
   30MOL    C37 4155   0.919   0.966   8.119  0.2237  0.5371 -0.3986
   30MOL    C38 4156   0.789   1.049   8.107  0.0046  0.0984 -0.7254
   30MOL    C39 4157   0.694   0.989   8.200 -1.0472 -0.1658 -0.2667
   30MOL    N40 4158   0.617   0.946   8.279 -0.3513 -0.5903  0.3033
   30MOL    H41 4159   0.891   0.861   8.105 -1.0879  0.6294  1.4878
   30MOL    H42 4160   0.956   0.986   8.220 -0.1330 -1.4561  0.1530
   30MOL    H43 4161   0.752   1.031   8.006 -0.3594 -1.0761 -0.3829
   30MOL    C44 4162   0.815   1.203   8.130  0.3867  0.1845  0.1021
   30MOL    C45 4163   0.707   1.276   8.206 -0.2545 -0.2587 -0.0649
   30MOL    C46 4164   0.708   1.252   0.041  0.3077  0.2682 -0.9501
   30MOL    N47 4165   0.701   1.236   0.157  0.0869  0.5282  0.8395
   30MOL    H48 4166   0.905   1.232   8.184 -0.0356 -1.2067  1.6131
   30MOL    H49 4167   0.827   1.257   8.036  0.6390 -3.0207 -1.7809
   30MOL    H50 4168   0.617   1.235   8.160 -1.3073  2.6872 -0.7447
   30MOL    C51 4169   0.704   1.429   8.171  0.8038  0.6477  0.3913
   30MOL    C52 4170   0.571   1.514   8.199  0.1748  1.0289 -0.8895
   30MOL    C53 4171   0.594   1.654   8.203 -0.6911  0.6144  0.2016
   30MOL    N54 4172   0.613   1.764   8.206 -0.6909 -0.2369  0.4130
   30MOL    H55 4173   0.785   1.475   8.228  2.6190  0.5863 -2.0636
   30MOL    H56 4174   0.725   1.442   8.065 -1.0625  1.1673  0.0555
   30MOL    H57 4175   0.545   1.489   8.302  2.6851  0.5296 -0.3395
   30MOL    C58 4176   0.451   1.474   8.108  0.0065  0.6378 -0.3360
   30MOL    C59 4177   0.473   1.474   7.950 -0.6988 -0.4271  0.3594
   30MOL    C60 4178   0.550   1.361   7.891  0.1482  0.5454  0.0070
   30MOL    N61 4179   0.613   1.279   7.851 -0.0682 -0.4232  0.5804
   30MOL    H62 4180   0.430   1.371   8.137 -0.4493  0.7284 -0.3471
   30MOL    H63 4181   0.369   1.536   8.142 -1.2272 -1.2050  0.1480
   30MOL    H64 4182   0.540   1.558   7.929  2.0859 -2.3920  1.1154
   30MOL    C65 4183   0.340   1.503   7.878  0.0280  0.4243  0.2006
   30MOL    C66 4184   0.350   1.522   7.720  0.6183  0.0054 -0.1438
   30MOL    C67 4185   0.374   1.397   7.641 -0.2642  0.2965  0.1281
   30MOL    N68 4186   0.392   1.295   7.581  0.2316 -0.0270  0.4050
   30MOL    H69 4187   0.256   1.439   7.906  2.5537 -3.1444 -0.0365
   30MOL    H70 4188   0.314   1.606   7.901  0.7972  0.6661  0.0143
   30MOL    H71 4189   0.439   1.584   7.711  0.9476 -0.3798  0.4668
   30MOL    C72 4190   0.229   1.604   7.667 -0.4328 -0.2714  0.2927
   30MOL    C73 4191   0.248   1.694   7.534  0.0599 -0.0775 -0.6920
   30MOL    C74 4192   0.326   1.818   7.561 -0.8865 -0.3800 -0.1087
   30MOL    N75 4193   0.386   1.914   7.587 -0.8248  0.1321 -0.1842
   30MOL    H76 4194   0.135   1.548   7.660  0.4185 -1.6558 -0.4591
   30MOL    H77 4195   0.186   1.675   7.736 -2.9885 -0.7596 -0.7290
   30MOL    H78 4196   0.143   1.709   7.507 -0.5741 -1.3223  0.9188
   30MOL    C79 4197   0.308   1.622   7.413 -0.2514 -0.3193  0.1342
   30MOL    C80 4198   0.222   1.638   7.283 -0.1301  0.1830  0.5345
   30MOL    C81 4199   0.208   1.784   7.269  0.1556 -0.4094  0.6958
   30MOL    N82 4200   0.204   1.899   7.254  0.8124  0.0153  0.4327
   30MOL    H83 4201   0.411   1.648   7.391 -0.2056  0.3508  1.1079
   30MOL    H84 4202   0.330   1.518   7.439 -1.0806 -0.6782 -0.5722
   30MOL    H85 4203   0.136   1.573   7.302 -0.9143  0.9229 -0.4246
   30MOL    C86 4204   0.298   1.577   7.154 -0.3436 -0.3864  0.3703
   30MOL    C87 4205   0.223   1.547   7.024 -0.0089 -0.5101  0.2054
   30MOL    C88 4206   0.145   1.667   6.978  0.3188 -0.4352 -0.6508
   30MOL    N89 4207   0.083   1.760   6.946  0.0159  0.6448 -0.2090
   30MOL    H90 4208   0.382   1.647   7.144 -0.1835 -0.2379  2.4549
   30MOL    H91 4209   0.358   1.491   7.186 -0.5771 -1.0641 -0.9759
   30MOL    H92 4210   0.142   1.481   7.055 -2.8183  1.6432 -2.2189
   30MOL    C93 4211   0.304   1.478   6.916 -0.6977 -0.1393 -0.0284
   30MOL    C94 4212   0.216   1.414   6.801 -0.7335 -0.5836 -0.0302
   30MOL    C95 4213   0.138   1.520   6.732 -0.0937  0.0253 -0.0084
   30MOL    N96 4214   0.079   1.602   6.677 -0.3176  0.2878  0.6234
   30MOL    H97 4215   0.385   1.544   6.885  0.3282 -0.4282  1.9393
   30MOL    H98 4216   0.348   1.388   6.959 -0.2642  0.1376  0.1125
   30MOL    H99 4217   0.137   1.349   6.838 -1.1250 -0.4902 -0.6935
   30MOL   C100 4218   0.316   1.347   6.714  1.0461 -0.1659 -0.6260
   30MOL   C101 4219   0.250   1.273   6.591 -0.3216 -0.5161 -0.0647
   30MOL   C102 4220   0.339   1.302   6.480  0.4700  0.4129 -0.5697
   30MOL   N103 4221   0.418   1.326   6.399  0.2337  0.5209 -0.4147
   30MOL   H104 4222   0.372   1.435   6.681 -0.6213  1.3123  0.4366
   30MOL   H105 4223   0.384   1.285   6.773  0.0725 -1.5436 -0.9161
   30MOL   H106 4224   0.155   1.321   6.569  0.1626  0.5228  0.0945
   30MOL   C107 4225   0.247   1.119   6.593 -0.6352 -0.3311 -0.5113
   30MOL   C108 4226   0.200   1.037   6.466 -0.5186 -0.0161 -0.3127
   30MOL   C109 4227   0.213   0.892   6.484 -0.0187 -0.4680  0.6237
   30MOL   N110 4228   0.220   0.780   6.498  0.3962  0.1710 -1.0024
   30MOL   H111 4229   0.346   1.088   6.626 -1.1397 -0.5680  0.7864
   30MOL   H112 4230   0.180   1.087   6.672  1.7447 -1.3056  1.1709
   30MOL   H113 4231   0.259   1.058   6.377  0.4482 -0.7346  0.1409
   30MOL   C114 4232   0.056   1.082   6.430  0.0114  0.1793  0.0920
   30MOL   C115 4233   8.311   1.023   6.290 -0.2530  0.2275 -0.2391
   30MOL   C116 4234   8.290   0.880   6.278 -0.3357 -0.3910  0.0953
   30MOL   N117 4235   8.267   0.767   6.276 -0.1166  0.4636  0.1019
   30MOL   H118 4236   8.302   1.062   6.513 -2.5105  0.0735 -1.8775
   30MOL   H119 4237   0.042   1.189   6.416 -0.8926 -0.1067 -1.3521
   30MOL   H120 4238   0.076   1.034   6.213  0.8809  1.2727  1.0184
   30MOL   C121 4239   8.178   1.100   6.248  0.3731 -0.5253  0.1078
   30MOL   C122 4240   8.055   1.066   6.340 -0.0921 -0.0041 -0.6792
   30MOL   C123 4241   8.071   1.137   6.471 -0.7684 -0.0071 -0.5768
   30MOL   N124 4242   8.076   1.193   6.572 -0.1045  0.1574 -0.4203
   30MOL   H125 4243   8.192   1.207   6.258 -1.1843 -0.3575  0.7540
   30MOL   H126 4244   8.159   1.076   6.144 -3.2171  0.9771  0.3216
   30MOL   H127 4245   8.050   0.960   6.365  2.2392  0.3200  1.4218
   30MOL   C128 4246   7.923   1.092   6.266  0.2890  0.6408 -0.0160
   30MOL   C129 4247   7.888   0.990   6.163 -0.0812 -0.3221  0.2422
   30MOL   C130 4248   7.882   0.855   6.218  0.8485  0.4099  0.7687
   30MOL   N131 4249   7.873   0.749   6.264 -0.2571 -0.3555 -0.2787
   30MOL   H132 4250   7.847   1.078   6.343  0.6881 -2.5948 -0.1529
   30MOL   H133 4251   7.932   1.191   6.220  0.4630  1.1937  1.1758
   30MOL   H134 4252   7.961   0.979   6.083 -0.3806  1.8518 -0.3805
   30MOL   C135 4253   7.754   1.022   6.102 -0.0403  0.4239  0.1057
   30MOL   C136 4254   7.757   1.146   6.019 -0.3915 -0.5509 -0.0252
   30MOL   C137 4255   7.891   1.175   5.960  0.3081 -0.0893 -0.3099
   30MOL   N138 4256   7.995   1.196   5.913  0.0056  0.2874 -0.4067
   30MOL   H139 4257   7.731   0.937   6.037 -1.6269  0.7137  0.2561
   30MOL   H140 4258   7.683   1.025   6.185  0.3643 -1.9545  0.5726
   30MOL   H141 4259   7.737   1.230   6.086  1.3194  0.5589 -0.8883
   30MOL   H142 4260   7.677   1.140   5.945 -1.8289 -0.4343  1.4789
   31MOL     C1 4261   1.843   5.420   4.834  0.0480  0.1088  0.5768
   31MOL     C2 4262   1.926   5.327   4.928  0.8851  0.2431  0.6541
   31MOL     C3 4263   2.024   5.397   5.018 -0.2343  0.2372 -0.5295
   31MOL     N4 4264   2.103   5.440   5.088 -1.0583 -0.5192 -0.2999
   31MOL     H5 4265   1.769   5.356   4.785  0.2675 -0.9856  1.6333
   31MOL     H6 4266   1.898   5.469   4.754 -0.1279  1.5690  1.3489
   31MOL     H7 4267   1.985   5.256   4.871  2.5557  2.3218 -0.2838
   31MOL     H8 4268   1.776   5.488   4.886 -0.3408  1.4026 -1.5736
   31MOL     C9 4269   1.835   5.244   5.016  0.2146  0.0714  0.5929
   31MOL    C10 4270   1.898   5.113   5.071 -0.4375  0.5283  0.2165
   31MOL    C11 4271   1.839   5.072   5.199  0.1159 -0.5604 -0.2095
   31MOL    N12 4272   1.791   5.049   5.303  0.1167  0.3764 -0.2560
   31MOL    H13 4273   1.807   5.298   5.107 -0.4380  1.6561 -0.5213
   31MOL    H14 4274   1.738   5.235   4.968 -0.1593  1.5601  1.0548
   31MOL    H15 4275   2.000   5.131   5.103 -0.2708 -1.5451  0.9083
   31MOL    C16 4276   1.929   4.996   4.969 -0.0617 -0.3207 -0.1815
   31MOL    C17 4277   1.960   4.867   5.030 -0.0143 -0.3543  0.6196
   31MOL    C18 4278   1.841   4.807   5.088 -0.2473 -0.3119 -0.7946
   31MOL    N19 4279   1.745   4.757   5.132  0.0309  0.0953  0.1623
   31MOL    H20 4280   1.839   4.979   4.911  0.3983 -3.4241 -0.0645
   31MOL    H21 4281   2.002   5.029   4.896 -1.7513  2.0497 -0.8465
   31MOL    H22 4282   2.021   4.891   5.117  0.7789  0.2998 -0.1001
   31MOL    C23 4283   2.027   4.773   4.925  0.5347 -0.5404  0.2323
   31MOL    C24 4284   2.090   4.651   4.993 -0.4780  0.1560 -0.1793
   31MOL    C25 4285   1.993   4.549   5.029 -0.0221  0.0873 -0.2688
   31MOL    N26 4286   1.915   4.467   5.063 -0.1156  0.2211 -0.2842
   31MOL    H27 4287   1.946   4.749   4.856  1.7820  3.6191 -2.9256
   31MOL    H28 4288   2.096   4.826   4.860  0.4870  0.1417  0.7234
   31MOL    H29 4289   2.131   4.675   5.091  1.6607 -2.4805 -0.3664
   31MOL    C30 4290   2.198   4.590   4.906  0.5456 -0.5730 -0.3874
   31MOL    C31 4291   2.155   4.511   4.779  0.1171  0.2258  0.5602
   31MOL    C32 4292   2.125   4.600   4.661  0.2885 -0.2977  0.1564
   31MOL    N33 4293   2.090   4.668   4.576 -0.2308  0.3999  0.0288
   31MOL    H34 4294   2.277   4.661   4.881 -0.4657  0.0796 -1.8278
   31MOL    H35 4295   2.248   4.521   4.974 -0.8372  0.5050  1.7809
   31MOL    H36 4296   2.058   4.461   4.778 -1.1516  2.6274  0.7817
   31MOL    C37 4297   2.252   4.398   4.736 -0.4784  0.8688 -0.0374
   31MOL    C38 4298   2.304   4.288   4.835  0.3468  0.1374 -0.4801
   31MOL    C39 4299   2.202   4.195   4.882 -0.8021 -0.4117  0.2188
   31MOL    N40 4300   2.118   4.124   4.924 -0.9586  0.8663 -0.2104
   31MOL    H41 4301   2.212   4.346   4.649 -0.4841 -0.3634  0.6874
   31MOL    H42 4302   2.339   4.450   4.695 -0.9836  1.1427 -0.7694
   31MOL    H43 4303   2.348   4.345   4.917  0.5534  0.8130 -1.0590
   31MOL    C44 4304   2.430   4.211   4.779 -0.2627 -0.6057 -0.3289
   31MOL    C45 4305   2.561   4.287   4.776 -0.7128 -0.1121  0.4176
   31MOL    C46 4306   2.622   4.273   4.913  0.5378 -0.0352  0.9738
   31MOL    N47 4307   2.665   4.260   5.017 -0.0491 -0.4194  0.4003
   31MOL    H48 4308   2.442   4.109   4.817 -2.4814  0.3636  3.2176
   31MOL    H49 4309   2.411   4.210   4.672  0.2493  0.1411 -0.4270
   31MOL    H50 4310   2.550   4.393   4.753 -1.0035 -0.0708  0.7459
   31MOL    C51 4311   2.661   4.245   4.663  0.4443 -0.0338  0.0424
   31MOL    C52 4312   2.655   4.335   4.535  0.3143 -0.9365 -0.4229
   31MOL    C53 4313   2.678   4.479   4.559 -0.1444 -0.3007 -0.4688
   31MOL    N54 4314   2.692   4.591   4.575  0.5143 -0.4298  0.1876
   31MOL    H55 4315   2.766   4.264   4.687  0.0564  0.2964  1.4622
   31MOL    H56 4316   2.646   4.138   4.648 -2.9936  0.4993 -0.7984
   31MOL    H57 4317   2.559   4.325   4.485  1.0816 -0.9810 -1.9295
   31MOL    C58 4318   2.745   4.288   4.415  0.0032 -0.3948 -0.3628
   31MOL    C59 4319   2.695   4.191   4.313  0.0479 -0.5977  0.2199
   31MOL    C60 4320   2.574   4.248   4.245  0.0860  0.6960  0.9860
   31MOL    N61 4321   2.481   4.289   4.184  0.0094  0.3326  0.2392
   31MOL    H62 4322   2.767   4.382   4.363  0.7505 -0.1762  0.3455
   31MOL    H63 4323   2.841   4.252   4.450 -0.3691 -1.2930 -0.2598
   31MOL    H64 4324   2.656   4.109   4.374 -0.5337 -0.9216 -0.5713
   31MOL    C65 4325   2.802   4.124   4.220 -0.9708  0.6313  0.2624
   31MOL    C66 4326   2.746   4.024   4.118 -0.7332 -0.4082  0.3604
   31MOL    C67 4327   2.618   3.959   4.161  0.9534 -0.1155 -0.9300
   31MOL    N68 4328   2.525   3.904   4.204  0.0160 -0.5784  0.4358
   31MOL    H69 4329   2.866   4.192   4.165 -0.7718  0.5789  0.4240
   31MOL    H70 4330   2.884   4.079   4.277 -1.5498 -2.0094 -0.8837
   31MOL    H71 4331   2.817   3.942   4.118  0.8772  0.9384 -1.4747
   31MOL    C72 4332   2.735   4.087   3.979 -0.0597  0.2961 -0.5384
   31MOL    C73 4333   2.730   3.982   3.860  0.3438 -0.6690 -0.3562
   31MOL    C74 4334   2.843   3.888   3.848  0.2676  0.1828  0.2987
   31MOL    N75 4335   2.929   3.808   3.836 -0.1995 -0.1664 -0.4133
   31MOL    H76 4336   2.644   4.145   3.996 -0.6807 -1.2138  1.6038
   31MOL    H77 4337   2.817   4.154   3.954  0.2849  0.5937  1.3097
   31MOL    H78 4338   2.726   4.043   3.770  0.5533 -0.1189  0.0085
   31MOL    C79 4339   2.602   3.895   3.867 -0.1720 -0.4521  0.1313
   31MOL    C80 4340   2.558   3.836   3.733 -0.1596 -1.1216 -0.3153
   31MOL    C81 4341   2.475   3.714   3.746 -0.7867 -0.0467 -0.0905
   31MOL    N82 4342   2.411   3.618   3.754  0.1977 -0.4847 -0.0503
   31MOL    H83 4343   2.613   3.813   3.938  0.7486  0.0188  0.5419
   31MOL    H84 4344   2.516   3.947   3.911 -1.1929 -0.4767 -1.7908
   31MOL    H85 4345   2.645   3.801   3.679 -0.0348 -1.2866 -0.0131
   31MOL    C86 4346   2.477   3.939   3.655  0.6709 -0.4247 -0.3310
   31MOL    C87 4347   2.424   3.903   3.515  0.1963  0.5406 -0.1948
   31MOL    C88 4348   2.315   3.795   3.512  0.1925  0.2564  0.8609
   31MOL    N89 4349   2.234   3.716   3.502  0.1274  0.3433  0.1698
   31MOL    H90 4350   2.390   3.958   3.718  2.0094  1.8767  0.8854
   31MOL    H91 4351   2.533   4.032   3.656  0.3924 -0.2617  0.0690
   31MOL    H92 4352   2.506   3.851   3.467  0.6540  1.3343 -0.2758
   31MOL    C93 4353   2.379   4.021   3.430  0.9188 -0.1800  0.5376
   31MOL    C94 4354   2.340   3.995   3.282  0.3244  0.3935  0.0427
   31MOL    C95 4355   2.310   4.122   3.221  0.2040 -0.0718 -0.0265
   31MOL    N96 4356   2.286   4.225   3.174  0.6771  0.1966  0.2033
   31MOL    H97 4357   2.298   4.074   3.481  0.5289  0.5541 -0.8319
   31MOL    H98 4358   2.457   4.097   3.429  1.0814 -0.3387  1.1041
   31MOL    H99 4359   2.239   3.956   3.277  0.7778 -0.7681 -0.2803
   31MOL   C100 4360   2.433   3.906   3.188 -0.2198 -0.2324  0.2589
   31MOL   C101 4361   2.568   3.976   3.157 -0.3619  0.4653  0.7976
   31MOL   C102 4362   2.663   3.968   3.271  0.5031 -0.5329 -0.1523
   31MOL   N103 4363   2.731   3.959   3.365  0.4517  0.6372  0.1286
   31MOL   H104 4364   2.448   3.813   3.242 -0.0569 -1.5326 -1.9688
   31MOL   H105 4365   2.379   3.896   3.094 -2.1542 -0.0438  1.3414
   31MOL   H106 4366   2.545   4.082   3.145 -2.1731  0.2131  1.9033
   31MOL   C107 4367   2.630   3.936   3.017  0.1298  0.1632 -0.9815
   31MOL   C108 4368   2.688   3.799   3.008 -0.1652  0.3153  0.3011
   31MOL   C109 4369   2.578   3.703   3.027 -0.0645 -0.5475  0.5227
   31MOL   N110 4370   2.490   3.632   3.031  0.1997  0.4373  0.1797
   31MOL   H111 4371   2.551   3.950   2.943 -0.1691  0.2801 -0.6403
   31MOL   H112 4372   2.699   4.020   3.015  0.1047  0.3796  3.1835
   31MOL   H113 4373   2.759   3.796   3.091 -0.7409  2.3205  0.8917
   31MOL   C114 4374   2.764   3.785   2.872 -0.2904  0.1129 -0.0328
   31MOL   C115 4375   2.908   3.837   2.881 -0.8547 -0.2598  0.3155
   31MOL   C116 4376   2.977   3.757   2.988  0.4458  1.0151 -0.3059
   31MOL   N117 4377   3.028   3.696   3.072  0.0940 -0.1620 -0.1527
   31MOL   H118 4378   2.774   3.680   2.845  0.2309  0.0046  0.5744
   31MOL   H119 4379   2.706   3.822   2.788  0.5086 -0.7998 -0.9976
   31MOL   H120 4380   2.913   3.942   2.908  0.4812 -0.3032  0.2727
   31MOL   C121 4381   2.983   3.808   2.749 -0.5408 -0.2184 -0.2366
   31MOL   C122 4382   2.935   3.902   2.629  0.1631  0.5303  0.0641
   31MOL   C123 4383   2.994   4.035   2.637 -0.7092  0.1361 -0.0092
   31MOL   N124 4384   3.046   4.140   2.649 -0.4162  0.6176 -0.1032
   31MOL   H125 4385   3.091   3.804   2.763 -0.3411 -0.8251 -1.8337
   31MOL   H126 4386   2.963   3.705   2.718  1.7837 -0.9351  0.5092
   31MOL   H127 4387   2.827   3.912   2.631 -0.0733 -1.8805  1.4506
   31MOL   C128 4388   2.988   3.836   2.499 -0.0104 -0.2710 -0.1224
   31MOL   C129 4389   2.919   3.875   2.367  0.5784 -0.0170  0.7613
   31MOL   C130 4390   2.908   4.022   2.352  0.6927  0.3688  1.0178
   31MOL   N131 4391   2.900   4.139   2.338  0.2120  0.9358  0.3200
   31MOL   H132 4392   3.094   3.862   2.488  0.0476  0.0200  1.0949
   31MOL   H133 4393   2.969   3.729   2.509 -0.3054 -0.3054 -1.0269
   31MOL   H134 4394   2.812   3.854   2.373  0.8678 -1.9551 -0.6970
   31MOL   C135 4395   2.984   3.803   2.246 -0.1088  0.2945 -0.0550
   31MOL   C136 4396   2.890   3.795   2.122 -0.0280 -0.0659 -0.3809
   31MOL   C137 4397   2.767   3.710   2.147 -0.3199 -0.2575 -0.3901
   31MOL   N138 4398   2.668   3.652   2.160  0.6277  0.5331 -0.1551
   31MOL   H139 4399   3.069   3.864   2.215 -0.4327  0.5476 -0.4360
   31MOL   H140 4400   3.025   3.704   2.266  0.8279  0.7343  0.2520
   31MOL   H141 4401   2.951   3.750   2.043  0.5810 -1.0372  0.6246
   31MOL   H142 4402   2.862   3.896   2.092 -1.8210 -0.4323  0.0099
   32MOL     C1 4403   1.609   3.281   8.076  0.2533  0.1161  0.4477
   32MOL     C2 4404   1.727   3.186   8.062  0.2453  0.3546  0.1263
   32MOL     C3 4405   1.829   3.214   8.166  0.7770  0.5965  0.3348
   32MOL     N4 4406   1.912   3.234   8.247  0.2496 -0.0494  0.5409
   32MOL     H5 4407   1.543   3.282   7.990 -0.8104 -2.1338  1.2119
   32MOL     H6 4408   1.648   3.383   8.081 -0.7770  0.5257  0.2095
   32MOL     H7 4409   1.773   3.208   7.966 -1.1618  1.9447 -0.2137
   32MOL     H8 4410   1.549   3.262   8.165  2.6733  1.4079  2.4291
   32MOL     C9 4411   1.681   3.039   8.084 -0.1152 -0.2759  0.5270
   32MOL    C10 4412   1.554   3.000   8.004 -0.0164 -0.1450  0.0585
   32MOL    C11 4413   1.570   3.039   7.863  0.1300  0.2456 -1.0501
   32MOL    N12 4414   1.581   3.080   7.755  0.2875 -0.7488  0.2808
   32MOL    H13 4415   1.765   2.973   8.062  0.4600  0.7812 -0.5132
   32MOL    H14 4416   1.654   3.024   8.188 -0.8969 -1.5887  0.1534
   32MOL    H15 4417   1.467   3.047   8.051 -0.3222 -1.8242  1.2205
   32MOL    C16 4418   1.538   2.841   8.013  0.0621  0.5215 -0.3034
   32MOL    C17 4419   1.415   2.775   7.954  0.5939 -0.4333 -0.3357
   32MOL    C18 4420   1.338   2.865   7.869 -0.7890 -0.1434 -0.0578
   32MOL    N19 4421   1.286   2.933   7.792 -0.2717  0.3392  0.0582
   32MOL    H20 4422   1.634   2.795   7.989 -0.9079 -1.0275 -1.3260
   32MOL    H21 4423   1.530   2.839   8.121  2.1787  3.0498 -0.0602
   32MOL    H22 4424   1.346   2.763   8.037 -0.2483  2.8035 -0.4833
   32MOL    C23 4425   1.452   2.643   7.889 -0.6422  0.9021  0.3372
   32MOL    C24 4426   1.332   2.558   7.828  0.4507  0.5912 -0.0660
   32MOL    C25 4427   1.272   2.619   7.701 -0.2205 -0.4043 -0.0982
   32MOL    N26 4428   1.222   2.665   7.603  0.5840 -0.1333  0.0312
   32MOL    H27 4429   1.526   2.651   7.810  0.4948 -0.4984  1.2315
   32MOL    H28 4430   1.508   2.576   7.955 -1.9480 -0.3052  0.2443
   32MOL    H29 4431   1.264   2.572   7.912  0.5639 -0.9945  0.2912
   32MOL    C30 4432   1.362   2.404   7.823 -0.1519 -0.3387  0.0919
   32MOL    C31 4433   1.316   2.337   7.949 -0.7985 -0.2645  0.0659
   32MOL    C32 4434   1.171   2.367   7.984  0.0508 -0.1890 -0.3110
   32MOL    N33 4435   1.058   2.390   8.011 -0.4236  0.6495  0.1160
   32MOL    H34 4436   1.328   2.357   7.731 -1.3206 -2.6647  1.6675
   32MOL    H35 4437   1.470   2.391   7.834  0.0607  0.8948 -0.5263
   32MOL    H36 4438   1.387   2.368   8.027  1.1428  0.1500 -1.8174
   32MOL    C37 4439   1.345   2.184   7.932 -0.0252  0.3763 -0.2758
   32MOL    C38 4440   1.394   2.112   8.055 -0.9819  0.0478  0.3282
   32MOL    C39 4441   1.536   2.133   8.084 -0.0502 -0.8598  0.3495
   32MOL    N40 4442   1.645   2.144   8.105  0.2176 -0.2394 -0.4209
   32MOL    H41 4443   1.251   2.132   7.911  0.0269 -0.1851  0.8581
   32MOL    H42 4444   1.418   2.165   7.853  0.4651  1.5118 -0.1092
   32MOL    H43 4445   1.380   2.009   8.026 -0.9378  0.1648 -0.1070
   32MOL    C44 4446   1.309   2.136   8.180  0.3105 -0.0190 -0.1753
   32MOL    C45 4447   1.321   2.037   8.296 -0.3413  0.2660 -0.7077
   32MOL    C46 4448   1.290   2.108   0.110  0.1016  0.2330 -0.2476
   32MOL    N47 4449   1.263   2.160   0.212  1.2173  0.1186 -0.3534
   32MOL    H48 4450   1.341   2.230   8.224  0.3169 -1.2571  2.6006
   32MOL    H49 4451   1.204   2.157   8.157  0.5615 -0.7818 -2.1212
   32MOL    H50 4452   1.426   2.007   8.286 -0.1156  0.2510  1.4192
   32MOL    C51 4453   1.235   1.908   8.271 -0.3544 -0.1404  0.0775
   32MOL    C52 4454   1.244   1.802   0.077  0.7259 -0.1327  0.7278
   32MOL    C53 4455   1.170   1.849   0.193  0.1629  0.0524 -0.1728
   32MOL    N54 4456   1.110   1.886   0.285 -0.7040 -0.2396  0.0376
   32MOL    H55 4457   1.134   1.946   8.255 -0.3144  0.0275  0.2223
   32MOL    H56 4458   1.265   1.859   8.178  1.8342  0.8032  0.2486
   32MOL    H57 4459   1.347   1.798   0.113  0.3870  0.6244  1.7942
   32MOL    C58 4460   1.187   1.665   0.033  0.4052  0.4890 -0.2126
   32MOL    C59 4461   1.186   1.552   0.146  0.9074 -0.2011  0.5160
   32MOL    C60 4462   1.120   1.435   0.081  0.5628  0.6043  0.1862
   32MOL    N61 4463   1.070   1.348   0.025  0.2379 -0.6423  0.1515
   32MOL    H62 4464   1.080   1.684   0.026  0.1970 -0.1250  1.2094
   32MOL    H63 4465   1.224   1.619   8.253  1.7276  1.5734 -0.2399
   32MOL    H64 4466   1.132   1.586   0.234  0.4557  0.4091  0.0135
   32MOL    C65 4467   1.332   1.533   0.187 -0.0096 -0.1267  0.1275
   32MOL    C66 4468   1.365   1.419   0.284  0.2192  0.1968 -0.2240
   32MOL    C67 4469   1.246   1.369   0.357  0.3528  0.4978 -0.2731
   32MOL    N68 4470   1.156   1.324   0.414  0.2172 -0.1197  0.3055
   32MOL    H69 4471   1.404   1.533   0.105 -0.3931 -1.0841 -0.2228
   32MOL    H70 4472   1.356   1.630   0.230 -1.1952 -0.5261  1.7704
   32MOL    H71 4473   1.429   1.454   0.366  0.3862 -0.2274 -0.1660
   32MOL    C72 4474   1.441   1.307   0.210 -0.5637 -0.6236  0.2958
   32MOL    C73 4475   1.595   1.322   0.211 -0.1015  0.1461  0.0333
   32MOL    C74 4476   1.649   1.331   0.349  0.1264 -0.1998  0.0343
   32MOL    N75 4477   1.699   1.336   0.453  0.2955 -0.1897  0.0531
   32MOL    H76 4478   1.413   1.209   0.246 -1.4254 -0.1961  0.8054
   32MOL    H77 4479   1.402   1.295   0.109 -0.6928  3.2765 -0.1888
   32MOL    H78 4480   1.626   1.420   0.175  0.7898  0.1480  0.7858
   32MOL    C79 4481   1.673   1.211   0.138 -0.4032 -0.3591  0.1412
   32MOL    C80 4482   1.670   1.232   8.300 -0.5940  0.4638  0.9742
   32MOL    C81 4483   1.712   1.369   8.269 -0.1487  0.3247  0.0342
   32MOL    N82 4484   1.747   1.476   8.236  0.4317 -1.1272 -0.1906
   32MOL    H83 4485   1.773   1.216   0.180 -1.4214  2.2046  2.3915
   32MOL    H84 4486   1.642   1.110   0.165  2.1200 -0.5274  2.5819
   32MOL    H85 4487   1.570   1.220   8.259 -0.0063  1.2931 -0.7443
   32MOL    C86 4488   1.747   1.127   8.219 -0.2903  0.9000 -0.2602
   32MOL    C87 4489   1.742   1.129   8.062 -0.4661  0.0778 -0.0224
   32MOL    C88 4490   1.802   1.002   8.010 -0.1216 -0.5930  0.3760
   32MOL    N89 4491   1.850   0.904   7.964 -0.1870  0.2377  0.2715
   32MOL    H90 4492   1.850   1.112   8.250 -0.4273  1.0200  0.2616
   32MOL    H91 4493   1.700   1.031   8.242 -0.3705  1.0456  0.1867
   32MOL    H92 4494   1.810   1.203   8.020 -1.5052  1.6694  1.0064
   32MOL    C93 4495   1.608   1.178   8.003 -0.1615  0.1189  0.2581
   32MOL    C94 4496   1.590   1.158   7.849 -0.2026  0.5586  0.3326
   32MOL    C95 4497   1.704   1.211   7.779 -0.1652  0.1386  1.0406
   32MOL    N96 4498   1.796   1.257   7.724 -0.5163 -0.5156 -0.0307
   32MOL    H97 4499   1.529   1.123   8.054  0.8370 -0.3650  1.3175
   32MOL    H98 4500   1.603   1.280   8.041 -2.0139  0.1588 -0.0566
   32MOL    H99 4501   1.504   1.222   7.828  0.9162  2.4670  1.3501
   32MOL   C100 4502   1.562   1.014   7.801 -0.1135  0.2590 -0.7344
   32MOL   C101 4503   1.450   1.006   7.688  0.0101 -0.2473  0.3193
   32MOL   C102 4504   1.327   1.078   7.733 -0.1403 -0.1994 -0.0698
   32MOL   N103 4505   1.227   1.128   7.774  0.1810  0.2619  0.5834
   32MOL   H104 4506   1.652   0.958   7.775 -0.2556 -0.4495  0.2542
   32MOL   H105 4507   1.530   0.965   7.893 -2.7749  0.1804 -1.6621
   32MOL   H106 4508   1.417   0.903   7.688  0.7187 -0.4770  0.7823
   32MOL   C107 4509   1.497   1.060   7.549 -0.0730  0.2145  0.0945
   32MOL   C108 4510   1.433   0.978   7.435  0.0605 -0.1317 -0.4072
   32MOL   C109 4511   1.290   1.018   7.410 -0.3461 -0.0036  0.5579
   32MOL   N110 4512   1.180   1.052   7.388 -0.1910 -0.0212  0.3394
   32MOL   H111 4513   1.475   1.165   7.533  2.3100  0.9022  1.2304
   32MOL   H112 4514   1.605   1.064   7.544  0.0706  0.1843  2.3685
   32MOL   H113 4515   1.429   0.874   7.466  0.8560 -0.0177  0.0878
   32MOL   C114 4516   1.509   0.996   7.305 -0.0741 -0.7783  0.3120
   32MOL   C115 4517   1.508   0.865   7.221 -0.6109  0.1605 -0.0283
   32MOL   C116 4518   1.376   0.832   7.170  0.1142 -0.0055 -0.6437
   32MOL   N117 4519   1.271   0.797   7.126 -0.2343  0.8661  0.3455
   32MOL   H118 4520   1.464   1.079   7.251  1.1410  0.6757  1.5117
   32MOL   H119 4521   1.613   1.028   7.304 -0.5201  0.6671 -2.7675
   32MOL   H120 4522   1.547   0.781   7.279  1.0665  0.2334 -1.0073
   32MOL   C121 4523   1.602   0.876   7.097  0.0839  0.3459  0.5619
   32MOL   C122 4524   1.755   0.883   7.118 -0.3111 -0.2821  0.1054
   32MOL   C123 4525   1.811   0.750   7.143  0.1991 -0.1515 -0.0252
   32MOL   N124 4526   1.857   0.645   7.158 -0.0181 -0.1785  0.0146
   32MOL   H125 4527   1.593   0.787   7.034  0.7760 -1.0826  2.4267
   32MOL   H126 4528   1.568   0.960   7.036 -0.3397 -0.5141 -0.3997
   32MOL   H127 4529   1.782   0.949   7.200  0.8211 -2.4525  1.5157
   32MOL   C128 4530   1.822   0.938   6.985 -0.0275 -0.7536  0.6743
   32MOL   C129 4531   1.965   0.978   6.987 -0.3891  0.6384 -0.3169
   32MOL   C130 4532   1.994   1.052   7.108 -0.1228 -0.5869  0.2300
   32MOL   N131 4533   2.024   1.112   7.196 -0.2377 -1.0197  0.1081
   32MOL   H132 4534   1.799   0.861   6.911 -2.6511 -0.2665  0.9406
   32MOL   H133 4535   1.764   1.024   6.952 -0.7260 -0.7243  1.9519
   32MOL   H134 4536   1.974   1.051   6.906 -0.8103 -1.8935 -2.6900
   32MOL   C135 4537   2.055   0.851   6.977  0.0980  0.1066 -0.8527
   32MOL   C136 4538   2.193   0.862   6.911 -0.4418 -0.1133  0.0955
   32MOL   C137 4539   2.202   0.935   6.781  0.6149 -0.5721  0.1873
   32MOL   N138 4540   2.215   0.991   6.681  0.6858  0.3548  0.7841
   32MOL   H139 4541   2.049   0.800   7.073 -0.7028 -0.9676 -1.4543
   32MOL   H140 4542   2.002   0.777   6.916 -0.4359  0.1478 -0.4512
   32MOL   H141 4543   2.234   0.761   6.905 -1.1254 -0.3826 -0.1664
   32MOL   H142 4544   2.262   0.922   6.970  3.4365 -1.9223 -2.4025
   33MOL     C1 4545   1.577   4.169   0.001 -0.0234 -0.0558  1.0730
   33MOL     C2 4546   1.625   4.088   0.122 -0.8337 -0.5578 -0.0313
   33MOL     C3 4547   1.522   4.068   0.216  0.1770 -0.0756 -0.5925
   33MOL     N4 4548   1.435   4.048   0.291  0.0952  0.2193 -0.0710
   33MOL     H5 4549   1.504   4.247   0.023  0.8066  0.9589  0.2438
   33MOL     H6 4550   1.519   4.108   8.243  0.5249  2.7617 -1.9297
   33MOL     H7 4551   1.703   4.140   0.179 -0.7619  0.2835 -0.8788
   33MOL     H8 4552   1.661   4.215   8.262 -0.9110  0.6607  0.2244
   33MOL     C9 4553   1.702   3.960   0.080  1.0033  0.4438  0.3607
   33MOL    C10 4554   1.772   3.880   0.191 -0.6584  0.8297  0.9105
   33MOL    C11 4555   1.679   3.787   0.260 -0.4767  0.5318 -0.2550
   33MOL    N12 4556   1.601   3.715   0.318 -0.4223 -0.1423  0.1589
   33MOL    H13 4557   1.631   3.891   0.035  0.0595  0.3105  2.0278
   33MOL    H14 4558   1.776   3.994   0.007 -0.1240  0.6259 -0.7234
   33MOL    H15 4559   1.819   3.946   0.264 -1.4438  2.2883  0.1293
   33MOL    C16 4560   1.900   3.811   0.139  0.6588  0.0451  0.0468
   33MOL    C17 4561   1.986   3.734   0.244 -0.3951 -0.4978  0.1247
   33MOL    C18 4562   1.920   3.632   0.321  0.7349 -0.7168 -0.1509
   33MOL    N19 4563   1.871   3.548   0.379 -0.2038 -0.2562 -0.1865
   33MOL    H20 4564   1.869   3.739   0.063 -0.0728  1.0512 -0.6310
   33MOL    H21 4565   1.954   3.889   0.085  4.4107 -0.3891  2.9909
   33MOL    H22 4566   2.005   3.803   0.326 -1.1398  0.8809 -0.8488
   33MOL    C23 4567   2.126   3.682   0.191 -0.4330 -0.2486  0.4849
   33MOL    C24 4568   2.222   3.791   0.139  0.6004 -0.4280  0.9517
   33MOL    C25 4569   2.227   3.897   0.235 -0.3068  0.2192 -0.1461
   33MOL    N26 4570   2.232   3.980   0.317  0.2591  0.3903  0.3394
   33MOL    H27 4571   2.177   3.624   0.268  2.7443  0.3780 -1.0730
   33MOL    H28 4572   2.104   3.608   0.114  1.9108  0.8969 -1.3363
   33MOL    H29 4573   2.185   3.841   0.049  2.9213 -0.7799 -0.2524
   33MOL    C30 4574   2.364   3.737   0.102 -0.3412 -0.2985 -0.3388
   33MOL    C31 4575   2.370   3.618   0.009  0.3971  0.5499  0.0454
   33MOL    C32 4576   2.261   3.622   8.216 -0.5170 -0.6033  0.0531
   33MOL    N33 4577   2.185   3.629   8.135 -0.0246  0.3177  0.4287
   33MOL    H34 4578   2.404   3.830   0.059 -0.4601  0.8186  1.8779
   33MOL    H35 4579   2.416   3.721   0.197  0.3500  1.1951 -0.4452
   33MOL    H36 4580   2.362   3.530   0.072  0.1748  0.3868 -0.2081
   33MOL    C37 4581   2.501   3.606   8.243  0.0048  0.0679  0.1203
   33MOL    C38 4582   2.620   3.569   0.024 -0.1065  0.1402  0.0119
   33MOL    C39 4583   2.666   3.660   0.135 -0.3937  0.4625 -0.3593
   33MOL    N40 4584   2.703   3.733   0.221 -0.7702  0.0345  0.2079
   33MOL    H41 4585   2.488   3.537   8.159  0.7452  0.6339 -0.4684
   33MOL    H42 4586   2.524   3.698   8.190 -2.5580  0.5831 -0.1709
   33MOL    H43 4587   2.705   3.579   8.269 -0.1287  0.1114 -0.0197
   33MOL    C44 4588   2.605   3.420   0.067  0.1758  0.5986 -0.2123
   33MOL    C45 4589   2.736   3.348   0.058  0.1604  0.5406 -0.1642
   33MOL    C46 4590   2.848   3.429   0.114  0.8354  0.5506  0.8114
   33MOL    N47 4591   2.932   3.491   0.168 -0.6740  0.6702 -0.0013
   33MOL    H48 4592   2.558   3.395   0.162 -1.5762 -1.7765 -1.6618
   33MOL    H49 4593   2.536   3.382   8.305  2.0452 -0.7130 -1.3147
   33MOL    H50 4594   2.766   3.341   8.266  0.3078 -1.0636 -0.0307
   33MOL    C51 4595   2.727   3.208   0.103 -0.0676 -0.0984  0.1922
   33MOL    C52 4596   2.846   3.121   0.123  0.5623 -0.9376  0.1185
   33MOL    C53 4597   2.940   3.132   0.015  0.1222 -0.0390  0.0850
   33MOL    N54 4598   3.018   3.138   8.244  0.2327  0.4586  0.6160
   33MOL    H55 4599   2.673   3.201   0.197  1.0654 -1.1137  0.7766
   33MOL    H56 4600   2.671   3.155   0.026  1.1705 -3.0558  1.2503
   33MOL    H57 4601   2.807   3.019   0.118  0.3118 -0.7917 -1.1211
   33MOL    C58 4602   2.917   3.142   0.252  0.1468  0.2536 -0.5563
   33MOL    C59 4603   2.996   3.024   0.310 -0.6076 -0.1383  0.5021
   33MOL    C60 4604   3.068   2.947   0.210 -0.7628 -0.4145 -1.4642
   33MOL    N61 4605   3.124   2.886   0.130  0.2423  0.3520 -0.3144
   33MOL    H62 4606   2.990   3.221   0.231  2.4066 -1.9196 -1.0876
   33MOL    H63 4607   2.861   3.170   0.342  0.5491 -2.5936  0.6471
   33MOL    H64 4608   2.920   2.950   0.337  0.6735 -2.1362 -1.1879
   33MOL    C65 4609   3.069   3.058   0.446 -0.8029 -0.2991 -0.3670
   33MOL    C66 4610   3.175   2.947   0.489 -0.0740  0.3191 -0.1648
   33MOL    C67 4611   3.304   2.955   0.428  0.4228 -0.8797 -0.1962
   33MOL    N68 4612   3.412   2.959   0.385  0.4235  0.3145 -0.4028
   33MOL    H69 4613   3.123   3.150   0.427 -1.6660  0.0384 -1.2357
   33MOL    H70 4614   2.997   3.069   0.528 -0.4447 -2.7137  0.3230
   33MOL    H71 4615   3.135   2.855   0.447  1.1317 -0.4326  0.3182
   33MOL    C72 4616   3.187   2.943   0.642  0.1918  0.4870  0.5656
   33MOL    C73 4617   3.268   2.821   0.693 -0.3426 -0.6402 -0.5529
   33MOL    C74 4618   3.242   2.701   0.611 -0.3030 -0.4873 -0.0561
   33MOL    N75 4619   3.225   2.609   0.545  0.2600 -0.3778  0.3183
   33MOL    H76 4620   3.212   3.036   0.693  1.8117 -0.2043  1.0824
   33MOL    H77 4621   3.087   2.920   0.679 -1.4945  1.9745 -2.8894
   33MOL    H78 4622   3.229   2.790   0.790  2.8338 -1.2478  0.5975
   33MOL    C79 4623   3.415   2.867   0.716  0.2388 -0.2415  0.4252
   33MOL    C80 4624   3.458   2.813   0.854  0.1152 -0.3147  0.5044
   33MOL    C81 4625   3.379   2.860   0.966  0.0184 -0.7879  0.1934
   33MOL    N82 4626   3.314   2.907   1.050 -0.2758  0.0149 -0.0526
   33MOL    H83 4627   3.467   2.836   0.626 -2.1097  0.3786 -1.2009
   33MOL    H84 4628   3.419   2.975   0.729  2.0119 -0.2186 -0.2837
   33MOL    H85 4629   3.557   2.849   0.883 -0.5598  0.6926  1.6052
   33MOL    C86 4630   3.467   2.662   0.849  0.0510  0.6868  0.4760
   33MOL    C87 4631   3.576   2.610   0.751 -0.6331 -0.0969  0.1479
   33MOL    C88 4632   3.706   2.693   0.762  0.9604  0.2979 -0.8955
   33MOL    N89 4633   3.805   2.757   0.774 -0.0524 -0.0125 -0.0064
   33MOL    H90 4634   3.499   2.630   0.948  0.3486 -1.3320 -0.2501
   33MOL    H91 4635   3.368   2.622   0.830  0.6202  0.2080 -1.6242
   33MOL    H92 4636   3.547   2.627   0.648  0.8361  3.4570  0.2604
   33MOL    C93 4637   3.597   2.459   0.756 -0.1346  0.4536  0.2131
   33MOL    C94 4638   3.702   2.393   0.669  0.7892  0.9812 -0.3626
   33MOL    C95 4639   3.839   2.425   0.699 -0.1322  0.0714 -0.0799
   33MOL    N96 4640   3.950   2.454   0.721  0.0057 -0.2982 -0.4405
   33MOL    H97 4641   3.600   2.439   0.863 -0.8522  0.9473  0.3289
   33MOL    H98 4642   3.503   2.415   0.724 -1.1895  0.7057  2.8649
   33MOL    H99 4643   3.692   2.438   0.570  1.2140  1.5039 -0.1722
   33MOL   C100 4644   3.698   2.239   0.677 -0.0605 -0.5567 -0.3281
   33MOL   C101 4645   3.574   2.183   0.614  0.2051 -0.1895 -0.1368
   33MOL   C102 4646   3.568   2.224   0.475 -0.0305  0.1706 -0.0660
   33MOL   N103 4647   3.561   2.263   0.361 -0.1702 -0.5677 -0.5200
   33MOL   H104 4648   3.791   2.199   0.636 -0.4962 -1.0750 -0.8156
   33MOL   H105 4649   3.704   2.212   0.782 -0.5616  0.4493 -0.0305
   33MOL   H106 4650   3.484   2.234   0.649 -1.9887 -3.1941 -1.2001
   33MOL   C107 4651   3.563   2.030   0.640  0.3586 -0.4957  0.0231
   33MOL   C108 4652   3.424   1.973   0.653  0.0903 -0.8640 -0.1968
   33MOL   C109 4653   3.362   1.954   0.523 -0.1743  0.3744  0.1450
   33MOL   N110 4654   3.314   1.943   0.421  0.2627  0.3591 -0.1698
   33MOL   H111 4655   3.615   1.980   0.559  1.7303 -1.7812  1.6581
   33MOL   H112 4656   3.619   2.010   0.731 -0.1041  0.6568  0.5696
   33MOL   H113 4657   3.356   2.047   0.696  0.4924 -1.2804  1.1843
   33MOL   C114 4658   3.434   1.848   0.739  0.2930 -0.7807  0.3115
   33MOL   C115 4659   3.298   1.784   0.781 -0.1019 -0.5024 -0.4118
   33MOL   C116 4660   3.221   1.881   0.863  0.3944 -0.2486  0.8613
   33MOL   N117 4661   3.160   1.947   0.934 -0.3458  0.0408 -0.3248
   33MOL   H118 4662   3.507   1.776   0.703  0.4460 -0.8953  0.8453
   33MOL   H119 4663   3.484   1.867   0.834  2.2596 -0.0358 -0.8401
   33MOL   H120 4664   3.346   1.717   0.852  0.4371  1.3573  1.0234
   33MOL   C121 4665   3.219   1.718   0.668  0.0766 -0.9295  0.2988
   33MOL   C122 4666   3.129   1.608   0.702  0.0216  0.0034 -0.0176
   33MOL   C123 4667   3.208   1.501   0.759  0.1019 -0.0364 -0.8734
   33MOL   N124 4668   3.265   1.412   0.798 -0.0651  0.0073 -0.0620
   33MOL   H125 4669   3.150   1.788   0.622 -0.7776 -1.3468  0.9215
   33MOL   H126 4670   3.284   1.693   0.584  0.5549 -0.3652  0.4973
   33MOL   H127 4671   3.079   1.568   0.613 -2.6944  0.9900  1.0211
   33MOL   C128 4672   3.012   1.642   0.796 -0.3413 -0.8287 -0.7982
   33MOL   C129 4673   2.901   1.543   0.783  0.1179  0.1921  0.2379
   33MOL   C130 4674   2.929   1.403   0.829 -0.3236 -0.1233  0.4633
   33MOL   N131 4675   2.949   1.296   0.864  0.0667  0.1157  0.2816
   33MOL   H132 4676   3.040   1.658   0.900  1.6350 -0.0884 -1.4064
   33MOL   H133 4677   2.977   1.741   0.766  0.0629 -1.2119 -2.6336
   33MOL   H134 4678   2.862   1.543   0.681  1.9915  2.0268 -0.5049
   33MOL   C135 4679   2.782   1.594   0.862  0.1997 -0.5610 -0.2559
   33MOL   C136 4680   2.662   1.500   0.863 -0.2303 -0.1108 -0.6660
   33MOL   C137 4681   2.617   1.455   0.733 -0.0420 -0.1194 -0.2807
   33MOL   N138 4682   2.586   1.420   0.628  0.6023  0.5158 -0.1710
   33MOL   H139 4683   2.811   1.600   0.967  0.6012 -2.3407 -0.2492
   33MOL   H140 4684   2.758   1.696   0.834  0.2474 -0.8730 -1.4271
   33MOL   H141 4685   2.577   1.548   0.911  0.9762  0.2990  1.1516
   33MOL   H142 4686   2.675   1.412   0.926 -1.6489 -0.5374 -0.9625
   34MOL     C1 4687   0.140   6.713   3.590  0.1877 -0.2271 -0.5013
   34MOL     C2 4688   0.030   6.814   3.564 -0.1754  0.7601  0.0196
   34MOL     C3 4689   0.067   6.948   3.510  0.4620  0.2299  0.3318
   34MOL     N4 4690   0.096   7.046   3.467  0.2729 -0.0496 -0.0478
   34MOL     H5 4691   0.206   6.766   3.658  0.8552  1.2112 -2.2158
   34MOL     H6 4692   0.215   6.699   3.512  0.1550 -2.4430 -0.1680
   34MOL     H7 4693   0.003   6.845   3.665  0.4998  0.8165  0.1829
   34MOL     H8 4694   0.115   6.617   3.634  0.4786  0.3526  0.9317
   34MOL     C9 4695   8.219   6.757   3.492  0.0188  0.2315  0.7011
   34MOL    C10 4696   8.242   6.710   3.346  0.2943 -0.7098 -0.1751
   34MOL    C11 4697   0.024   6.590   3.326  0.6865 -0.3437 -0.1317
   34MOL    N12 4698   0.102   6.505   3.321 -0.2383  0.3484  0.0368
   34MOL    H13 4699   8.184   6.673   3.551 -1.1499  0.6809  0.6599
   34MOL    H14 4700   8.148   6.838   3.509  0.4256  0.4516  1.3751
   34MOL    H15 4701   8.296   6.795   3.304  0.5476 -0.4080  0.7582
   34MOL    C16 4702   8.112   6.695   3.267  0.3733  0.3753  1.0256
   34MOL    C17 4703   8.041   6.550   3.274 -0.0238 -0.3174  0.6385
   34MOL    C18 4704   7.997   6.527   3.416  0.6515  0.2834  0.0474
   34MOL    N19 4705   7.968   6.506   3.529 -0.1426 -0.1940 -0.6458
   34MOL    H20 4706   8.042   6.770   3.302 -1.8626 -0.3978 -1.6041
   34MOL    H21 4707   8.132   6.719   3.162 -0.0099  0.4488  0.9693
   34MOL    H22 4708   8.111   6.467   3.258  1.8302  1.1482  1.0078
   34MOL    C23 4709   7.922   6.539   3.182  0.2374  0.1231  0.6480
   34MOL    C24 4710   7.892   6.395   3.149  0.0415 -0.0221  0.3984
   34MOL    C25 4711   7.838   6.322   3.266  0.4005  0.1838  0.1572
   34MOL    N26 4712   7.790   6.266   3.356 -0.4410  0.3978 -0.1102
   34MOL    H27 4713   7.836   6.590   3.224 -0.2922 -0.4404  0.2490
   34MOL    H28 4714   7.953   6.589   3.090  0.1096  1.2704  1.2326
   34MOL    H29 4715   7.980   6.338   3.121 -1.1220 -3.0488  2.6584
   34MOL    C30 4716   7.791   6.390   3.029  0.2863  0.0084 -0.0421
   34MOL    C31 4717   7.728   6.255   2.991 -0.2166 -0.0153  0.0386
   34MOL    C32 4718   7.619   6.284   2.893 -0.2698  0.4451 -0.0827
   34MOL    N33 4719   7.535   6.306   2.821 -0.8553  0.2849  0.2529
   34MOL    H34 4720   7.716   6.468   3.045 -0.2889 -0.3414 -0.9525
   34MOL    H35 4721   7.842   6.423   2.939 -0.7703  0.7458 -0.3740
   34MOL    H36 4722   7.676   6.219   3.080  1.7882 -0.6742  0.9790
   34MOL    C37 4723   7.844   6.159   2.937  0.2993 -0.6948 -0.4305
   34MOL    C38 4724   7.788   6.027   2.877 -0.7296 -0.2186 -0.0301
   34MOL    C39 4725   7.716   6.046   2.751  0.6925  0.5520  0.2549
   34MOL    N40 4726   7.655   6.054   2.651  0.0252  0.2290 -0.3192
   34MOL    H41 4727   7.889   6.211   2.852 -0.6669 -1.1149 -1.2122
   34MOL    H42 4728   7.928   6.145   3.005  0.8492  0.6614 -0.7978
   34MOL    H43 4729   7.720   5.977   2.947  0.4392 -0.0932  1.2088
   34MOL    C44 4730   7.901   5.920   2.868 -0.1939 -0.0632  0.0023
   34MOL    C45 4731   7.857   5.793   2.792  0.1968  0.6489  0.2639
   34MOL    C46 4732   7.891   5.798   2.647 -0.2698  0.7917 -0.1290
   34MOL    N47 4733   7.910   5.802   2.536 -0.3617 -0.1343 -1.0559
   34MOL    H48 4734   7.989   5.949   2.810 -0.5167 -2.1310 -1.6121
   34MOL    H49 4735   7.933   5.893   2.968 -0.9161 -0.9066  0.0177
   34MOL    H50 4736   7.748   5.800   2.793  0.1341 -0.3609  0.7901
   34MOL    C51 4737   7.908   5.668   2.852 -0.3811  0.2441 -0.4779
   34MOL    C52 4738   7.806   5.621   2.960  0.0134  0.3544  0.3655
   34MOL    C53 4739   7.766   5.477   2.945  0.0212  0.7342  0.2387
   34MOL    N54 4740   7.729   5.366   2.936 -0.0467 -0.1848  0.0891
   34MOL    H55 4741   7.923   5.600   2.767 -1.3094  0.5753 -0.9141
   34MOL    H56 4742   8.004   5.684   2.901 -2.4555  0.1516  3.8668
   34MOL    H57 4743   7.713   5.674   2.941 -0.6075 -1.0092 -0.4724
   34MOL    C58 4744   7.838   5.662   3.101  0.0433  0.9174 -0.2107
   34MOL    C59 4745   7.774   5.592   3.226 -0.5213 -0.4706 -0.1725
   34MOL    C60 4746   7.787   5.450   3.242  0.6696 -0.1768 -0.6878
   34MOL    N61 4747   7.790   5.336   3.247 -0.1461 -0.3773  0.3496
   34MOL    H62 4748   7.946   5.670   3.115 -0.1805 -0.1326  2.2446
   34MOL    H63 4749   7.816   5.769   3.110  0.7908  0.9235  1.7122
   34MOL    H64 4750   7.667   5.603   3.209 -0.6178 -0.5440  0.3823
   34MOL    C65 4751   7.796   5.664   3.359  0.9753 -0.3708 -0.1468
   34MOL    C66 4752   7.794   5.816   3.356  0.3507 -0.2108  0.2405
   34MOL    C67 4753   7.681   5.878   3.281 -0.4354  0.1780 -0.4971
   34MOL    N68 4754   7.600   5.924   3.220 -0.6948 -0.5653 -0.3638
   34MOL    H69 4755   7.711   5.620   3.411 -0.6697  0.3825 -2.1210
   34MOL    H70 4756   7.886   5.616   3.399  0.7567 -1.5817 -1.0642
   34MOL    H71 4757   7.885   5.857   3.311  1.3050 -2.1342  0.3434
   34MOL    C72 4758   7.801   5.860   3.506  0.3426  0.2077  0.5526
   34MOL    C73 4759   7.829   6.010   3.526  0.0678  0.0283  0.6709
   34MOL    C74 4760   7.733   6.075   3.613 -0.2784  0.6999 -0.8870
   34MOL    N75 4761   7.657   6.125   3.681 -0.0560 -0.9314  0.8107
   34MOL    H76 4762   7.705   5.838   3.552 -1.4238 -0.1016 -3.1301
   34MOL    H77 4763   7.866   5.802   3.572  0.6893 -0.1747 -0.1297
   34MOL    H78 4764   7.816   6.048   3.425  0.3422  0.3596  0.7599
   34MOL    C79 4765   7.978   6.033   3.559  0.4296  0.3101 -0.1067
   34MOL    C80 4766   8.078   5.973   3.458 -0.1420 -0.0868 -0.1416
   34MOL    C81 4767   8.087   6.032   3.325 -0.5205  0.4211 -0.4020
   34MOL    N82 4768   8.100   6.085   3.223  1.3290 -0.0955 -0.3676
   34MOL    H83 4769   7.993   6.140   3.568  1.2205  0.2573 -0.7750
   34MOL    H84 4770   7.987   5.985   3.657  3.2962  2.5501  0.7898
   34MOL    H85 4771   8.054   5.868   3.443  0.6369 -0.5068  1.4050
   34MOL    C86 4772   8.221   5.983   3.503  0.3201 -0.1097 -0.1221
   34MOL    C87 4773   8.278   6.127   3.533 -0.2941  0.4111  0.1924
   34MOL    C88 4774   0.012   6.134   3.677  0.0730  0.3009  0.2178
   34MOL    N89 4775   0.052   6.138   3.787 -0.2691  0.1516 -0.1770
   34MOL    H90 4776   8.229   5.920   3.592 -1.5488 -1.3515 -0.8051
   34MOL    H91 4777   8.274   5.923   3.429 -2.0376  0.2909 -2.1862
   34MOL    H92 4778   8.187   6.186   3.521 -1.3946 -1.3012 -0.0030
   34MOL    C93 4779   0.062   6.179   3.433 -0.4504  0.3278  0.3635
   34MOL    C94 4780   0.200   6.114   3.432 -0.6169  0.7069  0.3757
   34MOL    C95 4781   0.211   5.972   3.468  0.3535 -0.0697  0.1953
   34MOL    N96 4782   0.216   5.860   3.506 -0.1487 -0.9402 -0.6107
   34MOL    H97 4783   0.022   6.162   3.332 -0.6990  0.4503  0.4417
   34MOL    H98 4784   0.066   6.288   3.436  1.0933  0.3173 -0.9470
   34MOL    H99 4785   0.259   6.167   3.507  0.7213  0.8085 -0.7236
   34MOL   C100 4786   0.269   6.136   3.295  0.1488 -0.2062 -0.3953
   34MOL   C101 4787   0.422   6.093   3.301  0.5045  0.1187 -0.2458
   34MOL   C102 4788   0.475   6.050   3.169  0.4006 -0.2668  0.1201
   34MOL   N103 4789   0.519   6.017   3.069  0.4279  0.3388  0.7056
   34MOL   H104 4790   0.216   6.073   3.224  0.7965 -0.8209 -0.3495
   34MOL   H105 4791   0.263   6.236   3.251 -0.1235 -0.5486 -1.1442
   34MOL   H106 4792   0.422   6.018   3.380 -1.2362 -0.0115 -0.3475
   34MOL   C107 4793   0.505   6.215   3.354  0.0035  0.7471  0.5724
   34MOL   C108 4794   0.631   6.182   3.430  0.0769  0.4138  0.2908
   34MOL   C109 4795   0.728   6.102   3.354  0.5787 -0.4855 -0.7840
   34MOL   N110 4796   0.798   6.044   3.285 -0.4598  0.6646 -0.1453
   34MOL   H111 4797   0.531   6.265   3.261 -2.4521 -0.0662 -0.5953
   34MOL   H112 4798   0.447   6.288   3.411  0.7276  0.7727  1.2854
   34MOL   H113 4799   0.598   6.115   3.510 -0.6293  0.4319  0.0200
   34MOL   C114 4800   0.707   6.303   3.474  0.2362 -0.7388 -0.1680
   34MOL   C115 4801   0.678   6.344   3.619 -0.1548 -0.1218 -0.0227
   34MOL   C116 4802   0.714   6.233   3.710  0.4126 -0.5643  0.4509
   34MOL   N117 4803   0.737   6.143   3.777 -0.3749 -0.4061 -0.1186
   34MOL   H118 4804   0.816   6.290   3.470  0.4263  1.0823 -1.3368
   34MOL   H119 4805   0.682   6.381   3.403 -0.2600 -0.6146  0.1459
   34MOL   H120 4806   0.571   6.363   3.624 -0.0717  0.9356 -1.7619
   34MOL   C121 4807   0.750   6.477   3.667 -0.7010 -0.1131  0.3456
   34MOL   C122 4808   0.719   6.531   3.808  0.2058 -0.2286  0.3067
   34MOL   C123 4809   0.837   6.596   3.871  0.3077  0.2577 -0.8241
   34MOL   N124 4810   0.927   6.654   3.914  0.5070  0.4138 -0.1224
   34MOL   H125 4811   0.858   6.467   3.659 -0.9344 -2.1566 -0.7289
   34MOL   H126 4812   0.723   6.561   3.603 -0.0573 -1.0360 -1.1610
   34MOL   H127 4813   0.703   6.444   3.871 -0.8482  0.4919  1.0503
   34MOL   C128 4814   0.585   6.608   3.811 -0.3024 -0.4284 -0.0011
   34MOL   C129 4815   0.591   6.756   3.853 -0.6325 -0.4830  0.0095
   34MOL   C130 4816   0.684   6.831   3.765  0.8226 -0.1366 -0.4925
   34MOL   N131 4817   0.760   6.892   3.702 -0.2399  0.4067  0.2104
   34MOL   H132 4818   0.546   6.604   3.710  1.0063 -0.4126 -0.5128
   34MOL   H133 4819   0.509   6.559   3.873 -1.8062  3.5888  1.4635
   34MOL   H134 4820   0.636   6.760   3.952  0.6707  2.1062 -0.6474
   34MOL   C135 4821   0.462   6.825   3.858  0.0155  0.6010 -0.3613
   34MOL   C136 4822   0.352   6.753   3.930 -0.2796 -0.0127  0.7700
   34MOL   C137 4823   0.378   6.682   4.058  0.5832  1.0215 -0.7298
   34MOL   N138 4824   0.391   6.619   4.156 -0.5083  0.3433 -0.0087
   34MOL   H139 4825   0.487   6.920   3.905 -0.9591  0.1461  1.1044
   34MOL   H140 4826   0.419   6.863   3.765 -1.4758 -1.6034 -0.6063
   34MOL   H141 4827   0.307   6.683   3.860  1.3182  0.2147 -0.5311
   34MOL   H142 4828   0.276   6.825   3.960  1.2640  0.4792  3.7000
   35MOL     C1 4829   6.039   7.477   7.481 -0.4096  0.7118 -0.1364
   35MOL     C2 4830   5.888   7.445   7.463 -0.1024 -0.0285 -0.2300
   35MOL     C3 4831   5.853   7.320   7.532 -0.3111 -0.1419 -0.1236
   35MOL     N4 4832   5.823   7.224   7.584  0.3076  0.3407  0.2478
   35MOL     H5 4833   6.068   7.565   7.424 -3.1573  2.0671  0.4705
   35MOL     H6 4834   6.106   7.396   7.453  1.5484  2.5464 -0.8983
   35MOL     H7 4835   5.872   7.422   7.358 -2.8518 -0.0767  0.1488
   35MOL     H8 4836   6.056   7.487   7.589 -1.8433  3.8413 -0.1441
   35MOL     C9 4837   5.796   7.566   7.498 -0.0388  0.2682  0.0641
   35MOL    C10 4838   5.730   7.559   7.639  0.2902 -0.4876 -0.2168
   35MOL    C11 4839   5.829   7.562   7.758  0.1960 -0.7149  0.2183
   35MOL    N12 4840   5.904   7.581   7.847 -0.4238  0.5460  0.1369
   35MOL    H13 4841   5.846   7.662   7.486 -0.6148  0.7013  1.0642
   35MOL    H14 4842   5.713   7.561   7.427 -1.4150  1.5737  1.5372
   35MOL    H15 4843   5.668   7.469   7.641 -3.7063  2.1422  1.1938
   35MOL    C16 4844   5.633   7.682   7.654 -0.1626  0.5530  0.4854
   35MOL    C17 4845   5.693   7.814   7.695  0.2052 -0.0667  0.7798
   35MOL    C18 4846   5.735   7.915   7.590 -0.3294 -0.6310  0.1413
   35MOL    N19 4847   5.766   7.985   7.503 -0.0184 -0.2735 -0.4854
   35MOL    H20 4848   5.585   7.692   7.556  0.7517  1.3287  0.1030
   35MOL    H21 4849   5.553   7.656   7.723 -1.2427  0.1272 -0.9041
   35MOL    H22 4850   5.789   7.802   7.744  0.0440  0.5567  1.2641
   35MOL    C23 4851   5.602   7.899   7.789 -0.1216  0.9095 -0.2600
   35MOL    C24 4852   5.473   7.961   7.723 -0.2999 -0.6452  0.3025
   35MOL    C25 4853   5.378   7.854   7.719  0.2105  0.3571  0.6367
   35MOL    N26 4854   5.300   7.769   7.723 -0.1324  0.0586  0.5347
   35MOL    H27 4855   5.577   7.846   7.881 -0.2549 -2.4235 -2.1666
   35MOL    H28 4856   5.664   7.979   7.831  1.4732 -1.1720  1.4795
   35MOL    H29 4857   5.490   7.973   7.616 -0.2388 -0.9587  0.2769
   35MOL    C30 4858   5.429   8.083   7.802 -0.1774 -0.1685  0.2116
   35MOL    C31 4859   5.327   8.177   7.724  0.0368  0.1036  0.0975
   35MOL    C32 4860   5.369   8.216   7.592 -0.2314 -0.1824  0.3611
   35MOL    N33 4861   5.407   8.243   7.484  0.4522  0.0699  0.1442
   35MOL    H34 4862   5.398   8.050   7.901 -0.2369  1.8016  0.8775
   35MOL    H35 4863   5.515   8.145   7.824 -0.5644  0.3098  0.3708
   35MOL    H36 4864   5.322   8.272   7.778 -0.0694 -0.3007  0.8052
   35MOL    C37 4865   5.191   8.114   7.698  0.2651  0.4688 -0.1180
   35MOL    C38 4866   5.072   8.203   7.646  0.5745 -0.2562  0.0116
   35MOL    C39 4867   5.104   0.031   7.636  0.1768  0.2044  0.3291
   35MOL    N40 4868   5.131   0.141   7.629  0.0331  0.3082 -0.5040
   35MOL    H41 4869   5.193   8.027   7.632 -0.2668 -0.2620  0.8178
   35MOL    H42 4870   5.159   8.068   7.791 -1.0095 -0.6008 -1.0560
   35MOL    H43 4871   4.990   8.194   7.718  0.1901 -3.7007 -0.7732
   35MOL    C44 4872   5.014   8.172   7.513  0.7913 -0.0491  0.1403
   35MOL    C45 4873   4.857   8.167   7.506 -0.2283  0.2359  0.4544
   35MOL    C46 4874   4.797   8.300   7.496 -0.0134  0.0536 -0.8123
   35MOL    N47 4875   4.753   0.096   7.481 -0.6914  0.1050 -0.3029
   35MOL    H48 4876   5.030   8.253   7.442 -0.6531  0.1803  0.0439
   35MOL    H49 4877   5.060   8.087   7.465  1.5520 -0.3963  1.4656
   35MOL    H50 4878   4.814   8.118   7.593 -1.4211  1.9692  0.8647
   35MOL    C51 4879   4.794   8.084   7.394  0.3733 -0.4128 -0.0146
   35MOL    C52 4880   4.759   7.944   7.438  0.2300 -0.1327 -0.5840
   35MOL    C53 4881   4.708   7.865   7.326  0.3865  0.5001 -0.1876
   35MOL    N54 4882   4.670   7.804   7.236  0.0324 -0.4849  0.0886
   35MOL    H55 4883   4.712   8.141   7.350 -2.0652 -3.7715 -0.0397
   35MOL    H56 4884   4.857   8.069   7.307 -0.0472 -0.0545 -0.3871
   35MOL    H57 4885   4.682   7.945   7.515 -0.7959  2.1400 -1.5958
   35MOL    C58 4886   4.889   7.873   7.489  0.0608  0.3238  0.1986
   35MOL    C59 4887   4.878   7.722   7.530 -0.4209  0.2415 -1.2093
   35MOL    C60 4888   4.856   7.625   7.416 -0.5522  0.4996 -0.1840
   35MOL    N61 4889   4.840   7.548   7.328  0.3162 -0.0947  0.0029
   35MOL    H62 4890   4.969   7.882   7.416 -0.0945 -0.9706 -0.1395
   35MOL    H63 4891   4.927   7.924   7.577  1.5300 -1.3301  0.5407
   35MOL    H64 4892   4.790   7.710   7.594 -0.8351  2.3924 -1.3355
   35MOL    C65 4893   5.002   7.680   7.603 -0.1421  0.1225  0.9071
   35MOL    C66 4894   5.009   7.523   7.623 -0.0278  0.5694 -0.1560
   35MOL    C67 4895   5.081   7.464   7.513 -0.3685  1.1327  0.1672
   35MOL    N68 4896   5.139   7.418   7.427 -0.3941  0.6625  0.1822
   35MOL    H69 4897   5.087   7.720   7.547 -1.1138  0.5158 -0.3007
   35MOL    H70 4898   5.007   7.732   7.698  0.1205  3.0029 -0.6289
   35MOL    H71 4899   4.911   7.476   7.619 -0.7042  1.7587  1.8811
   35MOL    C72 4900   5.083   7.483   7.755  0.0888 -0.2239 -0.0095
   35MOL    C73 4901   5.131   7.330   7.775  0.3049 -0.6166 -0.1547
   35MOL    C74 4902   5.266   7.320   7.726 -0.5019 -0.3824  0.8946
   35MOL    N75 4903   5.379   7.322   7.695 -0.8309  0.0095  0.9290
   35MOL    H76 4904   5.167   7.548   7.781 -0.8926  1.6884 -1.4720
   35MOL    H77 4905   5.000   7.503   7.822 -0.8411 -2.7594 -0.3454
   35MOL    H78 4906   5.060   7.267   7.722 -0.9415  1.9944 -1.6859
   35MOL    C79 4907   5.143   7.295   7.925 -0.1286 -1.0132  0.1279
   35MOL    C80 4908   5.197   7.396   8.026  0.2636  0.9766 -0.4428
   35MOL    C81 4909   5.092   7.498   8.070 -0.4901  0.2631  0.2623
   35MOL    N82 4910   5.012   7.570   8.104 -0.1600 -0.0545  0.0113
   35MOL    H83 4911   5.045   7.260   7.959  1.0419 -1.8771  2.7372
   35MOL    H84 4912   5.210   7.209   7.924  1.5475  0.2848 -0.6533
   35MOL    H85 4913   5.282   7.456   7.994 -0.9009  2.6548 -0.4862
   35MOL    C86 4914   5.240   7.324   8.154 -0.2388 -0.0899 -0.3500
   35MOL    C87 4915   5.376   7.262   8.146  0.3681  0.0204 -0.8179
   35MOL    C88 4916   5.481   7.361   8.128 -0.6227  0.2415  0.1874
   35MOL    N89 4917   5.563   7.440   8.108 -0.7663  0.1465  0.2430
   35MOL    H90 4918   5.243   7.406   8.225  0.4473  1.6855 -2.3606
   35MOL    H91 4919   5.157   7.258   8.179 -0.8127  0.4123 -0.9076
   35MOL    H92 4920   5.378   7.205   8.054 -1.5884  0.7179 -1.3101
   35MOL    C93 4921   5.396   7.173   8.270  0.1912  0.5313 -0.2487
   35MOL    C94 4922   5.543   7.141   8.307 -0.4183  0.4912  0.4678
   35MOL    C95 4923   5.551   7.104   0.138 -0.9216 -0.3222 -0.5578
   35MOL    N96 4924   5.562   7.071   0.248 -0.3981  0.4058 -0.0154
   35MOL    H97 4925   5.351   7.223   0.044  0.7352  1.8834 -0.7307
   35MOL    H98 4926   5.343   7.078   8.267 -0.9554  1.2005 -1.4363
   35MOL    H99 4927   5.598   7.236   8.312 -1.4568  1.1767 -1.0034
   35MOL   C100 4928   5.602   7.034   8.215 -0.8364  0.0016 -0.7534
   35MOL   C101 4929   5.754   7.011   8.241  0.5960 -0.2706 -0.1157
   35MOL   C102 4930   5.789   6.960   0.064 -0.5747 -0.0105  0.0627
   35MOL   N103 4931   5.819   6.921   0.168  0.0209  0.3411 -0.2381
   35MOL   H104 4932   5.545   6.941   8.222 -0.2486 -0.2685  0.6428
   35MOL   H105 4933   5.591   7.070   8.113  1.1047  0.7963 -0.6996
   35MOL   H106 4934   5.814   7.102   8.237  0.3618 -0.0968  0.3755
   35MOL   C107 4935   5.813   6.920   8.131  0.1299 -0.2073 -0.4840
   35MOL   C108 4936   5.923   6.821   8.175  0.1717 -0.5927 -0.2109
   35MOL   C109 4937   5.948   6.721   8.072  0.0599 -0.2680  0.6248
   35MOL   N110 4938   5.968   6.649   7.986 -0.7305 -0.7046 -0.0827
   35MOL   H111 4939   5.730   6.874   8.078 -0.1742 -1.3412  0.9564
   35MOL   H112 4940   5.854   6.986   8.054 -1.0811  0.7324 -0.3431
   35MOL   H113 4941   5.882   6.764   8.258  0.7606 -0.9110 -0.1334
   35MOL   C114 4942   6.054   6.891   8.231 -0.1526 -1.3295  0.0228
   35MOL   C115 4943   6.161   6.803   8.297 -0.0352 -0.5278  0.4202
   35MOL   C116 4944   6.091   6.712   0.076 -0.1199 -0.5810  0.4662
   35MOL   N117 4945   6.046   6.634   0.146  0.7952  0.4321 -0.4515
   35MOL   H118 4946   6.090   6.952   8.149  1.7048 -0.5125  1.4318
   35MOL   H119 4947   6.025   6.962   8.308  0.3024 -0.4848 -0.5894
   35MOL   H120 4948   6.229   6.858   0.049 -0.7794  1.2893 -0.3012
   35MOL   C121 4949   6.250   6.728   8.198 -1.1503  0.1487 -0.9096
   35MOL   C122 4950   6.379   6.665   8.254  0.7059 -0.9426 -0.2266
   35MOL   C123 4951   6.357   6.573   0.056  0.2832  0.0586  0.0873
   35MOL   N124 4952   6.351   6.499   0.143 -0.3500 -0.7100  0.4846
   35MOL   H125 4953   6.188   6.642   8.171 -0.7163 -0.3738 -0.2499
   35MOL   H126 4954   6.268   6.789   8.109  0.5233  0.9969 -0.0086
   35MOL   H127 4955   6.450   6.736   8.295 -0.7974  0.8728 -0.6952
   35MOL   C128 4956   6.446   6.582   8.143  0.1813  0.3270  1.1895
   35MOL   C129 4957   6.561   6.491   8.188 -0.9560  0.5529 -0.3884
   35MOL   C130 4958   6.608   6.396   8.075  0.0223 -0.3086  0.1847
   35MOL   N131 4959   6.636   6.327   7.991 -0.1637 -0.4756  0.0919
   35MOL   H132 4960   6.373   6.524   8.087 -2.4523  1.9027  2.8761
   35MOL   H133 4961   6.471   6.654   8.064 -1.2511 -1.5848 -1.0753
   35MOL   H134 4962   6.522   6.416   8.257 -0.0779  0.8561  0.4380
   35MOL   C135 4963   6.678   6.560   8.251 -0.7836  0.3299  0.6953
   35MOL   C136 4964   6.738   6.675   8.166 -0.1954  0.2042 -0.0661
   35MOL   C137 4965   6.876   6.698   8.189  0.1726  0.1681  0.1177
   35MOL   N138 4966   6.989   6.717   8.201 -0.0825  0.2720 -0.1581
   35MOL   H139 4967   6.643   6.605   0.031  1.1325 -0.0552  1.6377
   35MOL   H140 4968   6.745   6.485   8.294  1.4673  1.4033 -0.8565
   35MOL   H141 4969   6.677   6.765   8.178  1.6139  1.3548  0.7038
   35MOL   H142 4970   6.732   6.654   8.059  1.8051  0.6244 -0.2803
   36MOL     C1 4971   1.781   4.411   8.015 -0.1079  0.8443  0.3001
   36MOL     C2 4972   1.632   4.419   7.985  0.1706  0.3208  0.0817
   36MOL     C3 4973   1.558   4.476   8.098  0.0202  0.5518 -0.0335
   36MOL     N4 4974   1.496   4.522   8.184 -0.4033  0.1966 -0.5792
   36MOL     H5 4975   1.812   4.413   8.119  0.8974 -1.5270  0.0624
   36MOL     H6 4976   1.828   4.498   7.969  1.7953  0.6457  1.8326
   36MOL     H7 4977   1.588   4.319   7.983  1.4071 -0.2875  1.7042
   36MOL     H8 4978   1.816   4.323   7.961 -1.4939  0.0614  0.6573
   36MOL     C9 4979   1.601   4.492   7.852  0.9083 -0.4097  0.3622
   36MOL    C10 4980   1.671   4.434   7.733 -0.4752 -0.3072 -0.2445
   36MOL    C11 4981   1.621   4.301   7.696  0.6779 -0.1944 -0.0050
   36MOL    N12 4982   1.583   4.196   7.677 -0.4175 -0.2906  0.3189
   36MOL    H13 4983   1.493   4.485   7.837  0.8993  1.0579 -0.2508
   36MOL    H14 4984   1.614   4.600   7.856 -0.2737 -0.1856 -1.5714
   36MOL    H15 4985   1.776   4.408   7.749 -0.3539 -0.8069 -1.7403
   36MOL    C16 4986   1.655   4.532   7.616  0.3285  0.3859  0.1882
   36MOL    C17 4987   1.739   4.508   7.485 -0.1826 -0.1515 -0.3766
   36MOL    C18 4988   1.883   4.511   7.511 -1.1718  0.1187 -0.0944
   36MOL    N19 4989   1.995   4.509   7.532 -0.2257 -0.0795 -0.7669
   36MOL    H20 4990   1.549   4.536   7.592  0.1563 -3.4088 -0.0414
   36MOL    H21 4991   1.665   4.636   7.647  1.1570  0.1366  0.7879
   36MOL    H22 4992   1.712   4.587   7.414  1.2920 -0.0168 -0.8097
   36MOL    C23 4993   1.713   4.376   7.404 -0.2422  0.1545 -0.3971
   36MOL    C24 4994   1.575   4.344   7.352 -0.2431 -0.2763 -0.2569
   36MOL    C25 4995   1.507   4.465   7.306  0.4058 -0.0481  0.2683
   36MOL    N26 4996   1.451   4.558   7.273 -0.0842 -0.9773  0.0479
   36MOL    H27 4997   1.790   4.384   7.327  0.0659 -1.1003 -0.2309
   36MOL    H28 4998   1.747   4.294   7.467  0.3011  0.5803 -0.1345
   36MOL    H29 4999   1.524   4.312   7.443  1.1092 -3.4913 -0.5369
   36MOL    C30 5000   1.574   4.218   7.257  0.5504 -0.2121 -0.2280
   36MOL    C31 5001   1.440   4.198   7.180  0.7593 -0.2036  0.1439
   36MOL    C32 5002   1.450   4.087   7.082  0.1308 -0.9277  1.1195
   36MOL    N33 5003   1.461   3.998   7.005 -0.7840 -0.2171 -0.4310
   36MOL    H34 5004   1.662   4.220   7.194  0.1807 -1.4768 -0.7991
   36MOL    H35 5005   1.585   4.136   7.328 -0.1156 -0.2272 -0.1339
   36MOL    H36 5006   1.419   4.291   7.127 -0.4222 -0.2778  0.4666
   36MOL    C37 5007   1.326   4.170   7.277 -0.6110 -0.1953 -0.1062
   36MOL    C38 5008   1.187   4.126   7.221 -0.7430  0.5592  0.2084
   36MOL    C39 5009   1.114   4.070   7.345  0.6905  0.5306  0.3132
   36MOL    N40 5010   1.063   4.017   7.434 -0.4482 -0.2431 -0.1715
   36MOL    H41 5011   1.354   4.097   7.354 -0.8317 -1.3589 -1.1183
   36MOL    H42 5012   1.312   4.255   7.345  0.0947 -0.6485  0.6104
   36MOL    H43 5013   1.203   4.043   7.153 -0.2777  0.2474  0.6963
   36MOL    C44 5014   1.100   4.237   7.161  0.4495  0.0123 -0.4990
   36MOL    C45 5015   0.942   4.222   7.152 -0.0458 -0.8960 -0.3319
   36MOL    C46 5016   0.885   4.351   7.104 -0.1753 -0.0058  0.5691
   36MOL    N47 5017   0.839   4.449   7.060  0.6528 -0.7128  0.5140
   36MOL    H48 5018   1.121   4.324   7.223  1.6039 -0.7129  0.1446
   36MOL    H49 5019   1.137   4.268   7.063 -1.5925  1.5926 -0.8041
   36MOL    H50 5020   0.902   4.217   7.254  0.5815 -0.0522 -0.0324
   36MOL    C51 5021   0.897   4.102   7.066  0.0870 -0.4594  0.2136
   36MOL    C52 5022   0.749   4.083   7.027  0.6071  1.0696 -0.3353
   36MOL    C53 5023   0.724   3.957   6.954 -0.2852  0.2490  0.1721
   36MOL    N54 5024   0.711   3.859   6.899  0.2483 -0.2277 -0.3349
   36MOL    H55 5025   0.952   4.078   6.975 -1.3632 -1.7508 -0.3423
   36MOL    H56 5026   0.920   4.017   7.131 -0.9724 -0.4145  0.6667
   36MOL    H57 5027   0.731   4.162   6.954  0.6171  0.4258 -1.0464
   36MOL    C58 5028   0.649   4.083   7.144  0.1236 -0.0126 -1.0492
   36MOL    C59 5029   0.511   4.144   7.105  0.2321 -0.2580 -0.4997
   36MOL    C60 5030   0.405   4.075   7.184 -0.5341 -0.2260 -0.5809
   36MOL    N61 5031   0.324   4.025   7.251 -0.6747 -0.0568  0.2361
   36MOL    H62 5032   0.636   3.978   7.167  1.2797 -0.2201 -1.2950
   36MOL    H63 5033   0.689   4.135   7.231 -0.8962  0.2439 -0.7333
   36MOL    H64 5034   0.506   4.122   6.999  0.3605 -0.1642 -0.5257
   36MOL    C65 5035   0.499   4.290   7.128 -0.4621  0.2200 -0.2894
   36MOL    C66 5036   0.376   4.356   7.069 -0.4968 -0.7602  0.4804
   36MOL    C67 5037   0.255   4.342   7.150  0.0923 -0.0627  0.5070
   36MOL    N68 5038   0.162   4.332   7.217 -0.0871  0.4231  0.4093
   36MOL    H69 5039   0.493   4.309   7.235 -1.4663 -1.0292 -0.1228
   36MOL    H70 5040   0.591   4.333   7.088  1.7124 -0.7357  3.4470
   36MOL    H71 5041   0.360   4.310   6.972  0.5359 -2.6954  1.1910
   36MOL    C72 5042   0.403   4.510   7.061 -0.3326  0.9957 -0.0612
   36MOL    C73 5043   0.502   4.582   6.969 -0.6216 -0.0509  0.1481
   36MOL    C74 5044   0.511   4.500   6.845  0.6882 -1.0779  0.3983
   36MOL    N75 5045   0.521   4.443   6.750  0.7107 -0.2629  0.6485
   36MOL    H76 5046   0.309   4.564   7.064 -0.8282  0.2142 -1.2566
   36MOL    H77 5047   0.437   4.543   7.160 -4.3640 -2.4791  2.6581
   36MOL    H78 5048   0.601   4.571   7.015  0.0316 -0.0879 -1.2410
   36MOL    C79 5049   0.464   4.736   6.948 -0.1853  0.2742 -0.4595
   36MOL    C80 5050   0.547   4.821   7.041 -0.1636  0.3747  0.1172
   36MOL    C81 5051   0.690   4.828   7.016 -0.0939  0.2111  1.1407
   36MOL    N82 5052   0.802   4.833   6.996  0.5608  0.0287 -0.4899
   36MOL    H83 5053   0.501   4.763   6.849  0.1876  2.2018  0.1831
   36MOL    H84 5054   0.359   4.758   6.929 -0.2457  0.3064 -0.1029
   36MOL    H85 5055   0.550   4.773   7.139  3.0052 -1.1055 -0.6430
   36MOL    C86 5056   0.485   4.960   7.063 -0.2131  0.2608  0.1979
   36MOL    C87 5057   0.567   5.050   7.171  0.5736 -0.1708 -0.4140
   36MOL    C88 5058   0.535   5.188   7.124 -0.4010  0.2891  0.4897
   36MOL    N89 5059   0.514   5.292   7.076  0.3092 -0.5563  0.0711
   36MOL    H90 5060   0.484   5.015   6.969  0.8001  1.2769  0.7795
   36MOL    H91 5061   0.379   4.954   7.089 -0.0726 -1.7222  0.4511
   36MOL    H92 5062   0.674   5.032   7.171  0.1382 -3.0514 -0.8855
   36MOL    C93 5063   0.504   5.028   7.308 -0.8810  0.0690  0.6011
   36MOL    C94 5064   0.592   5.080   7.424 -0.2966 -0.6199 -0.0355
   36MOL    C95 5065   0.601   5.229   7.414 -0.1396  1.1437 -0.5042
   36MOL    N96 5066   0.598   5.344   7.417  0.6637  0.4507  0.2163
   36MOL    H97 5067   0.410   5.081   7.296 -1.0836 -0.3197  0.4772
   36MOL    H98 5068   0.493   4.920   7.315 -1.3270  0.1794  1.7706
   36MOL    H99 5069   0.681   5.019   7.409  1.2745  1.7783 -0.8534
   36MOL   C100 5070   0.514   5.054   7.560  0.8347  0.2408  0.0514
   36MOL   C101 5071   0.586   5.027   7.695 -0.7572  0.0695  0.4947
   36MOL   C102 5072   0.666   4.905   7.700  0.2029 -0.7304 -0.2675
   36MOL   N103 5073   0.732   4.810   7.701  0.0874 -0.4681 -0.0093
   36MOL   H104 5074   0.445   5.138   7.567 -2.2166 -2.1265 -0.9629
   36MOL   H105 5075   0.449   4.969   7.544 -0.0939  1.2770 -1.8060
   36MOL   H106 5076   0.509   5.011   7.771 -1.0199  0.1341  0.2445
   36MOL   C107 5077   0.652   5.156   7.749 -0.2367  0.3853 -0.0959
   36MOL   C108 5078   0.732   5.152   7.883  1.0290  0.0972 -0.3692
   36MOL   C109 5079   0.817   5.274   7.891  0.8379 -0.0989  0.1850
   36MOL   N110 5080   0.877   5.369   7.893 -0.4147 -0.5344  0.3527
   36MOL   H111 5081   0.724   5.180   7.671 -0.5833  0.7144 -0.3132
   36MOL   H112 5082   0.589   5.245   7.748 -2.2861 -0.9769  2.1981
   36MOL   H113 5083   0.798   5.065   7.884  0.4458 -0.3531 -0.7435
   36MOL   C114 5084   0.638   5.142   8.001  0.1215  0.4452 -0.1752
   36MOL   C115 5085   0.703   5.080   8.129  0.8217  0.6333  0.5125
   36MOL   C116 5086   0.783   4.959   8.098 -0.2973  0.4226  0.5243
   36MOL   N117 5087   0.844   4.863   8.081  0.2215  0.5267 -0.3565
   36MOL   H118 5088   0.601   5.243   8.019 -0.1431  0.2001  0.6952
   36MOL   H119 5089   0.550   5.080   7.985  0.1317  0.3057  0.2995
   36MOL   H120 5090   0.626   5.035   8.192  0.0771  2.1588  0.7214
   36MOL   C121 5091   0.766   5.189   8.207  0.1710 -0.6668 -0.5306
   36MOL   C122 5092   0.807   5.155   0.041  0.2623  0.4916  0.0456
   36MOL   C123 5093   0.920   5.061   0.043 -0.4053 -0.0761 -0.0826
   36MOL   N124 5094   1.008   4.988   0.050 -0.5649  0.2222  0.0175
   36MOL   H125 5095   0.849   5.243   8.161 -0.7417 -0.4926 -2.0176
   36MOL   H126 5096   0.691   5.268   8.219  0.3410 -0.5054 -0.5216
   36MOL   H127 5097   0.722   5.095   0.072  0.5768 -0.4913 -0.9612
   36MOL   C128 5098   0.819   5.285   0.130 -0.5896  0.6891 -0.4290
   36MOL   C129 5099   0.862   5.270   0.279 -0.1778 -0.1003  0.1245
   36MOL   C130 5100   0.799   5.157   0.354 -0.2595 -0.3151  0.7716
   36MOL   N131 5101   0.750   5.070   0.411 -0.5515  0.1809 -0.0523
   36MOL   H132 5102   0.891   5.355   0.088 -0.1569  0.6019  0.1660
   36MOL   H133 5103   0.724   5.338   0.123 -1.1356 -0.2964 -0.5451
   36MOL   H134 5104   0.839   5.359   0.337  2.8735  0.4003  0.6412
   36MOL   C135 5105   1.014   5.266   0.289  0.2632 -0.1522  0.0447
   36MOL   C136 5106   1.057   5.230   0.429 -0.5697 -0.2577  0.2284
   36MOL   C137 5107   1.001   5.310   0.541  0.1242 -0.8092  0.5608
   36MOL   N138 5108   0.959   5.381   0.624 -0.0017  0.0051 -0.2507
   36MOL   H139 5109   1.050   5.185   0.225  0.3709 -2.1904  2.5736
   36MOL   H140 5110   1.051   5.368   0.276 -0.2139  0.1335  0.8927
   36MOL   H141 5111   1.165   5.236   0.427 -0.5330 -0.1677  2.0414
   36MOL   H142 5112   1.030   5.128   0.456 -0.3821  0.0736  1.7040
   37MOL     C1 5113   1.908   0.327   2.616  0.4306  1.1862  0.5262
   37MOL     C2 5114   1.907   0.421   2.491 -0.0275  0.6661  0.4566
   37MOL     C3 5115   1.894   0.561   2.541 -0.4338  0.1257 -0.6661
   37MOL     N4 5116   1.881   0.669   2.584  0.4322 -0.0687  0.0278
   37MOL     H5 5117   1.890   0.221   2.598  1.5246  0.6874  2.3054
   37MOL     H6 5118   1.839   0.365   2.691 -1.3945  1.8523 -1.4100
   37MOL     H7 5119   1.815   0.405   2.434  0.4190 -0.8444  0.1169
   37MOL     H8 5120   2.010   0.320   2.653  0.5185 -0.0719  0.0778
   37MOL     C9 5121   2.017   0.389   2.386  0.2576 -0.3561 -0.6397
   37MOL    C10 5122   2.011   0.469   2.258  0.3473 -0.5319  0.6196
   37MOL    C11 5123   1.998   0.614   2.286  0.0681  0.5483 -0.1140
   37MOL    N12 5124   1.989   0.733   2.304  0.0567 -0.2817  0.8734
   37MOL    H13 5125   2.116   0.411   2.426 -0.3665  2.8848 -0.7982
   37MOL    H14 5126   2.012   0.286   2.351 -0.0278 -0.0161 -1.6300
   37MOL    H15 5127   1.924   0.449   2.195  1.5408  1.8208 -1.9413
   37MOL    C16 5128   2.134   0.434   2.174  0.3368  0.2672  0.0976
   37MOL    C17 5129   2.100   0.403   2.031 -0.4047  0.5690  0.0176
   37MOL    C18 5130   2.006   0.292   2.016  0.5086  0.2103  0.1207
   37MOL    N19 5131   1.934   0.201   2.004  0.2762  0.2575  0.1002
   37MOL    H20 5132   2.213   0.509   2.179 -0.6670  1.4075 -0.8263
   37MOL    H21 5133   2.190   0.351   2.218  0.1853  0.4675  0.6820
   37MOL    H22 5134   2.194   0.371   1.988 -0.8560 -0.2180 -0.3965
   37MOL    C23 5135   2.074   0.525   1.944  0.7374  0.2884  0.2886
   37MOL    C24 5136   2.034   0.489   1.798  1.2157  0.0858  0.1740
   37MOL    C25 5137   2.105   0.369   1.747  0.9246  0.1296  0.3729
   37MOL    N26 5138   2.165   0.275   1.709  0.1422 -0.7008  0.1013
   37MOL    H27 5139   1.991   0.582   1.985 -0.4138 -1.3571  0.2750
   37MOL    H28 5140   2.160   0.592   1.938 -1.5486  3.2389 -0.8966
   37MOL    H29 5141   2.070   0.570   1.735 -0.1637  0.6504  0.1083
   37MOL    C30 5142   1.877   0.476   1.787 -0.1349  0.2564  0.2679
   37MOL    C31 5143   1.817   0.476   1.643 -1.0525 -0.8300  0.3533
   37MOL    C32 5144   1.867   0.365   1.565  0.6592 -0.4810 -0.5391
   37MOL    N33 5145   1.905   0.275   1.501  0.0138 -0.1740  0.0973
   37MOL    H34 5146   1.857   0.377   1.829  1.3615 -0.1927 -0.0693
   37MOL    H35 5147   1.820   0.553   1.839  0.0112  1.3792 -1.2048
   37MOL    H36 5148   1.858   0.563   1.591 -0.8789 -2.0173 -1.5572
   37MOL    C37 5149   1.664   0.483   1.637  0.6058 -0.5839  0.0847
   37MOL    C38 5150   1.607   0.607   1.712  0.1587 -0.2504 -0.4440
   37MOL    C39 5151   1.681   0.728   1.678  0.0151 -0.4595 -0.1832
   37MOL    N40 5152   1.736   0.824   1.652 -1.0481 -0.0020 -0.0824
   37MOL    H41 5153   1.635   0.483   1.532  2.4114 -1.2338 -0.4310
   37MOL    H42 5154   1.622   0.393   1.682  0.2088 -0.0208  0.8387
   37MOL    H43 5155   1.612   0.595   1.820  1.9989 -1.6032 -0.6389
   37MOL    C44 5156   1.466   0.632   1.671 -0.4876  0.6104 -0.1836
   37MOL    C45 5157   1.357   0.565   1.764 -0.0998  0.8068  0.0937
   37MOL    C46 5158   1.380   0.605   1.902 -0.9076 -0.6591 -0.1248
   37MOL    N47 5159   1.401   0.634   2.015 -0.0781  0.4694  0.1396
   37MOL    H48 5160   1.438   0.737   1.685  1.0349  0.6018  3.3809
   37MOL    H49 5161   1.449   0.616   1.565 -1.5547 -0.4562  0.1476
   37MOL    H50 5162   1.381   0.459   1.760 -1.8001  0.4206 -0.4946
   37MOL    C51 5163   1.211   0.591   1.717  0.4026  0.5700  0.4434
   37MOL    C52 5164   1.099   0.569   1.818 -0.2503 -0.7108  0.8843
   37MOL    C53 5165   1.087   0.681   1.913  0.1020 -0.0186 -0.0050
   37MOL    N54 5166   1.083   0.769   1.986 -0.0348  0.5898  0.3310
   37MOL    H55 5167   1.194   0.693   1.682 -0.4579 -0.1637 -1.3523
   37MOL    H56 5168   1.187   0.530   1.630  1.8189  1.9993 -0.9886
   37MOL    H57 5169   1.135   0.483   1.874  1.4840  0.1523  1.1293
   37MOL    C58 5170   0.967   0.529   1.746 -0.2650 -0.4691  0.0330
   37MOL    C59 5171   0.850   0.500   1.840 -0.7315  0.2241  0.6154
   37MOL    C60 5172   0.787   0.624   1.875  0.2019 -0.2747  0.0795
   37MOL    N61 5173   0.738   0.726   1.907  0.1887 -0.4445  0.0718
   37MOL    H62 5174   0.938   0.614   1.685  1.1921  1.8065  2.3926
   37MOL    H63 5175   0.977   0.435   1.691 -1.9532  0.6690 -2.3173
   37MOL    H64 5176   0.897   0.463   1.931 -1.4732 -1.3141  0.3886
   37MOL    C65 5177   0.748   0.393   1.794 -0.1284 -0.1957  0.2291
   37MOL    C66 5178   0.653   0.428   1.676 -0.0134  0.3497  0.2189
   37MOL    C67 5179   0.731   0.441   1.552 -0.0516 -0.2069 -0.5816
   37MOL    N68 5180   0.797   0.447   1.455 -0.1950 -0.0605  0.4662
   37MOL    H69 5181   0.780   0.289   1.788 -3.1714 -1.2020  0.3586
   37MOL    H70 5182   0.683   0.384   1.881  0.1184 -0.0679  0.4250
   37MOL    H71 5183   0.599   0.520   1.698  0.3208  1.3654 -2.9601
   37MOL    C72 5184   0.551   0.316   1.662 -1.1327  0.2664  0.0885
   37MOL    C73 5185   0.452   0.279   1.774 -0.3469 -0.2296  1.1762
   37MOL    C74 5186   0.505   0.194   1.879 -0.0736 -0.0356 -0.0278
   37MOL    N75 5187   0.552   0.129   1.962 -0.3246 -0.3879  0.1329
   37MOL    H76 5188   0.497   0.320   1.568 -0.5335 -0.7048 -0.2989
   37MOL    H77 5189   0.614   0.228   1.652 -2.0955 -0.8107  2.7531
   37MOL    H78 5190   0.372   0.227   1.722 -0.4869  0.5299  0.6171
   37MOL    C79 5191   0.379   0.406   1.832  0.0559 -0.1063 -0.3564
   37MOL    C80 5192   0.299   0.505   1.750 -0.2589 -0.2869 -0.2683
   37MOL    C81 5193   0.231   0.437   1.636  0.8477  0.1768  0.1482
   37MOL    N82 5194   0.181   0.385   1.544  0.1769 -0.9784 -0.1379
   37MOL    H83 5195   0.318   0.360   1.910  0.5561  2.2146  1.4373
   37MOL    H84 5196   0.457   0.461   1.885 -1.3500 -0.2910  1.9529
   37MOL    H85 5197   0.368   0.573   1.701  0.7045 -1.1703 -0.1589
   37MOL    C86 5198   0.204   0.585   1.838 -0.3215  0.3326  0.3286
   37MOL    C87 5199   0.106   0.680   1.762 -0.0237 -0.5192  0.0477
   37MOL    C88 5200   8.294   0.686   1.836  0.0811  0.3880 -0.1490
   37MOL    N89 5201   8.196   0.689   1.892  0.1452  0.6746 -0.0324
   37MOL    H90 5202   0.131   0.529   1.895 -1.2223 -1.0413 -2.1275
   37MOL    H91 5203   0.261   0.642   1.912 -1.6239  1.5278  0.4285
   37MOL    H92 5204   0.077   0.633   1.668 -0.2166  0.8061 -0.5674
   37MOL    C93 5205   0.165   0.821   1.741 -0.0385 -0.2071 -0.4082
   37MOL    C94 5206   0.260   0.844   1.614  0.1593 -0.1298 -0.3972
   37MOL    C95 5207   0.190   0.834   1.482 -0.1220  0.1755  0.0443
   37MOL    N96 5208   0.134   0.821   1.381 -0.1408  1.0728 -0.3065
   37MOL    H97 5209   0.081   0.890   1.729  1.0439  1.1164 -0.4569
   37MOL    H98 5210   0.220   0.855   1.829  1.2164  1.0611 -1.6621
   37MOL    H99 5211   0.340   0.770   1.606  0.6520  0.2026  1.4249
   37MOL   C100 5212   0.343   0.973   1.619 -0.5936  0.3114 -0.2019
   37MOL   C101 5213   0.269   1.102   1.581  0.1225 -0.1852 -0.5239
   37MOL   C102 5214   0.164   1.135   1.675 -0.1809  0.2064  0.2764
   37MOL   N103 5215   0.082   1.163   1.753  0.3728 -0.4507  0.9533
   37MOL   H104 5216   0.393   0.977   1.715 -2.9013 -3.5921  1.2688
   37MOL   H105 5217   0.425   0.965   1.547  0.0925  0.6031  0.5285
   37MOL   H106 5218   0.227   1.097   1.481 -0.3056  3.2267 -0.5803
   37MOL   C107 5219   0.367   1.217   1.577  0.4044  0.2298  0.2486
   37MOL   C108 5220   0.317   1.345   1.505  0.5894 -0.3017  0.7180
   37MOL   C109 5221   0.205   1.408   1.566  0.1329 -1.1445 -0.3281
   37MOL   N110 5222   0.112   1.461   1.613  0.7234 -0.7262  0.0994
   37MOL   H111 5223   0.398   1.252   1.676  1.6918 -0.1034 -0.0290
   37MOL   H112 5224   0.455   1.190   1.520 -0.4034  1.3043 -1.5414
   37MOL   H113 5225   0.292   1.314   1.403 -0.0289  0.4998  0.6226
   37MOL   C114 5226   0.430   1.444   1.485  0.1593 -0.3758  0.1193
   37MOL   C115 5227   0.505   1.499   1.610  0.0421  0.0321 -0.2585
   37MOL   C116 5228   0.647   1.457   1.610 -0.5801 -1.3205 -0.2187
   37MOL   N117 5229   0.755   1.433   1.616  0.0346 -0.2356 -0.9167
   37MOL   H118 5230   0.497   1.399   1.411  0.2458 -1.6900  0.9682
   37MOL   H119 5231   0.397   1.521   1.416 -0.7812 -0.0125  0.9607
   37MOL   H120 5232   0.472   1.439   1.694 -0.9525  0.1122 -0.5855
   37MOL   C121 5233   0.494   1.648   1.623 -0.7589  0.1391 -0.2507
   37MOL   C122 5234   0.508   1.716   1.757  0.4509  0.7195 -0.3876
   37MOL   C123 5235   0.399   1.686   1.856 -0.6006 -0.5414 -0.3837
   37MOL   N124 5236   0.314   1.669   1.939 -0.5826 -0.1902  0.1365
   37MOL   H125 5237   0.574   1.691   1.564 -1.9620  3.4326  0.4261
   37MOL   H126 5238   0.402   1.681   1.575 -0.0804 -0.3537 -1.9382
   37MOL   H127 5239   0.487   1.821   1.737  0.6423  0.4908 -1.9073
   37MOL   C128 5240   0.649   1.714   1.828  0.0458 -0.3019  0.2765
   37MOL   C129 5241   0.652   1.808   1.949 -0.3278 -0.8865 -0.3045
   37MOL   C130 5242   0.774   1.796   2.026  0.3973  0.1691 -0.4701
   37MOL   N131 5243   0.874   1.782   2.088  0.0783  0.1192 -0.4131
   37MOL   H132 5244   0.676   1.614   1.862 -0.6139 -0.1853  1.1629
   37MOL   H133 5245   0.728   1.732   1.755 -1.4946 -0.4176 -1.4681
   37MOL   H134 5246   0.576   1.757   2.007  1.0069 -0.2894  2.0159
   37MOL   C135 5247   0.610   1.954   1.920 -0.7834 -0.1788  0.0357
   37MOL   C136 5248   0.629   2.045   2.053 -0.3194  0.3509  0.1356
   37MOL   C137 5249   0.571   1.990   2.177  0.9820 -0.3451 -0.1158
   37MOL   N138 5250   0.521   1.950   2.273  0.5715  0.2996  0.7013
   37MOL   H139 5251   0.683   1.997   1.852 -1.1449  0.9867  0.3610
   37MOL   H140 5252   0.509   1.982   1.888 -0.4266  1.6747  0.4236
   37MOL   H141 5253   0.600   2.150   2.046 -1.9720  0.0111  1.5038
   37MOL   H142 5254   0.734   2.057   2.080 -0.7654  0.7621  1.7421
   38MOL     C1 5255   2.072   2.815   7.852 -0.2471  0.5457  0.2553
   38MOL     C2 5256   1.954   2.772   7.762 -0.4593  0.1204  0.5053
   38MOL     C3 5257   1.878   2.665   7.827  0.4607 -0.2227 -0.2192
   38MOL     N4 5258   1.818   2.581   7.879  0.1144 -1.1615 -0.2806
   38MOL     H5 5259   2.037   2.853   7.948  1.9202 -0.6669  1.5745
   38MOL     H6 5260   2.123   2.897   7.801  0.3721  0.8270  1.2995
   38MOL     H7 5261   1.989   2.719   7.673 -0.6650 -2.2299  1.7738
   38MOL     H8 5262   2.139   2.730   7.865 -0.2507  0.5936  0.5982
   38MOL     C9 5263   1.867   2.895   7.722  0.5209  0.8603  0.9103
   38MOL    C10 5264   1.903   2.953   7.583  0.1833  0.5476 -0.2796
   38MOL    C11 5265   1.877   2.861   7.474  0.4072  0.1112 -0.2495
   38MOL    N12 5266   1.859   2.784   7.390  0.3234  0.9777 -0.1065
   38MOL    H13 5267   1.764   2.859   7.716  1.0048 -0.3619 -0.3609
   38MOL    H14 5268   1.856   2.968   7.802 -3.2541  2.7057 -1.1355
   38MOL    H15 5269   2.008   2.978   7.571 -0.2537  2.5229 -0.1111
   38MOL    C16 5270   1.827   3.081   7.546  0.3102 -0.0723 -0.0110
   38MOL    C17 5271   1.877   3.211   7.605  0.8929 -0.1557 -0.1151
   38MOL    C18 5272   2.022   3.211   7.592 -0.3337 -0.1855  0.1600
   38MOL    N19 5273   2.137   3.200   7.570  0.3091 -0.0022  0.1525
   38MOL    H20 5274   1.830   3.091   7.438  0.9905  0.6024  0.0634
   38MOL    H21 5275   1.719   3.073   7.562  0.1890 -1.5389 -1.4505
   38MOL    H22 5276   1.858   3.215   7.713 -0.3747  0.1845 -0.3448
   38MOL    C23 5277   1.805   3.335   7.542 -0.4539  0.7422 -0.0811
   38MOL    C24 5278   1.861   3.370   7.403 -0.2063  0.9163 -0.5331
   38MOL    C25 5279   1.761   3.395   7.304  0.4096  0.1138 -0.2647
   38MOL    N26 5280   1.671   3.414   7.229 -0.5119  0.5822  0.6165
   38MOL    H27 5281   1.697   3.323   7.541 -0.1964 -1.7981 -2.2252
   38MOL    H28 5282   1.803   3.416   7.615 -0.5561 -1.0223  1.9004
   38MOL    H29 5283   1.904   3.276   7.368 -0.6935  0.7544 -0.6967
   38MOL    C30 5284   1.970   3.478   7.391 -0.2879 -0.1708 -0.2232
   38MOL    C31 5285   1.919   3.613   7.344 -0.2761 -0.6783  0.6188
   38MOL    C32 5286   1.974   3.723   7.427 -0.3740 -0.2019  0.5931
   38MOL    N33 5287   2.020   3.805   7.491 -0.3130 -0.1989 -0.2549
   38MOL    H34 5288   2.010   3.480   7.493  0.1380 -1.2611 -0.3615
   38MOL    H35 5289   2.052   3.440   7.330  0.7691  0.7664  0.5815
   38MOL    H36 5290   1.811   3.625   7.349 -0.0782  0.5231  2.2690
   38MOL    C37 5291   1.957   3.647   7.202  0.8323 -0.1036  0.3623
   38MOL    C38 5292   1.870   3.753   7.129 -0.4013  0.0566 -0.5971
   38MOL    C39 5293   1.845   3.875   7.208  0.6128  0.5259  0.2217
   38MOL    N40 5294   1.825   3.967   7.269 -0.0048  0.9939 -0.2617
   38MOL    H41 5295   2.061   3.679   7.202  0.1102  2.4436 -1.8845
   38MOL    H42 5296   1.958   3.555   7.145  1.4338  0.2338 -0.1744
   38MOL    H43 5297   1.770   3.708   7.129  0.1625 -1.2054 -0.5500
   38MOL    C44 5298   1.921   3.772   6.987  0.5190  0.3059  0.8281
   38MOL    C45 5299   1.826   3.858   6.902 -0.4799 -0.0034 -0.2533
   38MOL    C46 5300   1.827   3.999   6.940  0.1586 -0.0671 -0.2403
   38MOL    N47 5301   1.829   4.113   6.971  0.4599  0.2730 -0.3231
   38MOL    H48 5302   2.017   3.823   6.987  0.7220 -0.0772  1.2819
   38MOL    H49 5303   1.941   3.679   6.933 -0.1937  0.1354  0.8567
   38MOL    H50 5304   1.724   3.827   6.928 -0.5623  0.0044 -0.5678
   38MOL    C51 5305   1.862   3.839   6.747 -0.4407  0.2819 -0.0201
   38MOL    C52 5306   1.759   3.901   6.658 -0.6569 -0.1091  0.5188
   38MOL    C53 5307   1.807   4.044   6.622 -0.5032  0.2470  0.0590
   38MOL    N54 5308   1.841   4.150   6.589 -0.1926  0.6362  0.3101
   38MOL    H55 5309   1.960   3.882   6.726  0.7159 -0.8936  2.6585
   38MOL    H56 5310   1.872   3.733   6.727  1.5169  0.3357  0.4927
   38MOL    H57 5311   1.667   3.908   6.716 -0.6104 -1.0815  0.7180
   38MOL    C58 5312   1.723   3.825   6.531 -0.7019 -0.0233 -0.2315
   38MOL    C59 5313   1.832   3.808   6.418  0.4980 -0.0184 -0.6262
   38MOL    C60 5314   1.922   3.692   6.443  0.1187 -0.4039  0.2077
   38MOL    N61 5315   1.995   3.602   6.456  0.1835  0.1051 -0.9875
   38MOL    H62 5316   1.687   3.730   6.568  0.2436 -0.5911 -0.7562
   38MOL    H63 5317   1.634   3.868   6.484 -2.2456 -2.3218  0.5147
   38MOL    H64 5318   1.882   3.903   6.400  1.6832 -0.8246 -1.7040
   38MOL    C65 5319   1.762   3.770   6.286  0.2494 -0.6607 -0.3503
   38MOL    C66 5320   1.683   3.872   6.206  0.5340  0.0824  0.3152
   38MOL    C67 5321   1.767   3.960   6.128  1.0346  0.1127  0.3699
   38MOL    N68 5322   1.826   4.041   6.070 -0.7699  0.3679  0.1041
   38MOL    H69 5323   1.844   3.734   6.224 -0.8696 -0.7826 -1.7912
   38MOL    H70 5324   1.712   3.675   6.302 -1.9072  0.0029 -2.8918
   38MOL    H71 5325   1.628   3.931   6.280  1.6945  0.5388  0.8210
   38MOL    C72 5326   1.569   3.804   6.122  0.2507  0.0573  0.2085
   38MOL    C73 5327   1.462   3.713   6.191  0.0641  0.0000 -0.3802
   38MOL    C74 5328   1.388   3.790   6.293  0.5779 -0.3361  0.2700
   38MOL    N75 5329   1.328   3.855   6.373  0.9594 -0.5708 -0.3160
   38MOL    H76 5330   1.514   3.889   6.083 -0.5847 -0.1138  0.9926
   38MOL    H77 5331   1.609   3.756   6.032  2.6699  1.4652  0.4958
   38MOL    H78 5332   1.494   3.616   6.229  1.6776  0.5981 -0.1319
   38MOL    C79 5333   1.360   3.680   6.083  0.4561 -0.1005  0.2729
   38MOL    C80 5334   1.270   3.553   6.126 -0.3366  0.3623 -0.1952
   38MOL    C81 5335   1.202   3.577   6.253 -0.2036 -0.0671  0.3247
   38MOL    N82 5336   1.136   3.596   6.345  0.0214 -0.3887  0.2630
   38MOL    H83 5337   1.301   3.768   6.055  0.9077  0.8128  2.1002
   38MOL    H84 5338   1.425   3.655   6.000  2.3168 -2.4637  2.3685
   38MOL    H85 5339   1.330   3.466   6.153 -1.2088 -0.4745 -0.9211
   38MOL    C86 5340   1.174   3.501   6.008 -0.6483 -0.0732  0.0413
   38MOL    C87 5341   1.067   3.399   6.058 -0.0991 -0.3728  0.3365
   38MOL    C88 5342   0.985   3.357   5.944  1.1989  0.0561  0.3925
   38MOL    N89 5343   0.917   3.323   5.860  0.6294  0.2612  0.5327
   38MOL    H90 5344   1.133   3.584   5.950  1.2378  0.6132 -0.3457
   38MOL    H91 5345   1.247   3.449   5.946  1.3404  1.7512  0.7817
   38MOL    H92 5346   0.992   3.456   6.112 -0.5293  0.8850 -1.5281
   38MOL    C93 5347   1.116   3.276   6.144 -0.2063  0.1891 -0.2394
   38MOL    C94 5348   0.994   3.202   6.200  0.0785  0.1755 -0.6927
   38MOL    C95 5349   1.036   3.073   6.251 -0.0682 -0.6771 -0.9625
   38MOL    N96 5350   1.067   2.966   6.288  0.5606  0.0396 -0.0519
   38MOL    H97 5351   1.169   3.203   6.084 -1.6929 -1.0993 -0.0373
   38MOL    H98 5352   1.193   3.313   6.212  3.8471 -0.7079 -4.1122
   38MOL    H99 5353   0.932   3.183   6.113  0.7594  0.8580 -1.3276
   38MOL   C100 5354   0.918   3.284   6.308  0.2754  0.0112  0.4113
   38MOL   C101 5355   0.798   3.220   6.381 -0.0305 -0.0009  0.4132
   38MOL   C102 5356   0.843   3.107   6.463 -0.2726  0.0660 -0.1560
   38MOL   N103 5357   0.874   3.020   6.529 -0.1597  0.1654 -0.3166
   38MOL   H104 5358   0.989   3.315   6.384 -1.4025  0.6854  1.7282
   38MOL   H105 5359   0.879   3.371   6.255  1.8760  1.2794  1.2428
   38MOL   H106 5360   0.717   3.193   6.313 -0.1313 -2.3881  1.3888
   38MOL   C107 5361   0.737   3.333   6.468  0.4005 -0.1139 -0.4667
   38MOL   C108 5362   0.593   3.303   6.521  0.2197  0.0118 -0.4032
   38MOL   C109 5363   0.572   3.168   6.569 -0.4131 -0.1378  0.4586
   38MOL   N110 5364   0.564   3.057   6.604  0.0332 -0.1882 -0.6740
   38MOL   H111 5365   0.799   3.358   6.554 -0.0758  2.5923 -0.8384
   38MOL   H112 5366   0.735   3.429   6.417 -2.4284  1.3910  2.2469
   38MOL   H113 5367   0.524   3.320   6.439 -3.1356  0.0236  2.2958
   38MOL   C114 5368   0.553   3.397   6.641 -0.2810 -0.1705  0.2191
   38MOL   C115 5369   0.549   3.547   6.599 -0.0669  0.7996  0.3779
   38MOL   C116 5370   0.479   3.561   6.467  0.2566  0.1339  0.2210
   38MOL   N117 5371   0.425   3.568   6.367 -0.1357 -0.5620  0.0028
   38MOL   H118 5372   0.457   3.367   6.681  1.0068 -2.2329  1.8901
   38MOL   H119 5373   0.631   3.389   6.717  0.4211 -1.5361 -0.6395
   38MOL   H120 5374   0.648   3.590   6.590 -0.6057  2.3246  1.5012
   38MOL   C121 5375   0.472   3.629   6.704  0.3478 -0.1481  0.1758
   38MOL   C122 5376   0.421   3.764   6.658 -0.1386 -0.5845 -0.1495
   38MOL   C123 5377   0.356   3.821   6.776 -0.2101  0.7222  0.1309
   38MOL   N124 5378   0.311   3.865   6.875  0.1843 -0.1565  0.1232
   38MOL   H125 5379   0.393   3.561   6.733 -0.2611  0.3147 -0.3832
   38MOL   H126 5380   0.522   3.647   6.799 -2.1596  0.8417  1.3399
   38MOL   H127 5381   0.339   3.759   6.586  0.0202 -2.2392 -0.2287
   38MOL   C128 5382   0.524   3.862   6.609  0.3030 -0.2079  0.1188
   38MOL   C129 5383   0.499   4.014   6.617  0.6345 -0.3483  0.1909
   38MOL   C130 5384   0.620   4.092   6.609  0.3372 -0.1743  0.3409
   38MOL   N131 5385   0.715   4.161   6.608  0.0103  0.2413 -0.4170
   38MOL   H132 5386   0.613   3.848   6.671  0.2735  0.2116  0.2589
   38MOL   H133 5387   0.555   3.846   6.506 -2.1284 -1.9705 -0.3824
   38MOL   H134 5388   0.463   4.042   6.716  1.5109 -0.0104  0.4201
   38MOL   C135 5389   0.394   4.059   6.512  0.3902 -1.3472 -0.2427
   38MOL   C136 5390   0.332   4.189   6.556 -0.3467  0.0300 -0.2642
   38MOL   C137 5391   0.257   4.186   6.679  0.2925 -0.3225  0.2289
   38MOL   N138 5392   0.193   4.182   6.774  0.7218 -0.1475 -0.8916
   38MOL   H139 5393   0.444   4.067   6.416 -1.6943 -0.0290 -1.2442
   38MOL   H140 5394   0.310   3.991   6.501 -0.0924 -0.4637 -2.2159
   38MOL   H141 5395   0.273   4.220   6.469 -2.3206 -1.2963  0.5654
   38MOL   H142 5396   0.409   4.263   6.578 -1.0622  0.3542  1.2080
   39MOL     C1 5397   3.827   8.300   5.926  0.0389 -0.0740  0.0271
   39MOL     C2 5398   3.759   8.304   6.064  0.1113  0.7289 -0.7026
   39MOL     C3 5399   3.693   8.181   6.102  0.5676  0.5064  0.2779
   39MOL     N4 5400   3.644   8.076   6.122 -0.7182 -0.1285 -0.1412
   39MOL     H5 5401   3.886   0.079   5.914  1.4743 -1.0768 -0.8131
   39MOL     H6 5402   3.760   8.311   5.840 -0.6393 -0.1104  0.5523
   39MOL     H7 5403   3.681   0.067   6.069 -1.3768 -0.6626 -2.4286
   39MOL     H8 5404   3.895   8.215   5.917  0.0414 -0.0061 -0.6157
   39MOL     C9 5405   3.858   0.035   6.177 -0.0072 -0.5163  0.2372
   39MOL    C10 5406   3.977   8.253   6.204 -0.5668  0.4816 -0.5933
   39MOL    C11 5407   4.085   8.271   6.108 -0.2498 -0.5315 -0.7498
   39MOL    N12 5408   4.170   8.290   6.035  0.1633 -0.0399 -0.4566
   39MOL    H13 5409   3.886   0.140   6.166 -0.1495 -0.7410 -2.7249
   39MOL    H14 5410   3.796   0.026   6.267 -2.3727 -1.0676 -1.4005
   39MOL    H15 5411   3.950   8.148   6.191 -0.4653  0.4966 -0.9292
   39MOL    C16 5412   4.033   8.284   6.344  0.0957  0.3557  0.3789
   39MOL    C17 5413   4.158   8.204   6.394 -0.0582  0.6356 -0.1673
   39MOL    C18 5414   4.166   8.201   6.544  0.0538  0.3640 -0.0892
   39MOL    N19 5415   4.170   8.190   6.661 -0.3740  0.3388  0.9325
   39MOL    H20 5416   4.058   0.077   6.347 -0.4101  0.5145 -0.8632
   39MOL    H21 5417   3.955   8.276   6.420 -1.1908  0.2597 -0.9277
   39MOL    H22 5418   4.247   8.260   6.365 -0.9315  2.7964  1.2084
   39MOL    C23 5419   4.164   8.059   6.336 -0.2900 -0.6394 -0.1510
   39MOL    C24 5420   4.071   7.958   6.409 -0.5599  0.1166  0.1423
   39MOL    C25 5421   3.927   7.995   6.416 -0.0851 -0.2250 -0.2605
   39MOL    N26 5422   3.816   8.025   6.427 -0.0729  0.6099 -0.1124
   39MOL    H27 5423   4.154   8.053   6.227  0.0902  2.4714 -0.4161
   39MOL    H28 5424   4.266   8.029   6.359 -0.6330 -2.0071 -0.3462
   39MOL    H29 5425   4.107   7.952   6.512 -0.8648  2.8321  0.4475
   39MOL    C30 5426   4.088   7.815   6.348  0.0011 -0.4533  0.2309
   39MOL    C31 5427   4.005   7.703   6.412  0.2934 -0.0792 -1.2002
   39MOL    C32 5428   3.986   7.591   6.317 -0.3571  0.0232 -0.3025
   39MOL    N33 5429   3.964   7.505   6.245  0.4328 -0.3005  0.0298
   39MOL    H34 5430   4.076   7.809   6.240 -1.2396 -1.1427  0.3958
   39MOL    H35 5431   4.190   7.781   6.366 -0.3574 -1.3266  0.6168
   39MOL    H36 5432   3.907   7.748   6.433  0.1920 -0.7292 -0.2457
   39MOL    C37 5433   4.078   7.654   6.540 -0.4470  0.2581  0.0779
   39MOL    C38 5434   4.008   7.692   6.670  0.4428  0.3826 -0.0937
   39MOL    C39 5435   3.868   7.647   6.684  0.3986 -0.2409 -0.1182
   39MOL    N40 5436   3.758   7.611   6.694 -0.2898  0.4039 -0.9885
   39MOL    H41 5437   4.094   7.547   6.527 -2.3796 -0.1082  0.6340
   39MOL    H42 5438   4.177   7.699   6.542 -0.2765 -0.0207 -1.2660
   39MOL    H43 5439   4.002   7.800   6.681 -1.9390  0.2425  0.1877
   39MOL    C44 5440   4.091   7.639   6.793 -0.0068 -0.0454  0.0560
   39MOL    C45 5441   4.023   7.613   6.932 -0.4030  0.5389 -0.1357
   39MOL    C46 5442   4.095   7.514   7.015  0.5068  0.8209  0.2128
   39MOL    N47 5443   4.153   7.436   7.078  0.3803  0.1616 -0.3612
   39MOL    H48 5444   4.126   7.538   6.769 -2.6369 -0.8358 -0.6175
   39MOL    H49 5445   4.164   7.720   6.799 -0.8605  0.7754 -0.5281
   39MOL    H50 5446   3.934   7.555   6.909 -1.1306  0.8922  1.6841
   39MOL    C51 5447   3.999   7.749   7.011 -0.6399 -0.1399 -0.2502
   39MOL    C52 5448   3.893   7.772   7.115 -0.4342  0.1991 -0.2601
   39MOL    C53 5449   3.936   7.886   7.194 -0.3158  1.0747  0.9975
   39MOL    N54 5450   3.962   7.978   7.262 -0.0455  0.4974 -0.3340
   39MOL    H55 5451   4.092   7.787   7.052 -0.9973 -1.0633  1.4521
   39MOL    H56 5452   3.973   7.826   6.938 -2.0761 -1.9406 -1.7020
   39MOL    H57 5453   3.884   7.690   7.186  2.0092  0.6298  0.6007
   39MOL    C58 5454   3.755   7.798   7.057  0.2557 -0.7738  0.2332
   39MOL    C59 5455   3.628   7.769   7.145 -0.8348 -0.8376 -0.9780
   39MOL    C60 5456   3.626   7.631   7.199 -0.4738  0.1781  0.3814
   39MOL    N61 5457   3.620   7.523   7.241  0.0317  0.4860  0.7405
   39MOL    H62 5458   3.744   7.896   7.010 -1.0991  0.4795  3.0624
   39MOL    H63 5459   3.729   7.741   6.967 -1.9733 -0.8281  0.8793
   39MOL    H64 5460   3.537   7.779   7.085 -0.5422  0.3895 -1.2208
   39MOL    C65 5461   3.604   7.873   7.254  0.3942  0.2822  0.1959
   39MOL    C66 5462   3.474   7.857   7.345 -0.0785 -0.0151  0.8643
   39MOL    C67 5463   3.483   7.930   7.472 -0.4422 -0.0673 -0.1368
   39MOL    N68 5464   3.487   7.988   7.570  0.1907  0.4825 -0.2934
   39MOL    H69 5465   3.689   7.872   7.323  0.5640 -1.1301 -0.0174
   39MOL    H70 5466   3.598   7.972   7.209 -1.2833 -0.4466 -1.2322
   39MOL    H71 5467   3.471   7.753   7.379 -1.1938 -0.0711  0.6201
   39MOL    C72 5468   3.345   7.875   7.260  0.1866  0.4345 -0.8382
   39MOL    C73 5469   3.216   7.842   7.347 -0.3406 -0.1696 -0.0008
   39MOL    C74 5470   3.184   7.960   7.431 -0.2114  0.5644 -0.1823
   39MOL    N75 5471   3.150   8.054   7.494 -0.5845 -0.1582 -0.0373
   39MOL    H76 5472   3.328   7.968   7.206 -2.8153 -0.3847 -1.3992
   39MOL    H77 5473   3.349   7.800   7.181  0.1041 -0.0506 -0.3888
   39MOL    H78 5474   3.231   7.764   7.422  0.1366 -1.9171 -1.8509
   39MOL    C79 5475   3.096   7.810   7.252 -0.2284 -0.1947 -0.3131
   39MOL    C80 5476   2.995   7.705   7.315 -0.2747  0.3174 -0.2772
   39MOL    C81 5477   2.953   7.744   7.452  0.1517 -0.0595  0.0869
   39MOL    N82 5478   2.919   7.771   7.558  0.0565 -0.4235 -0.0236
   39MOL    H83 5479   3.043   7.905   7.241  1.8071  1.1704  1.2533
   39MOL    H84 5480   3.123   7.785   7.150  1.4879  1.6328 -0.3295
   39MOL    H85 5481   3.044   7.612   7.346  3.4899  2.1238 -0.5563
   39MOL    C86 5482   2.869   7.679   7.231  0.2457 -0.3577 -0.0697
   39MOL    C87 5483   2.792   7.549   7.265 -0.0542 -0.8349 -0.8151
   39MOL    C88 5484   2.698   7.566   7.377 -0.0338 -0.1515  0.2030
   39MOL    N89 5485   2.628   7.579   7.467  0.3576 -0.1500  0.2614
   39MOL    H90 5486   2.805   7.767   7.225  1.5471  0.5916 -0.2511
   39MOL    H91 5487   2.905   7.677   7.128 -0.0535  0.9939 -0.2090
   39MOL    H92 5488   2.868   7.482   7.305  0.3224 -1.9507 -3.3346
   39MOL    C93 5489   2.740   7.478   7.144  0.4351 -0.4400 -0.2000
   39MOL    C94 5490   2.595   7.425   7.151  0.0905 -0.2112 -0.0725
   39MOL    C95 5491   2.539   7.418   7.009  0.0710  0.6132  0.4424
   39MOL    N96 5492   2.494   7.411   6.906 -0.0487 -0.4201  0.1280
   39MOL    H97 5493   2.753   7.543   7.057  2.2231  1.7731  1.6498
   39MOL    H98 5494   2.808   7.396   7.124  2.5165  1.6306 -1.8442
   39MOL    H99 5495   2.531   7.491   7.210  0.7442  0.3555  0.0215
   39MOL   C100 5496   2.590   7.299   7.231 -0.0264  0.3092 -0.3105
   39MOL   C101 5497   2.452   7.245   7.270 -0.1645  0.0809  0.0185
   39MOL   C102 5498   2.373   7.351   7.335 -0.0982 -0.6810 -0.3046
   39MOL   N103 5499   2.321   7.445   7.385  0.1502  0.4251 -0.1445
   39MOL   H104 5500   2.632   7.221   7.167 -0.3735 -0.5604  0.4948
   39MOL   H105 5501   2.651   7.305   7.322 -2.1414 -1.4872  1.2805
   39MOL   H106 5502   2.460   7.167   7.345  1.2918  0.2342  0.0436
   39MOL   C107 5503   2.371   7.196   7.146 -0.0407  0.3642  0.3393
   39MOL   C108 5504   2.247   7.119   7.174 -0.4212  0.3585 -0.2003
   39MOL   C109 5505   2.273   6.995   7.245  0.0495 -0.2741  0.2789
   39MOL   N110 5506   2.296   6.896   7.297  0.5120  1.2681 -0.4557
   39MOL   H111 5507   2.336   7.278   7.083 -0.3659 -0.3602 -0.4322
   39MOL   H112 5508   2.438   7.145   7.076 -0.5544  0.9071 -0.5688
   39MOL   H113 5509   2.207   7.076   7.082 -1.9137 -1.6594  1.3550
   39MOL   C114 5510   2.124   7.199   7.228 -0.0593 -0.3538 -0.0192
   39MOL   C115 5511   1.993   7.122   7.243 -0.2263 -0.1772 -0.4115
   39MOL   C116 5512   1.968   7.023   7.135 -0.0904 -0.9193  0.5489
   39MOL   N117 5513   1.957   6.936   7.059 -0.4631  0.0824 -0.1826
   39MOL   H118 5514   2.148   7.257   7.317  3.5310 -1.2204 -0.3490
   39MOL   H119 5515   2.101   7.266   7.145 -1.5031  2.8099  2.8132
   39MOL   H120 5516   1.911   7.195   7.247  1.2266  1.4956 -0.3387
   39MOL   C121 5517   1.977   7.059   7.377 -0.5313  0.0558 -0.2710
   39MOL   C122 5518   1.852   6.987   7.412  0.5661 -0.3840  0.1201
   39MOL   C123 5519   1.739   7.064   7.363 -0.1647 -0.6200 -0.4301
   39MOL   N124 5520   1.649   7.132   7.321 -0.3346  0.8381  0.0087
   39MOL   H125 5521   2.061   6.989   7.387  1.9001  2.9317  0.0759
   39MOL   H126 5522   2.008   7.135   7.449  1.3353  0.6778 -1.6692
   39MOL   H127 5523   1.834   6.984   7.519  0.4528  0.0128  0.1103
   39MOL   C128 5524   1.852   6.843   7.365  0.0510 -0.6785  0.3773
   39MOL   C129 5525   1.762   6.753   7.449  0.4393  0.1495 -0.4554
   39MOL   C130 5526   1.625   6.804   7.465  0.0391  0.3865  0.1860
   39MOL   N131 5527   1.517   6.846   7.472  0.2559 -0.6458  0.0975
   39MOL   H132 5528   1.812   6.828   7.265 -2.5817  2.0750  0.9266
   39MOL   H133 5529   1.951   6.798   7.367  0.4020 -0.0500 -1.7899
   39MOL   H134 5530   1.802   6.751   7.550  1.6299 -0.9213 -0.9238
   39MOL   C135 5531   1.766   6.600   7.423 -0.0176 -0.1827  0.1537
   39MOL   C136 5532   1.650   6.533   7.344  0.1977  0.1498 -0.0330
   39MOL   C137 5533   1.619   6.590   7.214  0.4939 -0.0683  0.3808
   39MOL   N138 5534   1.600   6.639   7.107  0.1255 -0.0942  0.2636
   39MOL   H139 5535   1.864   6.559   7.401 -0.1935 -0.5937  0.1363
   39MOL   H140 5536   1.741   6.562   7.522 -0.5749 -0.5537 -0.1291
   39MOL   H141 5537   1.555   6.524   7.396  0.2393  1.0173  0.2049
   39MOL   H142 5538   1.680   6.429   7.329 -1.0134 -0.3878  1.1698
   40MOL     C1 5539   3.745   6.611   3.254 -0.4166 -0.2224  1.0107
   40MOL     C2 5540   3.611   6.694   3.253 -0.3914 -0.5652 -0.2323
   40MOL     C3 5541   3.599   6.768   3.375  0.2040  0.0843 -0.0265
   40MOL     N4 5542   3.586   6.825   3.475 -0.0112  0.1544  0.6274
   40MOL     H5 5543   3.766   6.579   3.152 -2.5236 -1.7058  1.0098
   40MOL     H6 5544   3.733   6.525   3.320  0.0980  0.3059  1.7962
   40MOL     H7 5545   3.521   6.634   3.243 -1.1300  0.5871 -0.5281
   40MOL     H8 5546   3.836   6.661   3.286  1.3784 -2.9277  0.3741
   40MOL     C9 5547   3.627   6.790   3.125  0.4868  0.5055 -0.2445
   40MOL    C10 5548   3.519   6.890   3.073 -0.3424  0.1622  0.5313
   40MOL    C11 5549   3.390   6.831   3.060 -0.0375 -0.1825 -0.4292
   40MOL    N12 5550   3.288   6.780   3.057  0.2518  0.2080  0.3956
   40MOL    H13 5551   3.723   6.841   3.130  0.9484 -0.4616  1.2952
   40MOL    H14 5552   3.648   6.724   3.041  1.5957 -2.1992  2.0618
   40MOL    H15 5553   3.554   6.920   2.974 -0.9122  0.0098  0.2809
   40MOL    C16 5554   3.516   7.010   3.167 -0.4323 -0.3612 -0.7306
   40MOL    C17 5555   3.522   7.141   3.093 -0.0287 -0.3396 -0.4271
   40MOL    C18 5556   3.652   7.150   3.025  0.2429  0.1122  0.0053
   40MOL    N19 5557   3.754   7.151   2.971  0.3799 -0.1871 -0.1226
   40MOL    H20 5558   3.418   7.012   3.216  0.3203  0.8544  0.7568
   40MOL    H21 5559   3.598   7.014   3.238  1.5389  2.1027 -3.0463
   40MOL    H22 5560   3.534   7.216   3.172  0.6501  0.2477 -1.0820
   40MOL    C23 5561   3.394   7.181   3.017 -0.6485 -1.8133 -0.1442
   40MOL    C24 5562   3.368   7.328   2.988 -0.3214 -0.4035  0.0618
   40MOL    C25 5563   3.480   7.395   2.922  0.1613  0.5987  0.3975
   40MOL    N26 5564   3.570   7.451   2.875  0.1340  0.1986 -0.0381
   40MOL    H27 5565   3.397   7.136   2.918 -1.0500  0.4145 -1.2104
   40MOL    H28 5566   3.313   7.141   3.078  1.2578 -2.5418  1.9448
   40MOL    H29 5567   3.356   7.382   3.082  0.7098 -0.2198  0.0958
   40MOL    C30 5568   3.234   7.350   2.908  0.6680 -0.8779 -0.0815
   40MOL    C31 5569   3.176   7.490   2.926 -0.0497 -0.1411 -0.3045
   40MOL    C32 5570   3.247   7.603   2.862 -0.3294 -0.1773 -0.8843
   40MOL    N33 5571   3.306   7.688   2.813 -0.4696 -0.1897 -0.4756
   40MOL    H34 5572   3.245   7.329   2.801 -0.6279 -2.6114  0.1034
   40MOL    H35 5573   3.163   7.280   2.953 -1.6648  0.7655 -1.0622
   40MOL    H36 5574   3.169   7.511   3.032 -3.2315  1.1444 -0.7226
   40MOL    C37 5575   3.031   7.483   2.895 -0.0561  0.6191  0.3282
   40MOL    C38 5576   2.950   7.589   2.955  0.3372 -1.1650 -0.2122
   40MOL    C39 5577   2.973   7.718   2.879 -0.3847  0.0117 -0.5777
   40MOL    N40 5578   2.994   7.821   2.828  0.1467  0.1000  0.0043
   40MOL    H41 5579   3.024   7.486   2.787 -1.1827  0.9692  0.4048
   40MOL    H42 5580   2.989   7.388   2.930  1.8887 -0.3274  0.1769
   40MOL    H43 5581   2.984   7.629   3.051 -0.7804 -2.5277  0.7789
   40MOL    C44 5582   2.798   7.555   2.959 -0.0768 -0.1339 -0.0255
   40MOL    C45 5583   2.757   7.428   3.045  1.0682 -0.7685 -0.1567
   40MOL    C46 5584   2.803   7.452   3.183  0.5671 -0.2112  0.4194
   40MOL    N47 5585   2.845   7.467   3.288 -0.2680  0.5722 -0.3555
   40MOL    H48 5586   2.747   7.641   3.002 -0.0836 -1.3087  2.3677
   40MOL    H49 5587   2.757   7.554   2.857 -0.0802  1.6971 -0.0553
   40MOL    H50 5588   2.813   7.342   3.007  1.0257 -0.8734  0.0154
   40MOL    C51 5589   2.606   7.394   3.049  0.0458  0.2575  0.7795
   40MOL    C52 5590   2.549   7.313   2.929  0.6090  0.1192  0.0021
   40MOL    C53 5591   2.646   7.206   2.885  0.2828 -0.2376  0.0834
   40MOL    N54 5592   2.719   7.127   2.849 -0.1939  0.0548  0.5578
   40MOL    H55 5593   2.600   7.336   3.141  0.2578 -0.2860  0.4512
   40MOL    H56 5594   2.544   7.483   3.060  0.3172  0.4846  0.4728
   40MOL    H57 5595   2.553   7.379   2.842  0.0265  0.6617  0.3862
   40MOL    C58 5596   2.405   7.256   2.949  0.2343 -0.3381 -0.3982
   40MOL    C59 5597   2.295   7.354   3.000  0.8132  0.4791 -0.5489
   40MOL    C60 5598   2.285   7.483   2.929  0.5721 -0.0526  0.0265
   40MOL    N61 5599   2.271   7.588   2.874  0.6217  0.0790  0.5266
   40MOL    H62 5600   2.371   7.221   2.852  0.8766  2.5353 -1.6852
   40MOL    H63 5601   2.419   7.174   3.020 -1.8399 -0.2626  0.1138
   40MOL    H64 5602   2.334   7.385   3.098  0.3503  0.5232 -0.3767
   40MOL    C65 5603   2.157   7.278   3.010 -0.0262  0.1338 -0.2346
   40MOL    C66 5604   2.110   7.199   2.885 -0.3835  0.1255  0.1600
   40MOL    C67 5605   1.973   7.147   2.902 -0.2502  0.4492  0.3194
   40MOL    N68 5606   1.866   7.107   2.923 -0.1368  0.2245  0.6682
   40MOL    H69 5607   2.166   7.196   3.081  0.6747 -2.3827 -3.1194
   40MOL    H70 5608   2.082   7.346   3.051 -1.1707 -1.4198  0.3229
   40MOL    H71 5609   2.180   7.117   2.879 -1.9877 -1.1085 -2.4220
   40MOL    C72 5610   2.121   7.274   2.744  0.2775 -0.5941  0.3275
   40MOL    C73 5611   1.993   7.359   2.712 -0.7854 -0.7287 -0.2823
   40MOL    C74 5612   1.980   7.465   2.818 -0.0010 -0.2562  0.4724
   40MOL    N75 5613   1.969   7.546   2.902  0.7032 -0.1944 -0.0327
   40MOL    H76 5614   2.209   7.337   2.744 -0.4744  0.4724 -0.1281
   40MOL    H77 5615   2.139   7.194   2.671  2.5568 -0.9567  1.2487
   40MOL    H78 5616   1.902   7.299   2.716 -1.1186 -0.1529  1.4791
   40MOL    C79 5617   2.000   7.431   2.579  0.5004 -0.5181  0.4230
   40MOL    C80 5618   1.870   7.500   2.539 -0.3769  0.0104  0.8511
   40MOL    C81 5619   1.756   7.421   2.596 -0.2581  0.3303 -0.6274
   40MOL    N82 5620   1.662   7.369   2.639  0.0419  0.4818 -0.2566
   40MOL    H83 5621   2.090   7.493   2.580  0.3387 -0.2618 -0.5334
   40MOL    H84 5622   2.031   7.353   2.509 -1.1712 -0.2038 -0.6885
   40MOL    H85 5623   1.864   7.481   2.431 -4.7710 -2.0136  1.3220
   40MOL    C86 5624   1.867   7.647   2.577  0.3361 -0.3344 -0.4025
   40MOL    C87 5625   1.785   7.741   2.486 -0.2035 -0.5105  0.1171
   40MOL    C88 5626   1.643   7.725   2.499  0.0850 -0.5097 -0.1002
   40MOL    N89 5627   1.527   7.709   2.503 -0.5964 -0.0040  0.5722
   40MOL    H90 5628   1.823   7.652   2.677  1.3966 -0.9002  0.1092
   40MOL    H91 5629   1.969   7.683   2.589  0.7905 -1.9046  0.7050
   40MOL    H92 5630   1.813   7.715   2.384 -1.6845 -0.5346 -0.3013
   40MOL    C93 5631   1.820   7.889   2.514  0.0928  0.7700 -0.5889
   40MOL    C94 5632   1.961   7.935   2.469 -0.0946 -0.4497  0.6375
   40MOL    C95 5633   1.968   7.918   2.319  0.0919 -0.1858  0.4218
   40MOL    N96 5634   1.967   7.902   2.204 -0.7496  0.5094  0.0721
   40MOL    H97 5635   1.736   7.944   2.473 -1.8192 -2.3928 -1.0976
   40MOL    H98 5636   1.809   7.906   2.622 -1.5433  1.7396 -0.9002
   40MOL    H99 5637   2.045   7.879   2.510  0.5161  0.7149  0.9924
   40MOL   C100 5638   1.990   8.082   2.516  0.4493 -0.0774  0.1277
   40MOL   C101 5639   2.132   8.141   2.508  0.0328  0.5496 -0.1294
   40MOL   C102 5640   2.215   8.086   2.395  0.0898  0.2989 -0.9463
   40MOL   N103 5641   2.279   8.046   2.309 -0.1324  0.6137  0.2734
   40MOL   H104 5642   1.919   8.148   2.465 -0.3558 -0.3915  0.8130
   40MOL   H105 5643   1.954   8.097   2.618  0.2044  0.5749 -0.0527
   40MOL   H106 5644   2.182   8.090   2.591 -0.9773  0.5385  0.4840
   40MOL   C107 5645   2.132   8.296   2.539  0.1231 -0.1802 -0.1888
   40MOL   C108 5646   2.273   0.031   2.578  0.0588  0.2744  0.3117
   40MOL   C109 5647   2.286   0.176   2.556  0.5256 -0.5117  0.2669
   40MOL   N110 5648   2.295   0.288   2.538 -0.1312 -0.5736 -0.4164
   40MOL   H111 5649   2.098   0.040   2.452 -1.8507  1.1554  1.4068
   40MOL   H112 5650   2.077   0.018   2.627 -1.6901 -0.4879 -1.1777
   40MOL   H113 5651   2.351   0.004   2.506 -0.6166  2.1955 -1.1820
   40MOL   C114 5652   2.323   8.299   2.717 -0.7684 -0.0992 -0.5764
   40MOL   C115 5653   2.319   0.100   2.832 -0.0603 -0.7573  0.6220
   40MOL   C116 5654   2.179   0.138   2.867  0.1616  0.5816  0.6406
   40MOL   N117 5655   2.071   0.165   2.900  0.6545 -0.1039  0.0629
   40MOL   H118 5656   2.264   8.211   2.742 -0.3918  0.2142  1.4679
   40MOL   H119 5657   2.424   8.263   2.695 -0.8507 -1.5797  1.3083
   40MOL   H120 5658   2.378   0.186   2.799  1.5002 -1.4272  1.6062
   40MOL   C121 5659   2.395   0.068   2.957  0.3629  0.2264  0.1931
   40MOL   C122 5660   2.435   0.179   3.058  0.9845 -0.0228 -0.2975
   40MOL   C123 5661   2.466   0.305   2.997  0.5305 -0.6253 -0.2234
   40MOL   N124 5662   2.482   0.406   2.946  0.0248 -0.0418  0.1195
   40MOL   H125 5663   2.338   8.300   3.004  0.7300  0.6495  1.3622
   40MOL   H126 5664   2.483   0.020   2.915  1.1366  0.8134  1.1391
   40MOL   H127 5665   2.526   0.147   3.108  0.8634  2.2025  1.4538
   40MOL   C128 5666   2.333   0.195   3.167  0.3320  0.4753  0.6109
   40MOL   C129 5667   2.399   0.228   3.306  0.3671 -0.2916  0.0270
   40MOL   C130 5668   2.484   0.114   3.345  0.0235  0.5663  0.1737
   40MOL   N131 5669   2.552   0.026   3.379  0.5475 -0.2839  0.8017
   40MOL   H132 5670   2.265   0.276   3.139  0.5517  1.0743  1.7775
   40MOL   H133 5671   2.282   0.101   3.190 -1.3549  1.1521 -0.2555
   40MOL   H134 5672   2.323   0.216   3.383 -1.2170 -1.2689 -1.6448
   40MOL   C135 5673   2.462   0.366   3.320  0.2396 -0.5976 -0.3688
   40MOL   C136 5674   2.525   0.390   3.456  0.6866  0.4426 -0.9798
   40MOL   C137 5675   2.413   0.397   3.556  0.3309 -0.8738  0.3032
   40MOL   N138 5676   2.329   0.404   3.633 -0.4248 -0.1879  0.3673
   40MOL   H139 5677   2.541   0.387   3.247 -0.0072  0.4133 -0.3502
   40MOL   H140 5678   2.386   0.442   3.305 -1.1142 -1.8945 -0.0932
   40MOL   H141 5679   2.589   0.478   3.450  0.7900  0.4345 -0.0440
   40MOL   H142 5680   2.592   0.308   3.479 -1.7751 -0.5222  3.1848
   41MOL     C1 5681   7.910   4.141   5.025 -0.4702 -0.0783 -0.0743
   41MOL     C2 5682   8.038   4.119   4.953 -0.5441  0.4620  0.3503
   41MOL     C3 5683   8.103   4.249   4.923  0.0475 -0.5082 -0.0163
   41MOL     N4 5684   8.151   4.353   4.898  0.1214  0.1348 -0.1554
   41MOL     H5 5685   7.856   4.215   4.967  0.4868 -0.9280 -2.1029
   41MOL     H6 5686   7.920   4.165   5.131 -2.7689 -0.5254  0.2804
   41MOL     H7 5687   8.014   4.075   4.857  0.0012  0.3287  0.2748
   41MOL     H8 5688   7.837   4.060   5.025  0.6708 -1.1824  2.7856
   41MOL     C9 5689   8.130   4.011   5.019 -0.1706 -0.2452  0.0561
   41MOL    C10 5690   8.263   3.982   4.942  0.5123  0.1470 -0.0369
   41MOL    C11 5691   0.050   3.925   5.032  0.2357 -0.6038 -0.3905
   41MOL    N12 5692   0.135   3.879   5.096 -0.0579 -0.5310 -0.6922
   41MOL    H13 5693   8.148   4.040   5.123 -0.9355  0.5609 -0.0348
   41MOL    H14 5694   8.074   3.917   5.030 -0.6759 -0.0796 -1.0615
   41MOL    H15 5695   8.302   4.075   4.901  0.5069  0.3965  0.5238
   41MOL    C16 5696   8.234   3.884   4.823  0.1031 -0.2151 -0.2139
   41MOL    C17 5697   0.029   3.874   4.708  0.3165 -0.1786 -0.2406
   41MOL    C18 5698   0.172   3.844   4.746 -0.5161  0.2268 -0.0602
   41MOL    N19 5699   0.286   3.830   4.779 -0.6119 -0.3272 -0.2517
   41MOL    H20 5700   8.234   3.786   4.870 -0.5105  0.1686  0.6028
   41MOL    H21 5701   8.135   3.889   4.778  0.3918  1.6817 -0.7043
   41MOL    H22 5702   0.050   3.979   4.685  0.6551  0.1001  1.2794
   41MOL    C23 5703   8.288   3.794   4.589  0.9005  0.2712  0.7342
   41MOL    C24 5704   0.012   3.639   4.582 -0.2768  0.2743  0.6727
   41MOL    C25 5705   8.274   3.560   4.692 -0.1912 -0.1607 -0.9114
   41MOL    N26 5706   8.224   3.506   4.782  0.0282 -0.7215  0.2071
   41MOL    H27 5707   8.180   3.786   4.575  0.6098 -1.1439  3.4529
   41MOL    H28 5708   0.018   3.844   4.502  0.7724  0.4888  0.7968
   41MOL    H29 5709   0.121   3.628   4.588 -0.6601 -4.2042  1.2765
   41MOL    C30 5710   8.280   3.578   4.441 -0.2181  0.2433 -0.1851
   41MOL    C31 5711   8.312   3.431   4.444  0.0492 -0.2725 -0.1329
   41MOL    C32 5712   8.235   3.352   4.342 -0.6353 -0.2121  0.8228
   41MOL    N33 5713   8.170   3.297   4.263 -0.3832  0.1723  0.3718
   41MOL    H34 5714   8.172   3.578   4.435 -0.2363 -1.1841  0.0047
   41MOL    H35 5715   8.310   3.644   4.360 -1.4077  0.3238 -0.5675
   41MOL    H36 5716   8.280   3.389   4.540  0.9454 -1.5242 -0.3817
   41MOL    C37 5717   0.146   3.397   4.424  0.0947 -0.5094 -0.1241
   41MOL    C38 5718   0.232   3.463   4.313 -1.2384  0.2760 -0.6447
   41MOL    C39 5719   0.249   3.607   4.323 -0.1672  0.7107 -0.0792
   41MOL    N40 5720   0.261   3.722   4.327  0.0080  0.5640 -0.4639
   41MOL    H41 5721   0.196   3.419   4.519 -1.7627  0.2306  0.6951
   41MOL    H42 5722   0.148   3.288   4.419 -2.1077 -0.6578  1.5251
   41MOL    H43 5723   0.172   3.474   4.223 -0.7590 -0.4394 -1.0528
   41MOL    C44 5724   0.367   3.392   4.299  0.3482 -0.2962  0.0525
   41MOL    C45 5725   0.355   3.252   4.246  0.1393  0.0319  0.1835
   41MOL    C46 5726   0.290   3.250   4.115 -0.4870 -0.0722 -0.2760
   41MOL    N47 5727   0.237   3.256   4.011 -0.2592 -0.0065  0.7699
   41MOL    H48 5728   0.437   3.448   4.239  2.6689 -1.1682  1.8659
   41MOL    H49 5729   0.414   3.389   4.397  1.8952 -0.6208 -0.6948
   41MOL    H50 5730   0.289   3.189   4.305 -2.0320  0.3117 -1.8856
   41MOL    C51 5731   0.496   3.186   4.227  0.3775 -0.1174 -0.5344
   41MOL    C52 5732   0.505   3.067   4.132 -0.0551 -0.2674  0.4535
   41MOL    C53 5733   0.544   3.106   3.995 -0.0231  0.5925 -0.3531
   41MOL    N54 5734   0.570   3.146   3.891 -0.1908  0.9004  0.5588
   41MOL    H55 5735   0.568   3.258   4.191  0.8169 -0.6750 -0.7847
   41MOL    H56 5736   0.525   3.154   4.327  1.2403  0.8593 -0.4699
   41MOL    H57 5737   0.402   3.032   4.133 -1.2511  2.9187 -1.4894
   41MOL    C58 5738   0.583   2.942   4.164  0.4931  0.2391  0.2293
   41MOL    C59 5739   0.562   2.865   4.299  0.0093 -0.0002 -0.0982
   41MOL    C60 5740   0.638   2.947   4.397  0.3838 -0.4232  0.1454
   41MOL    N61 5741   0.702   3.009   4.472  0.0174 -0.5345  0.0661
   41MOL    H62 5742   0.551   2.875   4.085  0.5462  1.0299 -0.4672
   41MOL    H63 5743   0.684   2.978   4.145  0.5211  0.2529  0.4037
   41MOL    H64 5744   0.630   2.780   4.292  0.7506  0.5784 -0.0409
   41MOL    C65 5745   0.425   2.808   4.326 -0.4543 -0.0168  0.4970
   41MOL    C66 5746   0.419   2.725   4.453  0.3184 -0.3565 -0.6587
   41MOL    C67 5747   0.437   2.791   4.584  0.2607 -0.0191  0.1022
   41MOL    N68 5748   0.450   2.850   4.684 -0.2583 -0.9827 -0.1244
   41MOL    H69 5749   0.360   2.895   4.334  0.0726  0.2372  2.1031
   41MOL    H70 5750   0.392   2.745   4.243 -0.4815  0.4601  0.1413
   41MOL    H71 5751   0.499   2.652   4.451  0.7731  0.1432 -0.8840
   41MOL    C72 5752   0.286   2.649   4.454 -0.0968 -0.1206  0.1879
   41MOL    C73 5753   0.269   2.528   4.554  0.1293  0.6492  0.1568
   41MOL    C74 5754   0.378   2.429   4.549 -0.2680 -0.1381  0.2804
   41MOL    N75 5755   0.463   2.350   4.540  0.6077  0.0089 -0.6124
   41MOL    H76 5756   0.219   2.733   4.473  0.8392  0.5614  0.5084
   41MOL    H77 5757   0.257   2.609   4.356  0.2807 -1.8182  0.7524
   41MOL    H78 5758   0.184   2.470   4.519  0.8672  0.7206 -1.8302
   41MOL    C79 5759   0.234   2.569   4.694 -0.1968 -0.2729 -0.0929
   41MOL    C80 5760   0.195   2.469   4.801 -0.8615  0.2191 -0.6014
   41MOL    C81 5761   0.315   2.418   4.865 -0.6750  0.4487 -0.4360
   41MOL    N82 5762   0.408   2.375   4.919 -0.6310  0.3149  0.5369
   41MOL    H83 5763   0.319   2.627   4.731 -0.0568 -1.0799  0.8616
   41MOL    H84 5764   0.157   2.644   4.676 -0.3436 -0.1829  0.8848
   41MOL    H85 5765   0.135   2.391   4.755 -1.3149 -0.5333  1.2396
   41MOL    C86 5766   0.107   2.529   4.909  0.2090  0.5400  0.2534
   41MOL    C87 5767   0.039   2.434   5.009  0.4528 -0.5872 -0.0292
   41MOL    C88 5768   8.274   2.340   4.927  0.4438  0.3119  0.1261
   41MOL    N89 5769   8.209   2.263   4.871  0.4975  0.0163  0.3940
   41MOL    H90 5770   0.154   2.616   4.955  0.7362  1.0954 -1.3103
   41MOL    H91 5771   0.024   2.576   4.855  0.8004  0.3789 -0.8184
   41MOL    H92 5772   8.276   2.491   5.063  1.1749 -0.9618  1.4268
   41MOL    C93 5773   0.126   2.360   5.109 -0.3574  0.5652  0.1643
   41MOL    C94 5774   0.188   2.453   5.209 -0.7471  0.3019 -0.6019
   41MOL    C95 5775   0.085   2.517   5.298 -0.1147 -0.4261  0.1434
   41MOL    N96 5776   0.008   2.574   5.368  0.3289  0.0934 -0.1092
   41MOL    H97 5777   0.076   2.279   5.163 -0.6588  0.2397 -0.6032
   41MOL    H98 5778   0.204   2.313   5.049  0.2967  3.3627 -1.2606
   41MOL    H99 5779   0.231   2.540   5.159  0.7699  0.1052  0.3353
   41MOL   C100 5780   0.314   2.392   5.281  0.2112  0.4054  0.0332
   41MOL   C101 5781   0.315   2.402   5.432  0.1636 -0.2370 -0.2534
   41MOL   C102 5782   0.206   2.323   5.496 -0.3999 -0.3312  0.3436
   41MOL   N103 5783   0.124   2.262   5.553 -0.2102  1.0234  0.6054
   41MOL   H104 5784   0.316   2.288   5.248  0.9362  0.6544 -0.7525
   41MOL   H105 5785   0.407   2.426   5.235  1.0869  0.1519  1.5942
   41MOL   H106 5786   0.314   2.506   5.464  2.8144 -0.6927  1.5129
   41MOL   C107 5787   0.451   2.357   5.496  0.2790  0.2285 -0.0549
   41MOL   C108 5788   0.568   2.450   5.473  0.0897 -0.4046 -0.1072
   41MOL   C109 5789   0.554   2.584   5.536  0.3974  0.2281 -0.4020
   41MOL   N110 5790   0.540   2.686   5.588  0.2639  0.1837 -0.0408
   41MOL   H111 5791   0.430   2.362   5.603  0.2297  0.8955 -0.0951
   41MOL   H112 5792   0.474   2.252   5.477  1.2743  0.7089 -1.6394
   41MOL   H113 5793   0.562   2.468   5.365 -2.4917 -0.4072 -0.0057
   41MOL   C114 5794   0.708   2.380   5.490  0.1617 -0.1138 -0.3813
   41MOL   C115 5795   0.736   2.320   5.629 -0.0734  0.0446  0.3069
   41MOL   C116 5796   0.657   2.204   5.675  0.3740 -0.0011  1.0975
   41MOL   N117 5797   0.596   2.111   5.711  0.5189 -0.1570 -0.3679
   41MOL   H118 5798   0.721   2.298   5.419 -1.3494 -0.8185  0.1263
   41MOL   H119 5799   0.781   2.457   5.469 -1.5912  1.9600  0.9079
   41MOL   H120 5800   0.714   2.398   5.701 -0.9435  0.8914 -0.8673
   41MOL   C121 5801   0.888   2.297   5.646  0.6298 -0.3771 -0.0206
   41MOL   C122 5802   0.928   2.248   5.789 -0.3980  0.1060 -0.1429
   41MOL   C123 5803   0.907   2.103   5.801  0.4986 -0.6065  1.7241
   41MOL   N124 5804   0.887   1.990   5.806  0.2811 -0.5866  0.0072
   41MOL   H125 5805   0.929   2.235   5.567 -0.9148 -0.5028 -0.7521
   41MOL   H126 5806   0.942   2.391   5.628  0.3214 -0.2407 -0.2325
   41MOL   H127 5807   0.869   2.299   5.866  1.6152  0.0600  1.4772
   41MOL   C128 5808   1.077   2.281   5.823  0.2460  0.3622  0.3067
   41MOL   C129 5809   1.181   2.228   5.719  0.1997 -0.2785 -1.1589
   41MOL   C130 5810   1.196   2.321   5.605 -0.4886  0.1220  1.0445
   41MOL   N131 5811   1.214   2.399   5.522 -0.6410  0.1748  0.3686
   41MOL   H132 5812   1.086   2.390   5.829  0.0595  0.4770 -1.3380
   41MOL   H133 5813   1.102   2.249   5.924  0.3184 -3.0669 -0.7523
   41MOL   H134 5814   1.146   2.140   5.666  3.2172 -2.0066 -0.4258
   41MOL   C135 5815   1.325   2.199   5.782 -0.0528  0.8494  0.0589
   41MOL   C136 5816   1.427   2.128   5.699  0.1677 -0.1041  0.0823
   41MOL   C137 5817   1.509   2.049   5.790  0.4572  0.5310  0.2781
   41MOL   N138 5818   1.575   1.989   5.866  0.4560 -1.1144  0.2170
   41MOL   H139 5819   1.371   2.290   5.822 -0.4139  0.7390  0.7401
   41MOL   H140 5820   1.298   2.141   5.870 -0.7944  1.0091 -0.0634
   41MOL   H141 5821   1.489   2.202   5.647 -0.0169 -0.4863 -0.6993
   41MOL   H142 5822   1.368   2.068   5.630  1.8888 -0.1750 -1.3796
   42MOL     C1 5823   1.690   7.371   0.253  0.0719 -0.1801 -0.2235
   42MOL     C2 5824   1.833   7.334   0.216 -1.0241  0.6013  0.3044
   42MOL     C3 5825   1.895   7.453   0.158  0.2713  0.3828  0.3684
   42MOL     N4 5826   1.945   7.547   0.111  0.0833  0.1653 -0.2272
   42MOL     H5 5827   1.634   7.282   0.282  4.4031 -2.2088  2.5219
   42MOL     H6 5828   1.641   7.430   0.176 -0.8240  1.6823  1.7427
   42MOL     H7 5829   1.837   7.261   0.135 -0.3631 -0.1896  1.0318
   42MOL     H8 5830   1.691   7.438   0.338  0.7708  1.0672 -1.1945
   42MOL     C9 5831   1.926   7.287   0.331 -0.1371  0.1951 -0.4193
   42MOL    C10 5832   1.866   7.195   0.433 -0.4045  0.4803  0.8034
   42MOL    C11 5833   1.840   7.071   0.365 -0.3105  0.1429  0.0444
   42MOL    N12 5834   1.822   6.969   0.309  0.3771  0.0434 -0.2533
   42MOL    H13 5835   2.012   7.239   0.283  0.7103  0.2509  1.0214
   42MOL    H14 5836   1.965   7.369   0.391 -0.8955 -0.0468  0.4157
   42MOL    H15 5837   1.769   7.234   0.465 -2.3491 -3.4590 -0.0631
   42MOL    C16 5838   1.951   7.176   0.563  0.0869  0.0693  0.1347
   42MOL    C17 5839   1.943   7.298   0.660 -0.1498  0.1924  0.2474
   42MOL    C18 5840   1.809   7.368   0.650 -0.3394 -0.3928 -0.0278
   42MOL    N19 5841   1.709   7.419   0.646  0.3625  0.5897 -0.0305
   42MOL    H20 5842   1.910   7.091   0.617  1.8298 -0.7277  0.2433
   42MOL    H21 5843   2.055   7.163   0.533 -0.0446  0.1723 -0.3758
   42MOL    H22 5844   2.018   7.372   0.631  1.3772 -1.9402 -1.3370
   42MOL    C23 5845   1.962   7.269   0.805 -0.5740 -0.2555 -0.2739
   42MOL    C24 5846   2.101   7.208   0.854 -0.8576 -0.8284  0.3632
   42MOL    C25 5847   2.203   7.249   0.756  0.8392  0.2154 -0.3213
   42MOL    N26 5848   2.276   7.273   0.673 -0.4853  0.4791  0.1748
   42MOL    H27 5849   1.953   7.368   0.849 -1.6891  0.7687 -2.7248
   42MOL    H28 5850   1.884   7.210   0.853  0.5724 -3.1191 -1.7964
   42MOL    H29 5851   2.089   7.100   0.844 -2.4182 -0.5290 -1.2549
   42MOL    C30 5852   2.135   7.252   0.993  0.0156 -0.0350 -0.3494
   42MOL    C31 5853   2.266   7.189   1.050  1.0739 -0.7073  0.0362
   42MOL    C32 5854   2.281   7.237   1.190 -0.0333 -0.7116 -0.3775
   42MOL    N33 5855   2.288   7.280   1.296 -0.0971  0.3954 -0.2262
   42MOL    H34 5856   2.143   7.361   0.992  1.7433 -0.1217  1.3844
   42MOL    H35 5857   2.049   7.225   1.054  2.2708 -2.4942  1.8450
   42MOL    H36 5858   2.343   7.246   0.997 -0.8969  1.9576 -0.0374
   42MOL    C37 5859   2.272   7.036   1.022  0.1271  0.2913  0.1942
   42MOL    C38 5860   2.384   6.958   1.091  0.1474  0.4825 -0.4579
   42MOL    C39 5861   2.519   7.013   1.056  0.2315  0.2459  0.5517
   42MOL    N40 5862   2.629   7.048   1.030 -0.1694  0.1618 -0.5869
   42MOL    H41 5863   2.175   6.990   1.034  0.3613 -0.1161  0.5106
   42MOL    H42 5864   2.294   7.017   0.916  2.4032 -0.4196  0.7521
   42MOL    H43 5865   2.384   6.855   1.053 -2.1612 -0.2247  1.3700
   42MOL    C44 5866   2.360   6.942   1.245 -0.3685  0.0399 -0.0162
   42MOL    C45 5867   2.407   6.806   1.310 -0.6331  0.1012  0.7938
   42MOL    C46 5868   2.557   6.791   1.324 -0.1249 -0.0693  0.3284
   42MOL    N47 5869   2.674   6.777   1.336 -0.0049 -0.3384  0.0628
   42MOL    H48 5870   2.430   7.013   1.290  2.4097 -2.1644 -0.7332
   42MOL    H49 5871   2.259   6.970   1.276 -0.2974  1.3980 -0.9640
   42MOL    H50 5872   2.382   6.730   1.236 -0.1383  1.4307 -0.7847
   42MOL    C51 5873   2.344   6.771   1.446  0.5490  0.3995 -0.0694
   42MOL    C52 5874   2.351   6.866   1.567 -0.1396  0.0525  0.4979
   42MOL    C53 5875   2.493   6.881   1.612 -0.0473 -0.0921 -0.7983
   42MOL    N54 5876   2.600   6.895   1.647  0.0685  0.4473  0.2640
   42MOL    H55 5877   2.244   6.731   1.429  0.2164  1.3176 -0.3408
   42MOL    H56 5878   2.397   6.684   1.484 -2.3973 -1.4445 -0.0952
   42MOL    H57 5879   2.310   6.816   1.655 -0.9185  0.1572  0.2011
   42MOL    C58 5880   2.270   7.000   1.536  0.2324  0.2113 -0.5906
   42MOL    C59 5881   2.243   7.101   1.653 -0.3073  0.8168 -0.4703
   42MOL    C60 5882   2.164   7.031   1.752  0.3578 -0.4374 -0.4374
   42MOL    N61 5883   2.098   6.979   1.837 -0.1189  0.2941 -0.5551
   42MOL    H62 5884   2.315   7.061   1.457  1.6428 -0.4605 -0.3152
   42MOL    H63 5885   2.168   6.970   1.509 -0.0136  0.3274  0.2016
   42MOL    H64 5886   2.183   7.183   1.614 -0.4098  0.5862 -0.8086
   42MOL    C65 5887   2.376   7.152   1.716 -0.1593 -0.0066 -0.1861
   42MOL    C66 5888   2.456   7.258   1.645 -0.0401 -0.4513 -0.4647
   42MOL    C67 5889   2.392   7.383   1.666  0.2705  0.0580  0.4317
   42MOL    N68 5890   2.333   7.479   1.690  0.1381 -0.3506  0.2628
   42MOL    H69 5891   2.334   7.198   1.806  0.2329 -1.2974  0.6757
   42MOL    H70 5892   2.440   7.073   1.755  0.5447  0.8215  0.3378
   42MOL    H71 5893   2.450   7.230   1.539  1.7376 -0.3498 -0.6002
   42MOL    C72 5894   2.604   7.261   1.694 -0.6256 -0.2387 -0.4899
   42MOL    C73 5895   2.648   7.305   1.838  0.0032  0.3737  1.0511
   42MOL    C74 5896   2.551   7.286   1.947  0.6983 -0.1330  0.1239
   42MOL    N75 5897   2.474   7.270   2.028  0.3621 -0.3836  0.3502
   42MOL    H76 5898   2.644   7.161   1.682  2.5169  0.7766  1.0013
   42MOL    H77 5899   2.666   7.320   1.626 -0.3982  1.1621  0.9017
   42MOL    H78 5900   2.652   7.414   1.832  2.7242  0.2269 -0.5367
   42MOL    C79 5901   2.790   7.246   1.882  0.5491  0.4525 -0.7917
   42MOL    C80 5902   2.845   7.290   2.016 -0.4340 -0.6332 -0.0818
   42MOL    C81 5903   2.928   7.182   2.076 -1.0279 -0.3938 -0.2831
   42MOL    N82 5904   2.989   7.098   2.122  0.3510 -0.1406 -0.2884
   42MOL    H83 5905   2.789   7.137   1.874 -0.8790  0.1252  2.7539
   42MOL    H84 5906   2.861   7.262   1.801  2.3391 -0.8498  0.4675
   42MOL    H85 5907   2.755   7.306   2.075 -0.0063  0.0082  0.4091
   42MOL    C86 5908   2.923   7.418   1.997  0.2290  0.8089 -0.1565
   42MOL    C87 5909   2.984   7.467   2.128  0.5509  0.6276  0.5516
   42MOL    C88 5910   3.110   7.400   2.152 -0.0457 -0.3791  0.0273
   42MOL    N89 5911   3.209   7.342   2.170  0.1818  0.6809 -0.3056
   42MOL    H90 5912   2.999   7.405   1.920  1.1206  1.3802  0.6107
   42MOL    H91 5913   2.850   7.493   1.966  0.6303  1.4070  0.3191
   42MOL    H92 5914   2.912   7.435   2.204  0.7300 -0.0280  0.4412
   42MOL    C93 5915   2.998   7.624   2.128 -0.6491  0.2703 -0.5417
   42MOL    C94 5916   3.033   7.668   2.266  0.3975 -0.0129  0.0603
   42MOL    C95 5917   2.994   7.574   2.376  0.6350  0.2948  0.3973
   42MOL    N96 5918   2.969   7.504   2.464  0.6012  0.0668 -0.1507
   42MOL    H97 5919   3.069   7.656   2.052 -0.3571 -1.7015 -1.1221
   42MOL    H98 5920   2.900   7.666   2.106 -1.8996 -2.5424 -0.6306
   42MOL    H99 5921   2.969   7.754   2.289 -1.4994 -1.4276  0.1790
   42MOL   C100 5922   3.187   7.700   2.285 -0.2426 -0.0625  0.1288
   42MOL   C101 5923   3.223   7.758   2.418 -0.4703 -0.2365 -0.4121
   42MOL   C102 5924   3.368   7.801   2.419 -0.1140  0.3395 -0.4998
   42MOL   N103 5925   3.479   7.834   2.424 -0.1765  0.1836  0.1044
   42MOL   H104 5926   3.247   7.609   2.278  1.5932  1.0579  0.8228
   42MOL   H105 5927   3.233   7.759   2.206 -1.4565 -1.9182 -2.0054
   42MOL   H106 5928   3.210   7.674   2.486 -0.1631  2.2108  2.7726
   42MOL   C107 5929   3.120   7.878   2.452  0.1206  0.6534 -0.9477
   42MOL   C108 5930   3.153   7.972   2.575 -0.0984  0.4154 -0.4005
   42MOL   C109 5931   3.272   8.059   2.542 -0.0859  0.4327 -0.5584
   42MOL   N110 5932   3.369   8.122   2.520  0.1281  0.4793 -0.6717
   42MOL   H111 5933   3.106   7.941   2.364 -2.5074  1.2903 -0.1104
   42MOL   H112 5934   3.020   7.836   2.463  0.0159  0.6525 -1.8183
   42MOL   H113 5935   3.180   7.920   2.667 -0.9185  1.9272  0.7231
   42MOL   C114 5936   3.018   8.051   2.609 -0.1338 -0.0867 -0.4539
   42MOL   C115 5937   3.022   8.153   2.727  0.0157  0.4476  0.6295
   42MOL   C116 5938   3.087   8.281   2.683 -0.6678  0.0406 -0.6126
   42MOL   N117 5939   3.137   0.068   2.647  0.3911 -0.0921 -0.2952
   42MOL   H118 5940   2.992   8.106   2.518  0.1829  0.2677 -0.3283
   42MOL   H119 5941   2.937   7.979   2.627 -1.3622  1.6871  1.3588
   42MOL   H120 5942   3.086   8.105   2.801  0.5435 -1.2727 -0.9063
   42MOL   C121 5943   2.885   8.171   2.788 -0.3679  0.1329 -0.2204
   42MOL   C122 5944   2.873   8.248   2.919 -0.1225  0.3378 -1.1020
   42MOL   C123 5945   2.782   0.051   2.922 -0.6699  0.0128 -0.2986
   42MOL   N124 5946   2.705   0.135   2.921 -0.2241 -0.1927 -0.5348
   42MOL   H125 5947   2.818   8.210   2.711 -0.0970 -0.1029 -0.5791
   42MOL   H126 5948   2.848   8.071   2.812  0.0732 -0.2231 -0.9952
   42MOL   H127 5949   2.965   8.303   2.940  1.1666 -1.5547 -1.7076
   42MOL   C128 5950   2.861   8.161   3.045  0.4592 -0.1413  0.4326
   42MOL   C129 5951   2.826   8.227   3.180  0.2034  0.1639 -0.3028
   42MOL   C130 5952   2.761   8.129   3.273  0.6526  0.0349 -0.1212
   42MOL   N131 5953   2.708   8.049   3.340 -0.0461 -0.1952 -0.1203
   42MOL   H132 5954   2.794   8.076   3.031  1.2034 -0.5228 -0.9860
   42MOL   H133 5955   2.958   8.111   3.046  0.3621 -0.4919 -2.2233
   42MOL   H134 5956   2.745   8.299   3.168 -0.3435 -0.0069  2.2095
   42MOL   C135 5957   2.953   8.291   3.233 -0.3658 -0.3268 -0.6074
   42MOL   C136 5958   2.930   0.066   3.359  0.3350  0.2293 -0.1410
   42MOL   C137 5959   3.026   0.175   3.374  0.2884 -0.3708 -0.0211
   42MOL   N138 5960   3.107   0.261   3.392 -0.4188  0.0840  0.4635
   42MOL   H139 5961   3.026   8.219   3.270 -1.7321 -0.6547  1.5433
   42MOL   H140 5962   2.992   0.036   3.149 -1.6018 -0.6067 -1.3827
   42MOL   H141 5963   2.917   0.011   3.452 -1.3605 -1.1241 -1.1269
   42MOL   H142 5964   2.840   0.125   3.342 -0.6095 -2.0933 -3.9640
   43MOL     C1 5965   7.174   1.056   2.173  0.0826 -0.4290  0.3199
   43MOL     C2 5966   7.223   1.125   2.045  0.1895  0.2650 -0.0194
   43MOL     C3 5967   7.121   1.223   2.005 -0.3983  0.2107  0.6519
   43MOL     N4 5968   7.044   1.303   1.973 -0.1200  0.1377  0.0301
   43MOL     H5 5969   7.073   1.020   2.153  0.4802 -0.2341 -2.3176
   43MOL     H6 5970   7.175   1.123   2.259  0.1964 -1.0673  0.8142
   43MOL     H7 5971   7.228   1.046   1.970  0.9008 -1.9778  2.2953
   43MOL     H8 5972   7.242   0.974   2.194 -1.5918 -1.9135  0.0144
   43MOL     C9 5973   7.368   1.173   2.055  0.4789  0.0037  0.2428
   43MOL    C10 5974   7.392   1.317   2.092  0.3667  0.0459  0.0393
   43MOL    C11 5975   7.331   1.356   2.221 -0.0536  0.3804  0.8196
   43MOL    N12 5976   7.280   1.388   2.324  0.7264  0.5404  0.3339
   43MOL    H13 5977   7.430   1.097   2.105  1.6342  0.0078 -1.1513
   43MOL    H14 5978   7.408   1.156   1.955  0.0234  0.2748  0.0183
   43MOL    H15 5979   7.328   1.368   2.020 -0.9906  1.0085  1.8830
   43MOL    C16 5980   7.535   1.360   2.064 -0.1641 -0.1133  0.2353
   43MOL    C17 5981   7.566   1.510   2.096  0.0490  0.2694  0.2047
   43MOL    C18 5982   7.463   1.607   2.063 -0.1332 -1.0616  1.1922
   43MOL    N19 5983   7.384   1.682   2.036 -0.2279 -0.7399  0.0432
   43MOL    H20 5984   7.606   1.300   2.122  2.4731  1.1835 -1.5313
   43MOL    H21 5985   7.553   1.343   1.958 -0.0100 -0.1697  0.2690
   43MOL    H22 5986   7.642   1.536   2.021 -0.0521  0.3351  0.1254
   43MOL    C23 5987   7.636   1.521   2.230 -0.4544  0.3384 -1.2977
   43MOL    C24 5988   7.691   1.658   2.262  0.7353 -0.0781  0.0996
   43MOL    C25 5989   7.592   1.742   2.335  0.0628 -0.1115 -0.2530
   43MOL    N26 5990   7.512   1.806   2.386 -0.7692  0.6250  0.5030
   43MOL    H27 5991   7.569   1.492   2.311  0.8941 -0.1117 -0.3185
   43MOL    H28 5992   7.714   1.445   2.233  0.3774  1.1941  0.0058
   43MOL    H29 5993   7.705   1.699   2.162 -0.1287 -1.8331 -0.7722
   43MOL    C30 5994   7.832   1.647   2.318 -0.1592  0.0424 -0.3634
   43MOL    C31 5995   7.885   1.766   2.403  0.2726  0.0843 -0.0044
   43MOL    C32 5996   8.027   1.734   2.434 -0.1218  0.2055  0.2739
   43MOL    N33 5997   8.136   1.697   2.455  0.4982 -1.1919  0.3070
   43MOL    H34 5998   7.840   1.558   2.380 -0.2078  0.5773  0.4191
   43MOL    H35 5999   7.906   1.620   2.243  0.1258  1.0514 -0.4527
   43MOL    H36 6000   7.846   1.772   2.504 -0.7762 -1.0429 -0.3262
   43MOL    C37 6001   7.874   1.905   2.338 -0.1072  0.5161  0.0952
   43MOL    C38 6002   7.960   1.934   2.214  0.4120  0.8747  0.1537
   43MOL    C39 6003   7.927   1.853   2.094  0.0574  0.1779  0.7798
   43MOL    N40 6004   7.902   1.784   2.008 -0.2324  0.1520  0.2902
   43MOL    H41 6005   7.772   1.932   2.311 -0.4907  0.6480  1.6315
   43MOL    H42 6006   7.901   1.978   2.414  0.7109  0.0702  0.2374
   43MOL    H43 6007   8.065   1.905   2.213  0.2747  0.3945 -1.9767
   43MOL    C44 6008   7.962   2.089   2.189 -0.3972  0.0376  0.5487
   43MOL    C45 6009   8.028   2.135   2.063 -0.3123  0.0518  0.6522
   43MOL    C46 6010   8.003   2.278   2.030  0.0280 -0.6228  0.0631
   43MOL    N47 6011   7.983   2.390   2.014  0.5949 -0.1836 -0.3709
   43MOL    H48 6012   7.863   2.135   2.190 -1.4382 -2.1085 -0.0944
   43MOL    H49 6013   8.022   2.140   2.264 -0.5743 -0.7828  1.2620
   43MOL    H50 6014   7.987   2.086   1.974  1.9727 -0.5467 -0.1147
   43MOL    C51 6015   8.175   2.096   2.049 -0.0567 -0.1901  0.0521
   43MOL    C52 6016   8.241   2.137   1.913  0.3619 -0.5721 -0.1379
   43MOL    C53 6017   8.307   2.270   1.935  0.3165 -0.6559 -0.0259
   43MOL    N54 6018   0.040   2.373   1.953 -0.0565 -0.2850 -0.2249
   43MOL    H55 6019   8.227   2.138   2.134 -0.6912  1.5800 -0.4240
   43MOL    H56 6020   8.194   1.990   2.067  0.6472 -0.2063 -0.7079
   43MOL    H57 6021   8.154   2.144   1.848 -0.7699 -0.1864  1.3776
   43MOL    C58 6022   0.030   2.035   1.850 -0.2585 -0.4279  0.2313
   43MOL    C59 6023   0.113   2.093   1.742 -0.3059  0.2105  0.4969
   43MOL    C60 6024   0.217   1.992   1.694 -0.0744  0.4039  0.3431
   43MOL    N61 6025   0.294   1.913   1.655 -0.0294 -0.4863  0.1146
   43MOL    H62 6026   0.101   2.016   1.931 -0.4869  1.5956  0.9426
   43MOL    H63 6027   8.295   1.948   1.804 -0.4306  0.1518 -0.6957
   43MOL    H64 6028   0.164   2.178   1.788  1.4849 -0.3921 -0.3252
   43MOL    C65 6029   0.040   2.149   1.624  0.7382  0.8935  0.1116
   43MOL    C66 6030   8.262   2.058   1.534 -0.2702  0.1634 -0.5185
   43MOL    C67 6031   8.132   2.024   1.592 -0.2118 -0.5982  0.2127
   43MOL    N68 6032   8.025   2.000   1.631  0.7476  0.1042 -0.2081
   43MOL    H69 6033   8.280   2.225   1.653 -2.0157 -1.0547 -1.4469
   43MOL    H70 6034   0.111   2.186   1.550  0.5880  0.0142 -0.4773
   43MOL    H71 6035   0.002   1.963   1.520 -0.6406  0.2888 -2.9153
   43MOL    C72 6036   8.237   2.105   1.397  0.3718 -0.3678  0.3012
   43MOL    C73 6037   8.165   2.240   1.382 -0.5794  0.4440 -0.4708
   43MOL    C74 6038   8.231   2.356   1.448 -0.4956 -0.0323  0.4236
   43MOL    N75 6039   8.279   2.446   1.505 -0.6804  0.0974 -0.3635
   43MOL    H76 6040   0.017   2.102   1.340  0.5239  3.9514  0.1836
   43MOL    H77 6041   8.177   2.030   1.346  2.4866 -0.6361 -1.8605
   43MOL    H78 6042   8.070   2.235   1.435 -0.2095 -2.5432 -0.0103
   43MOL    C79 6043   8.133   2.267   1.232 -0.0598 -0.3379 -0.3378
   43MOL    C80 6044   8.240   2.323   1.129 -0.8464  0.0447  0.4100
   43MOL    C81 6045   8.246   2.466   1.125  0.1060  0.1490 -0.0980
   43MOL    N82 6046   8.245   2.581   1.112 -0.1507 -0.3234  0.2776
   43MOL    H83 6047   8.095   2.171   1.194  0.1108 -0.9171  0.9167
   43MOL    H84 6048   8.042   2.327   1.227  0.7462  0.9537  0.5383
   43MOL    H85 6049   8.193   2.297   1.034  1.8855 -1.0769 -0.6960
   43MOL    C86 6050   0.065   2.265   1.129 -0.3981 -0.2092 -0.3316
   43MOL    C87 6051   0.168   2.328   1.028  0.2143  0.0336 -0.1285
   43MOL    C88 6052   0.106   2.383   0.907 -0.1315  0.4250 -0.6129
   43MOL    N89 6053   0.055   2.426   0.814 -0.3103 -0.0871 -0.2410
   43MOL    H90 6054   0.103   2.275   1.230 -1.3342 -1.5206  0.1686
   43MOL    H91 6055   0.054   2.159   1.104  1.6280 -0.6570  0.6344
   43MOL    H92 6056   0.240   2.258   0.986  0.6024  0.8932 -0.9139
   43MOL    C93 6057   0.245   2.431   1.106 -0.5532  0.4763  0.3485
   43MOL    C94 6058   0.308   2.548   1.016 -0.2384 -0.3878 -0.2215
   43MOL    C95 6059   0.331   2.664   1.104  0.0616  0.6456 -0.3931
   43MOL    N96 6060   0.346   2.752   1.181 -0.1408 -0.5070 -0.0318
   43MOL    H97 6061   0.200   2.473   1.195  2.1991 -1.1292  2.5794
   43MOL    H98 6062   0.337   2.385   1.143 -0.5863  1.5930  1.8292
   43MOL    H99 6063   0.240   2.581   0.937 -0.2973 -1.0791 -0.4583
   43MOL   C100 6064   0.428   2.499   0.928  0.0912  0.0672 -0.2307
   43MOL   C101 6065   0.504   2.621   0.856  0.2846  0.6514  0.2332
   43MOL   C102 6066   0.571   2.720   0.949 -0.0429  0.2904  0.5778
   43MOL   N103 6067   0.627   2.798   1.014  0.4634  0.5011  0.1695
   43MOL   H104 6068   0.499   2.456   0.999  0.7035  1.3420 -0.0436
   43MOL   H105 6069   0.407   2.417   0.860 -0.9529 -1.3413  1.7387
   43MOL   H106 6070   0.431   2.679   0.799  0.2319  1.4353  1.0846
   43MOL   C107 6071   0.615   2.564   0.770  0.4006  0.0772  0.1488
   43MOL   C108 6072   0.669   2.662   0.660 -0.3475  0.8232 -0.2692
   43MOL   C109 6073   0.718   2.788   0.699  0.3284 -0.0117 -0.1928
   43MOL   N110 6074   0.763   2.886   0.732 -0.5924 -0.0490 -0.1868
   43MOL   H111 6075   0.699   2.540   0.835 -0.7968  0.2928  1.8124
   43MOL   H112 6076   0.591   2.469   0.724  1.0020  0.1637 -0.3478
   43MOL   H113 6077   0.583   2.687   0.598 -1.2391 -2.3780 -0.4149
   43MOL   C114 6078   0.766   2.592   0.564  0.0152  0.1510 -0.3458
   43MOL   C115 6079   0.818   2.684   0.454 -0.3249 -0.1933  0.3453
   43MOL   C116 6080   0.920   2.603   0.380 -0.4039 -0.1114 -0.3649
   43MOL   N117 6081   1.001   2.547   0.320 -0.6769 -0.6271 -0.6468
   43MOL   H118 6082   0.857   2.559   0.616  0.4900 -0.8942 -1.7893
   43MOL   H119 6083   0.725   2.497   0.527 -0.3207  0.3505 -0.4821
   43MOL   H120 6084   0.872   2.770   0.493 -0.9226  0.2551  0.1872
   43MOL   C121 6085   0.712   2.730   0.343  0.7365  0.0742 -0.2276
   43MOL   C122 6086   0.750   2.856   0.268 -0.1358 -0.0805  0.0561
   43MOL   C123 6087   0.763   2.975   0.354 -0.6128 -1.0445 -0.5436
   43MOL   N124 6088   0.776   3.071   0.420 -0.4653  0.6477  0.6920
   43MOL   H125 6089   0.709   2.645   0.274  1.0516 -1.4553  1.5912
   43MOL   H126 6090   0.613   2.754   0.382 -0.4856  0.1488 -3.2300
   43MOL   H127 6091   0.674   2.875   0.192  0.3072  2.5496  0.2095
   43MOL   C128 6092   0.882   2.863   0.184 -0.2872 -0.6834  0.1503
   43MOL   C129 6093   0.895   2.757   0.070  0.5847 -0.3255  0.0809
   43MOL   C130 6094   0.813   2.795   8.264 -0.3003 -0.3674 -0.0712
   43MOL   N131 6095   0.757   2.827   8.167 -0.6393 -0.3530 -0.0856
   43MOL   H132 6096   0.895   2.964   0.146  0.6611 -0.3382  1.3780
   43MOL   H133 6097   0.962   2.848   0.256  1.8020  0.3796 -1.8783
   43MOL   H134 6098   0.853   2.661   0.100  1.9476 -0.4029  1.8024
   43MOL   C135 6099   1.044   2.729   0.036  0.7763  0.0595 -0.1309
   43MOL   C136 6100   1.060   2.618   8.249  0.4145  0.6751 -0.3722
   43MOL   C137 6101   1.202   2.591   8.224 -0.3922 -0.3005 -0.0554
   43MOL   N138 6102   1.314   2.576   8.200 -0.6572  0.3627 -0.1076
   43MOL   H139 6103   1.088   2.820   8.307 -1.4356  0.9308 -0.6481
   43MOL   H140 6104   1.096   2.706   0.129  0.6097  0.1285 -0.0216
   43MOL   H141 6105   1.017   2.651   8.155 -2.7618 -1.0966  0.3708
   43MOL   H142 6106   1.013   2.526   8.286  1.6883  0.4287  0.6768
   44MOL     C1 6107   7.490   0.924   6.466 -0.2646 -0.5996  0.2811
   44MOL     C2 6108   7.527   1.074   6.486 -0.0918 -0.5027 -1.0497
   44MOL     C3 6109   7.409   1.165   6.513 -0.6074 -0.1940  0.0320
   44MOL     N4 6110   7.319   1.237   6.525  0.0699  0.3716 -0.2110
   44MOL     H5 6111   7.443   0.923   6.368 -1.8710 -1.9676  1.0440
   44MOL     H6 6112   7.429   0.868   6.537  0.2469  0.3059  1.4572
   44MOL     H7 6113   7.558   1.099   6.385  1.4775 -0.8143 -0.6513
   44MOL     H8 6114   7.582   0.869   6.446 -0.9352 -1.1576 -1.3804
   44MOL     C9 6115   7.638   1.102   6.591 -0.2995  0.5878 -0.5152
   44MOL    C10 6116   7.586   1.115   6.736  0.3265 -0.3860 -1.1531
   44MOL    C11 6117   7.476   1.027   6.766 -0.0586 -0.1447  1.0257
   44MOL    N12 6118   7.393   0.952   6.788 -0.1137 -0.1283 -0.1461
   44MOL    H13 6119   7.714   1.025   6.591  0.7245  1.5803  0.3263
   44MOL    H14 6120   7.678   1.201   6.569 -0.2905  0.8990  0.8406
   44MOL    H15 6121   7.537   1.212   6.748  0.5516 -0.3680 -0.3367
   44MOL    C16 6122   7.706   1.114   6.830  0.0922 -0.3976 -0.0737
   44MOL    C17 6123   7.810   1.224   6.805  0.1202  0.1476  0.0510
   44MOL    C18 6124   7.739   1.351   6.802  0.2139  0.0339  0.2463
   44MOL    N19 6125   7.674   1.447   6.800 -0.2632 -0.1734 -0.6314
   44MOL    H20 6126   7.672   1.120   6.933 -1.0144 -3.4350 -0.2170
   44MOL    H21 6127   7.758   1.018   6.829 -0.4169 -0.7341  2.0216
   44MOL    H22 6128   7.850   1.207   6.705  0.2419  1.9993 -0.2232
   44MOL    C23 6129   7.934   1.223   6.897  0.0137  0.7819  0.4023
   44MOL    C24 6130   7.912   1.272   7.045  0.1476  1.0260 -0.0807
   44MOL    C25 6131   7.815   1.200   7.131  0.2208  0.1511 -0.0129
   44MOL    N26 6132   7.741   1.144   7.206  0.7014  0.4286  0.2052
   44MOL    H27 6133   7.966   1.119   6.898 -2.1394  0.0734 -1.0117
   44MOL    H28 6134   8.013   1.279   6.847  0.5760 -1.1816 -0.9495
   44MOL    H29 6135   7.854   1.364   7.040  0.7688  1.3859 -0.9036
   44MOL    C30 6136   8.050   1.299   7.120 -0.1136 -0.6391 -0.3932
   44MOL    C31 6137   8.052   1.299   7.272  0.1674 -0.8758 -0.2403
   44MOL    C32 6138   8.187   1.304   7.322 -0.0944 -0.2019  0.0380
   44MOL    N33 6139   8.303   1.311   7.354  0.4928  0.0146 -0.3152
   44MOL    H34 6140   8.127   1.232   7.081  0.6121  0.5625 -1.0689
   44MOL    H35 6141   8.096   1.396   7.104 -0.3295 -0.5043 -0.1887
   44MOL    H36 6142   8.010   1.205   7.309 -2.4183  0.4819  0.3430
   44MOL    C37 6143   7.972   1.414   7.331 -0.4199 -0.1673  0.2870
   44MOL    C38 6144   7.991   1.431   7.482  0.0640  0.7110  0.3363
   44MOL    C39 6145   8.097   1.534   7.513 -0.2422 -0.0723 -0.3156
   44MOL    N40 6146   8.180   1.613   7.528 -0.1755  0.1621  0.2577
   44MOL    H41 6147   8.009   1.509   7.293  0.5012 -1.4018 -1.9907
   44MOL    H42 6148   7.868   1.398   7.303 -0.6779  1.1453  0.4969
   44MOL    H43 6149   8.022   1.335   7.524 -1.1683 -0.4228 -1.2686
   44MOL    C44 6150   7.867   1.479   7.565 -0.2216 -0.9066 -0.0584
   44MOL    C45 6151   7.751   1.376   7.578 -0.5624  0.4381  0.0550
   44MOL    C46 6152   7.784   1.258   7.658  0.7260 -0.2037  0.4051
   44MOL    N47 6153   7.810   1.164   7.718 -0.5858 -0.3037  0.5201
   44MOL    H48 6154   7.894   1.505   7.667  2.2851 -0.9698 -0.6821
   44MOL    H49 6155   7.834   1.567   7.510 -0.0497  1.0209  2.8162
   44MOL    H50 6156   7.732   1.330   7.481 -0.3509  1.3616 -0.4359
   44MOL    C51 6157   7.625   1.454   7.630  0.7700  0.3940 -0.4079
   44MOL    C52 6158   7.512   1.362   7.686 -0.0111  0.0034 -0.4458
   44MOL    C53 6159   7.403   1.452   7.728 -0.0324 -0.2189 -0.0423
   44MOL    N54 6160   7.318   1.525   7.752 -0.7287  0.3269  0.1120
   44MOL    H55 6161   7.660   1.514   7.714  1.5480 -0.9713  0.2549
   44MOL    H56 6162   7.575   1.517   7.557  2.4447  0.3492 -1.5957
   44MOL    H57 6163   7.540   1.308   7.776 -0.4075  1.1395  0.3616
   44MOL    C58 6164   7.467   1.270   7.567  0.2778 -0.4756 -0.5443
   44MOL    C59 6165   7.412   1.347   7.449  0.4199 -0.6222  0.4917
   44MOL    C60 6166   7.512   1.390   7.348  0.3612  1.1236  0.2846
   44MOL    N61 6167   7.590   1.419   7.265  0.3812 -0.3633 -0.5232
   44MOL    H62 6168   7.546   1.205   7.530 -1.8554 -1.4952 -3.4469
   44MOL    H63 6169   7.395   1.206   7.617  1.2463 -1.6621 -0.6481
   44MOL    H64 6170   7.394   1.448   7.488  0.3353 -0.1335 -0.7973
   44MOL    C65 6171   7.289   1.291   7.380 -0.0614  1.0314 -0.4215
   44MOL    C66 6172   7.295   1.140   7.362  0.0702  0.5440 -0.0356
   44MOL    C67 6173   7.159   1.094   7.336  0.1424  0.1233 -0.1025
   44MOL    N68 6174   7.051   1.053   7.316 -0.3501  0.0364  0.6049
   44MOL    H69 6175   7.193   1.310   7.428 -0.0372 -1.5346  0.7340
   44MOL    H70 6176   7.287   1.343   7.284  1.1097  2.0873  0.1316
   44MOL    H71 6177   7.304   1.084   7.455 -0.1631 -0.3349 -0.5343
   44MOL    C72 6178   7.396   1.082   7.264 -0.0184 -0.3661  0.3382
   44MOL    C73 6179   7.370   0.936   7.203 -0.3978  0.1307  0.1967
   44MOL    C74 6180   7.252   0.916   7.123  0.7712  0.4527 -0.1784
   44MOL    N75 6181   7.155   0.902   7.060 -0.4392 -0.1880  0.6387
   44MOL    H76 6182   7.400   1.148   7.178 -1.7219  0.5594  0.9502
   44MOL    H77 6183   7.498   1.067   7.298 -0.6123 -1.5539  1.6380
   44MOL    H78 6184   7.329   0.884   7.290  0.3796  0.6589  0.8944
   44MOL    C79 6185   7.498   0.870   7.129  0.4142 -0.0768  0.3238
   44MOL    C80 6186   7.630   0.833   7.201 -0.5223 -0.2616  0.4671
   44MOL    C81 6187   7.599   0.728   7.302  0.1522  0.0091  0.0971
   44MOL    N82 6188   7.572   0.652   7.379  0.4429 -0.4307 -0.2558
   44MOL    H83 6189   7.458   0.778   7.085  0.9582 -1.3193  2.3246
   44MOL    H84 6190   7.520   0.925   7.038 -1.0568  1.1595  0.6841
   44MOL    H85 6191   7.675   0.916   7.254 -0.1146  0.1345 -0.4938
   44MOL    C86 6192   7.741   0.794   7.106  0.1887 -0.2252 -0.3147
   44MOL    C87 6193   7.872   0.742   7.168  0.2498 -0.0915  0.2281
   44MOL    C88 6194   7.937   0.842   7.249  0.3560 -0.4056  0.5290
   44MOL    N89 6195   7.985   0.926   7.316  0.2042  0.1209  0.1653
   44MOL    H90 6196   7.704   0.731   7.026  0.3260  0.2352 -0.7425
   44MOL    H91 6197   7.768   0.881   7.047 -0.5091  0.9397  1.0413
   44MOL    H92 6198   7.945   0.738   7.087 -0.6785 -0.6245 -0.5829
   44MOL    C93 6199   7.886   0.616   7.242 -1.1755 -0.4752  0.3450
   44MOL    C94 6200   7.817   0.498   7.178  0.4486 -0.1686  0.2676
   44MOL    C95 6201   7.838   0.485   7.032 -0.3741  0.1257  0.3547
   44MOL    N96 6202   7.865   0.476   6.920  0.0836  1.2142 -0.6138
   44MOL    H97 6203   7.986   0.581   7.269 -0.7494  0.0833 -0.4590
   44MOL    H98 6204   7.843   0.645   7.338  0.2389  0.3345  0.7478
   44MOL    H99 6205   7.711   0.519   7.197  0.3723  0.7997 -1.1569
   44MOL   C100 6206   7.857   0.368   7.256 -0.0426 -0.3476 -0.3797
   44MOL   C101 6207   7.760   0.242   7.280 -0.2788  0.3196  0.6399
   44MOL   C102 6208   7.651   0.248   7.177 -0.2540 -0.1532 -0.0501
   44MOL   N103 6209   7.576   0.260   7.092  0.2484 -0.2433  0.1018
   44MOL   H104 6210   7.954   0.339   7.216 -0.0606 -2.6383  1.1790
   44MOL   H105 6211   7.867   0.410   7.356 -1.0415  0.9595 -0.8104
   44MOL   H106 6212   7.709   0.260   7.374  3.8810  0.4684  3.0019
   44MOL   C107 6213   7.822   0.106   7.269 -0.4913 -0.7173 -0.0863
   44MOL   C108 6214   7.943   0.108   7.364 -0.0112 -0.4962 -0.2163
   44MOL   C109 6215   7.915   0.138   7.498 -0.2982 -0.1082 -1.0699
   44MOL   N110 6216   7.899   0.163   7.608  0.8686 -0.2926  0.5130
   44MOL   H111 6217   7.760   0.021   7.296 -1.9934  0.6662  0.9176
   44MOL   H112 6218   7.849   0.086   7.165 -1.5601  0.5501 -0.6275
   44MOL   H113 6219   7.997   0.197   7.332 -0.2956  1.7286  4.9887
   44MOL   C114 6220   8.030   8.305   7.348  0.6527 -0.1109  0.0189
   44MOL   C115 6221   8.152   0.013   7.256  0.5297 -0.4930  0.3694
   44MOL   C116 6222   8.120   0.081   7.127 -0.1675 -0.7469 -0.6110
   44MOL   N117 6223   8.097   0.129   7.027  0.4983 -0.8128  0.2641
   44MOL   H118 6224   8.077   8.281   7.444  1.8732  0.1824 -0.4856
   44MOL   H119 6225   7.975   8.214   7.330  1.1732 -0.3674 -0.2751
   44MOL   H120 6226   8.187   8.230   7.217  1.7808  0.1275 -0.0370
   44MOL   C121 6227   8.282   0.059   7.322 -0.3041  0.3306 -0.1538
   44MOL   C122 6228   0.011   0.208   7.328 -0.2876 -0.5889 -0.1552
   44MOL   C123 6229   8.229   0.294   7.407 -0.3370  0.7592 -0.3533
   44MOL   N124 6230   8.154   0.357   7.464 -0.2452 -0.2442  0.0023
   44MOL   H125 6231   8.283   0.016   7.422 -0.1910 -0.4006 -0.4647
   44MOL   H126 6232   0.049   0.002   7.274  0.3820  1.4804 -0.4100
   44MOL   H127 6233   8.306   0.250   7.230 -2.5546  0.2778  0.5812
   44MOL   C128 6234   0.153   0.227   7.383 -0.3743  0.3315 -0.5668
   44MOL   C129 6235   0.235   0.342   7.311 -0.0499 -0.5484  0.0788
   44MOL   C130 6236   0.173   0.477   7.316 -0.4896 -0.5239 -0.7131
   44MOL   N131 6237   0.126   0.582   7.328  0.4152 -0.1177 -0.4548
   44MOL   H132 6238   0.130   0.242   7.488  1.2803 -1.4030  0.0600
   44MOL   H133 6239   0.216   0.141   7.362  0.8166  0.5257  2.0501
   44MOL   H134 6240   0.226   0.320   7.204  0.0150  0.2750 -0.0994
   44MOL   C135 6241   0.382   0.337   7.350 -0.7151  0.0865  0.2654
   44MOL   C136 6242   0.479   0.420   7.264  0.7353  0.1539  0.3482
   44MOL   C137 6243   0.451   0.391   7.124  0.2462 -0.3224 -0.2154
   44MOL   N138 6244   0.413   0.366   7.015 -0.4305 -0.1933  0.5923
   44MOL   H139 6245   0.407   0.368   7.451 -1.2461 -0.8061  0.6771
   44MOL   H140 6246   0.420   0.236   7.360  0.3174  0.6880  2.8003
   44MOL   H141 6247   0.582   0.393   7.286  0.1081 -2.5646  0.1406
   44MOL   H142 6248   0.471   0.526   7.287 -0.0788  0.0438  0.5718
   45MOL     C1 6249   2.278   3.020   0.787  0.3083 -0.2147  0.5918
   45MOL     C2 6250   2.262   3.085   0.648 -0.4696  0.8460 -0.2371
   45MOL     C3 6251   2.222   2.983   0.547  0.4731 -0.1016  0.0200
   45MOL     N4 6252   2.196   2.893   0.471 -0.3897 -0.4096 -0.3756
   45MOL     H5 6253   2.200   2.949   0.815 -0.8930  0.6812 -0.3700
   45MOL     H6 6254   2.270   3.094   0.867 -0.2305 -0.0408  0.3832
   45MOL     H7 6255   2.358   3.120   0.611 -0.7892  1.6555 -0.3132
   45MOL     H8 6256   2.373   2.968   0.790  0.7804  0.6708  1.0533
   45MOL     C9 6257   2.159   3.199   0.633 -1.3506 -0.5246 -0.1505
   45MOL    C10 6258   2.190   3.328   0.715 -0.1827 -0.5923 -0.1203
   45MOL    C11 6259   2.334   3.374   0.699  0.1483  0.1015 -0.5869
   45MOL    N12 6260   2.439   3.407   0.683 -0.2513 -0.7182 -0.3007
   45MOL    H13 6261   2.155   3.235   0.530 -2.9584  0.7055  0.3282
   45MOL    H14 6262   2.057   3.160   0.641 -0.2130 -3.5014  0.6675
   45MOL    H15 6263   2.175   3.312   0.822 -1.2421  0.1432 -0.1477
   45MOL    C16 6264   2.087   3.432   0.696 -0.2813 -0.3660  0.6512
   45MOL    C17 6265   2.132   3.583   0.707 -0.2457 -0.2675  0.4749
   45MOL    C18 6266   2.206   3.628   0.587 -0.7807  0.0218  0.6858
   45MOL    N19 6267   2.260   3.659   0.489  0.1081 -0.0953  0.7627
   45MOL    H20 6268   2.041   3.422   0.598 -1.8373  1.5788  1.1509
   45MOL    H21 6269   2.006   3.415   0.767 -0.6821 -1.0804  0.0274
   45MOL    H22 6270   2.207   3.587   0.787 -1.2924  0.7685  1.4192
   45MOL    C23 6271   2.008   3.670   0.737  0.0731 -0.5051  0.4424
   45MOL    C24 6272   2.029   3.822   0.778 -1.0229 -0.3135 -0.2486
   45MOL    C25 6273   2.119   3.828   0.898  0.5519 -0.0920 -0.2299
   45MOL    N26 6274   2.182   3.837   0.996  0.0353 -0.2936  0.1343
   45MOL    H27 6275   1.925   3.664   0.666 -0.0558  0.9584  0.4645
   45MOL    H28 6276   1.965   3.626   0.827  0.9032  0.5147  1.3448
   45MOL    H29 6277   1.928   3.851   0.806 -1.0406 -1.5419  1.0302
   45MOL    C30 6278   2.079   3.917   0.665  0.1582 -0.0930 -0.4479
   45MOL    C31 6279   2.033   4.062   0.685  0.1248 -0.0564  0.5219
   45MOL    C32 6280   2.060   4.116   0.818 -0.1284 -0.0488  0.3739
   45MOL    N33 6281   2.075   4.164   0.922 -0.2674  0.0593 -0.3554
   45MOL    H34 6282   2.188   3.926   0.666  0.1003  0.6926 -0.4924
   45MOL    H35 6283   2.055   3.875   0.568 -1.6927 -0.7939  0.3087
   45MOL    H36 6284   1.924   4.063   0.685  0.0629 -2.2757 -0.2534
   45MOL    C37 6285   2.058   4.161   0.566  0.0277 -0.0558  0.3569
   45MOL    C38 6286   2.008   4.307   0.577  0.1026 -0.2688 -0.4381
   45MOL    C39 6287   2.073   4.388   0.680 -0.0666  0.3272 -0.8278
   45MOL    N40 6288   2.123   4.450   0.767  0.2008 -0.0584  0.2312
   45MOL    H41 6289   2.162   4.172   0.537 -0.2034 -0.5197 -0.6640
   45MOL    H42 6290   2.005   4.135   0.474 -0.5820  0.6500  0.5011
   45MOL    H43 6291   1.906   4.288   0.611  0.2494 -0.5936 -0.1707
   45MOL    C44 6292   2.012   4.390   0.444  0.6041 -0.4142  0.7094
   45MOL    C45 6293   1.926   4.521   0.440 -0.1981  0.2373  0.2429
   45MOL    C46 6294   1.998   4.618   0.357 -0.2860  0.4528  0.4082
   45MOL    N47 6295   2.054   4.691   0.293  0.0491  0.7810  0.6207
   45MOL    H48 6296   2.120   4.396   0.434  0.4390  2.2625  0.2211
   45MOL    H49 6297   1.981   4.325   0.362 -0.6454  0.7995  0.2024
   45MOL    H50 6298   1.909   4.553   0.543  1.6814  3.1507 -0.2723
   45MOL    C51 6299   1.787   4.502   0.381  0.7658 -0.4605 -0.1995
   45MOL    C52 6300   1.697   4.627   0.368 -0.6376 -0.1131  0.3278
   45MOL    C53 6301   1.750   4.746   0.443  0.3189 -0.2848  0.0025
   45MOL    N54 6302   1.785   4.835   0.506  0.2375 -0.4247 -0.3218
   45MOL    H55 6303   1.798   4.443   0.290  2.1301 -0.2634 -0.1685
   45MOL    H56 6304   1.730   4.432   0.443 -0.3762  1.3622  0.8531
   45MOL    H57 6305   1.606   4.610   0.425 -0.7051 -1.0108 -0.0475
   45MOL    C58 6306   1.674   4.664   0.216 -0.2621  0.2158  0.1875
   45MOL    C59 6307   1.586   4.787   0.196 -0.4020 -0.2135  0.3912
   45MOL    C60 6308   1.581   4.839   0.058 -0.2921 -0.6274  0.8615
   45MOL    N61 6309   1.585   4.880   8.264 -0.2372 -0.2480  0.0940
   45MOL    H62 6310   1.776   4.693   0.188 -0.1883 -2.0979 -2.0000
   45MOL    H63 6311   1.659   4.581   0.148  1.1195 -0.8214  1.1022
   45MOL    H64 6312   1.637   4.865   0.253  0.3506 -0.2772 -0.1920
   45MOL    C65 6313   1.441   4.767   0.254 -0.1831  0.5599 -0.0726
   45MOL    C66 6314   1.342   4.674   0.181  0.0230 -0.1435  0.7539
   45MOL    C67 6315   1.366   4.535   0.220  0.0752  0.0970  0.6559
   45MOL    N68 6316   1.389   4.427   0.257  0.1513  0.2698  0.1862
   45MOL    H69 6317   1.436   4.733   0.358 -2.4788  0.7437 -0.0918
   45MOL    H70 6318   1.406   4.870   0.259  1.3261  1.0811 -0.0376
   45MOL    H71 6319   1.366   4.688   0.076  1.7355  1.6127  1.3322
   45MOL    C72 6320   1.195   4.709   0.206  0.2768 -0.3030  0.0578
   45MOL    C73 6321   1.086   4.635   0.125  0.5296  0.1050 -0.1123
   45MOL    C74 6322   0.954   4.668   0.179 -0.2277  0.0143 -0.4892
   45MOL    N75 6323   0.849   4.694   0.213  0.1895  0.1870 -0.2387
   45MOL    H76 6324   1.165   4.691   0.309  2.5286  0.2917  0.8333
   45MOL    H77 6325   1.179   4.817   0.197  2.0493  0.0730  1.2530
   45MOL    H78 6326   1.090   4.526   0.136 -1.6491  0.2280  2.4124
   45MOL    C79 6327   1.084   4.661   8.286  0.0798  0.0424 -0.1703
   45MOL    C80 6328   1.184   4.587   8.191  0.2549 -0.1099 -0.8906
   45MOL    C81 6329   1.197   4.448   8.232 -0.0830  0.4651  0.3369
   45MOL    N82 6330   1.214   4.341   8.268 -0.4964  0.4386 -0.4169
   45MOL    H83 6331   0.983   4.637   8.254 -0.5657  1.3609  0.8338
   45MOL    H84 6332   1.094   4.769   8.274 -2.1937  0.4576  1.3334
   45MOL    H85 6333   1.279   4.638   8.211  1.0156 -2.0234  0.5139
   45MOL    C86 6334   1.160   4.613   8.043  0.1264 -0.6447 -0.4226
   45MOL    C87 6335   1.077   4.503   7.976 -0.1072  0.2021  0.2638
   45MOL    C88 6336   0.944   4.482   8.028 -0.1384  0.4789  0.4231
   45MOL    N89 6337   0.840   4.468   8.073  0.0709 -0.3211 -0.5303
   45MOL    H90 6338   1.118   4.713   8.028 -2.0039 -1.5837 -0.9446
   45MOL    H91 6339   1.250   4.622   7.983 -0.7370 -2.0739 -1.9823
   45MOL    H92 6340   1.125   4.413   8.014 -1.8924 -0.0036  2.1307
   45MOL    C93 6341   1.077   4.512   7.823 -0.1179 -0.5929  0.2453
   45MOL    C94 6342   0.984   4.614   7.749  0.6636 -0.2251 -0.2328
   45MOL    C95 6343   1.031   4.751   7.763 -0.1638  0.4583  0.6631
   45MOL    N96 6344   1.072   4.858   7.772 -0.1359 -0.6936 -0.2946
   45MOL    H97 6345   1.177   4.527   7.783 -0.2501 -2.8490 -1.0384
   45MOL    H98 6346   1.053   4.410   7.794  1.6882 -0.9505 -0.0463
   45MOL    H99 6347   0.890   4.602   7.802  1.0843 -1.1004  0.3341
   45MOL   C100 6348   0.949   4.577   7.608  0.0424 -0.0415  0.0425
   45MOL   C101 6349   1.067   4.578   7.503  0.4131 -0.7444  0.0352
   45MOL   C102 6350   1.165   4.474   7.537 -0.4653  0.7242  0.2172
   45MOL   N103 6351   1.241   4.390   7.564 -0.0383 -0.1517 -0.1624
   45MOL   H104 6352   0.889   4.485   7.607 -0.5637  0.2923  2.1902
   45MOL   H105 6353   0.877   4.650   7.571 -1.9807 -0.5634  2.7732
   45MOL   H106 6354   1.120   4.673   7.491 -0.6111 -0.2672 -0.8163
   45MOL   C107 6355   1.016   4.555   7.366  0.2995  0.2164  0.5288
   45MOL   C108 6356   0.943   4.677   7.298  0.5312  0.0533 -0.3038
   45MOL   C109 6357   0.805   4.715   7.343 -0.0507 -0.0096  0.1071
   45MOL   N110 6358   0.701   4.735   7.383  0.1044  0.7034  0.2739
   45MOL   H111 6359   1.100   4.516   7.308  1.2023  1.3525  1.0538
   45MOL   H112 6360   0.941   4.477   7.357 -0.2285  0.6039  1.4789
   45MOL   H113 6361   0.905   4.645   7.201  2.1707  0.3714 -1.0733
   45MOL   C114 6362   1.026   4.808   7.284  1.1482 -0.1604 -0.3754
   45MOL   C115 6363   1.161   4.788   7.213  0.6789  1.2006  0.0030
   45MOL   C116 6364   1.167   4.671   7.118  0.8257 -0.0607 -1.1233
   45MOL   N117 6365   1.178   4.579   7.046  0.0011 -0.0239 -0.4459
   45MOL   H118 6366   0.974   4.886   7.228 -2.4058  0.0017  2.9849
   45MOL   H119 6367   1.053   4.852   7.380 -0.5677 -0.0612  0.0813
   45MOL   H120 6368   1.241   4.757   7.280 -0.9025 -0.4212  1.1495
   45MOL   C121 6369   1.224   4.915   7.155  0.3425  0.3043 -0.7099
   45MOL   C122 6370   1.363   4.902   7.103 -0.1816  0.0400 -0.3755
   45MOL   C123 6371   1.380   4.984   6.984  0.3196  0.6186 -0.4129
   45MOL   N124 6372   1.386   5.051   6.892 -0.4960 -0.3996  0.0632
   45MOL   H125 6373   1.158   4.932   7.070  0.6698 -0.3494 -1.0972
   45MOL   H126 6374   1.235   5.000   7.222  1.1005  0.0525 -0.5113
   45MOL   H127 6375   1.378   4.800   7.068  0.2573 -0.2986  0.7733
   45MOL   C128 6376   1.468   4.930   7.206  0.6149  0.7848 -0.2409
   45MOL   C129 6377   1.530   5.072   7.212  0.3946  0.0577 -0.2330
   45MOL   C130 6378   1.427   5.179   7.205  0.4667  0.7201 -0.2385
   45MOL   N131 6379   1.355   5.265   7.198 -0.0816 -0.1344  0.2379
   45MOL   H132 6380   1.413   4.920   7.299  0.1197 -0.5575 -0.6603
   45MOL   H133 6381   1.544   4.851   7.208  0.5688  0.6618 -2.2978
   45MOL   H134 6382   1.583   5.076   7.117 -0.2297  1.2146 -0.5412
   45MOL   C135 6383   1.627   5.077   7.327  0.0920 -0.0246  0.0344
   45MOL   C136 6384   1.687   5.216   7.337  0.6075  0.4752 -0.4867
   45MOL   C137 6385   1.804   5.224   7.432 -0.1620  0.4439 -0.2556
   45MOL   N138 6386   1.892   5.224   7.507 -0.2243  0.0061 -0.6109
   45MOL   H139 6387   1.583   5.043   7.421 -0.6379  1.9540  0.4312
   45MOL   H140 6388   1.707   5.007   7.302  0.8393  1.5264 -2.0222
   45MOL   H141 6389   1.611   5.282   7.380  0.2229  0.5425 -1.2574
   45MOL   H142 6390   1.706   5.267   7.242 -2.0868 -0.0771 -1.3641
   46MOL     C1 6391   2.691   5.724   5.982 -0.2541  0.4728 -0.0574
   46MOL     C2 6392   2.828   5.674   6.028  0.0280 -0.2478  0.2175
   46MOL     C3 6393   2.822   5.621   6.165 -0.1614  0.3344  0.7131
   46MOL     N4 6394   2.814   5.574   6.271 -0.0510  0.4120  0.1050
   46MOL     H5 6395   2.686   5.831   6.001  1.4621  0.6041 -0.3569
   46MOL     H6 6396   2.614   5.663   6.030 -0.0357 -1.3377 -1.9335
   46MOL     H7 6397   2.886   5.764   6.047  2.0090 -1.1533 -1.4298
   46MOL     H8 6398   2.683   5.723   5.873  0.4345 -1.5564 -0.1225
   46MOL     C9 6399   2.898   5.584   5.929 -0.1602 -0.3432  0.3161
   46MOL    C10 6400   3.028   5.529   5.984  0.6025 -0.2572  0.4850
   46MOL    C11 6401   3.005   5.419   6.082 -0.2083 -0.3930  0.2503
   46MOL    N12 6402   2.991   5.330   6.150  0.2285 -0.6617  0.8243
   46MOL    H13 6403   2.833   5.500   5.906  1.0062 -1.6857  1.7592
   46MOL    H14 6404   2.907   5.630   5.830  2.3431  0.3496  0.8131
   46MOL    H15 6405   3.086   5.612   6.025  0.7529  0.4389 -1.0861
   46MOL    C16 6406   3.111   5.466   5.865 -0.9267  0.0057  0.8430
   46MOL    C17 6407   3.266   5.504   5.861  0.4138  1.0436  0.5319
   46MOL    C18 6408   3.328   5.479   5.988 -1.0952 -0.2358  0.3104
   46MOL    N19 6409   3.372   5.461   6.089  0.1997 -0.7903  0.3222
   46MOL    H20 6410   3.122   5.359   5.884 -0.8569  0.0900  1.2742
   46MOL    H21 6411   3.068   5.491   5.767 -0.0835  3.0537  1.2122
   46MOL    H22 6412   3.263   5.613   5.853 -0.8849  0.8598 -1.8329
   46MOL    C23 6413   3.346   5.458   5.737 -0.2368  0.2968  0.5248
   46MOL    C24 6414   3.284   5.506   5.600 -0.2603 -0.1523 -1.1002
   46MOL    C25 6415   3.222   5.636   5.604  0.2243 -0.6774 -0.1255
   46MOL    N26 6416   3.174   5.743   5.605  1.0272 -0.4795  0.0936
   46MOL    H27 6417   3.452   5.485   5.742  0.1348 -0.9121 -0.6881
   46MOL    H28 6418   3.353   5.350   5.731 -1.1148  0.3451 -1.9040
   46MOL    H29 6419   3.199   5.443   5.575  1.4921 -3.0071 -0.1165
   46MOL    C30 6420   3.394   5.479   5.492  0.1167 -0.0468 -0.1235
   46MOL    C31 6421   3.356   5.539   5.351  0.4711 -0.2708 -0.0862
   46MOL    C32 6422   3.398   5.682   5.336 -0.4371  0.3121  1.1135
   46MOL    N33 6423   3.431   5.792   5.315  0.2739  0.4073  0.3284
   46MOL    H34 6424   3.493   5.504   5.532  0.4390 -2.4970  0.7154
   46MOL    H35 6425   3.396   5.370   5.482  1.0542 -0.0174 -0.3774
   46MOL    H36 6426   3.247   5.533   5.339  0.4810 -0.0404 -0.2916
   46MOL    C37 6427   3.412   5.442   5.239  0.3519 -0.0564 -0.3682
   46MOL    C38 6428   3.384   5.480   5.089 -0.0463 -0.6907 -0.2765
   46MOL    C39 6429   3.495   5.427   5.007  0.3157  0.3089 -0.2742
   46MOL    N40 6430   3.578   5.382   4.942  0.0954  0.0224 -0.2426
   46MOL    H41 6431   3.520   5.449   5.255  0.2896  1.2211 -0.4251
   46MOL    H42 6432   3.381   5.340   5.259 -0.1447  0.1738  0.0394
   46MOL    H43 6433   3.413   5.586   5.088  1.5520 -1.1017  0.0071
   46MOL    C44 6434   3.242   5.465   5.026  0.0629 -0.5988  0.0632
   46MOL    C45 6435   3.211   5.320   4.965 -0.3070 -0.0607  0.0445
   46MOL    C46 6436   3.232   5.221   5.070  0.5399 -0.4084  0.1974
   46MOL    N47 6437   3.257   5.138   5.145 -0.5801 -0.1121 -0.1424
   46MOL    H48 6438   3.169   5.500   5.097  1.3584  1.8693  0.2158
   46MOL    H49 6439   3.255   5.532   4.941  1.6407 -0.6048  0.2701
   46MOL    H50 6440   3.292   5.309   4.893 -0.3512 -1.5450  0.2040
   46MOL    C51 6441   3.063   5.321   4.906  0.2036 -0.0088  0.3344
   46MOL    C52 6442   3.017   5.175   4.849  0.5770  0.7165 -0.6051
   46MOL    C53 6443   2.983   5.083   4.963  0.3909 -0.2056 -0.0263
   46MOL    N54 6444   2.954   5.013   5.051  0.5263 -0.2817  0.6726
   46MOL    H55 6445   2.988   5.352   4.979 -2.1695 -0.6834 -1.7378
   46MOL    H56 6446   3.067   5.393   4.824  1.0828 -1.4131 -0.8773
   46MOL    H57 6447   3.089   5.124   4.785 -0.2195 -0.9618 -0.1723
   46MOL    C58 6448   2.904   5.181   4.748 -0.0351  0.1433 -0.2250
   46MOL    C59 6449   2.890   5.067   4.647  0.1610  0.5801  0.2948
   46MOL    C60 6450   2.857   4.940   4.715 -0.1564  0.3658 -0.0688
   46MOL    N61 6451   2.828   4.844   4.769  0.7237  0.2932  0.3922
   46MOL    H62 6452   2.805   5.194   4.791  0.0929 -0.2367  0.1849
   46MOL    H63 6453   2.921   5.268   4.685 -1.7277 -0.1192 -1.0820
   46MOL    H64 6454   2.980   5.038   4.592 -0.0325  0.8355 -0.1593
   46MOL    C65 6455   2.784   5.101   4.538 -0.2866  0.1102 -0.0571
   46MOL    C66 6456   2.845   5.178   4.412  0.2312  0.2545  0.8332
   46MOL    C67 6457   2.961   5.102   4.366  0.2255 -0.4961 -0.1066
   46MOL    N68 6458   3.052   5.045   4.328 -0.0526  0.0101  0.3685
   46MOL    H69 6459   2.730   5.015   4.499 -0.2731  0.6036 -1.1630
   46MOL    H70 6460   2.704   5.155   4.587  1.7518  0.3751  3.1500
   46MOL    H71 6461   2.896   5.270   4.442  1.7299 -0.5881  0.9060
   46MOL    C72 6462   2.735   5.209   4.299 -0.2404  0.5732 -0.2814
   46MOL    C73 6463   2.759   5.345   4.231  0.0171 -0.7092  0.1605
   46MOL    C74 6464   2.901   5.371   4.204 -0.1270  0.1459 -0.4559
   46MOL    N75 6465   3.013   5.390   4.187  0.1969  0.8397  0.4709
   46MOL    H76 6466   2.748   5.132   4.223  0.9162  2.7733 -2.3788
   46MOL    H77 6467   2.632   5.203   4.333 -0.1744 -2.7122 -0.5398
   46MOL    H78 6468   2.728   5.404   4.317 -0.5650 -0.0665 -0.4843
   46MOL    C79 6469   2.664   5.380   4.115 -0.1650 -0.1626  0.4287
   46MOL    C80 6470   2.694   5.327   3.976  0.3520  0.4525 -0.0969
   46MOL    C81 6471   2.798   5.216   3.980  0.1863  0.2723  0.2257
   46MOL    N82 6472   2.878   5.130   3.980  0.4839 -0.1868  0.3651
   46MOL    H83 6473   2.562   5.371   4.151 -0.9022 -0.8537 -1.7918
   46MOL    H84 6474   2.660   5.487   4.096 -1.7362 -0.3529 -0.3863
   46MOL    H85 6475   2.731   5.413   3.920 -1.0431  0.2907 -1.3141
   46MOL    C86 6476   2.558   5.277   3.913 -0.4650  0.6771 -0.5768
   46MOL    C87 6477   2.577   5.239   3.764 -0.1396 -0.1639 -0.3527
   46MOL    C88 6478   2.630   5.351   3.692 -0.0421 -0.4152  0.7477
   46MOL    N89 6479   2.671   5.446   3.644 -0.4242  0.1161  0.0664
   46MOL    H90 6480   2.515   5.203   3.980  0.4500 -1.6708 -2.5152
   46MOL    H91 6481   2.491   5.363   3.910 -3.1543 -1.4033 -1.1126
   46MOL    H92 6482   2.472   5.222   3.739  0.1722 -0.6126 -1.3611
   46MOL    C93 6483   2.650   5.114   3.725 -0.1490 -0.2391 -0.1387
   46MOL    C94 6484   2.646   5.075   3.574 -0.4978  0.0762 -0.4147
   46MOL    C95 6485   2.509   5.064   3.522 -0.4717 -0.1999 -0.7898
   46MOL    N96 6486   2.402   5.063   3.488 -0.2955 -0.5054  0.0441
   46MOL    H97 6487   2.757   5.125   3.747 -0.2948 -0.0748  0.4998
   46MOL    H98 6488   2.610   5.026   3.775 -4.3071 -0.3324 -3.4471
   46MOL    H99 6489   2.675   4.971   3.563 -3.0343 -0.8101  1.0507
   46MOL   C100 6490   2.741   5.154   3.480  0.5854  0.0048 -1.1195
   46MOL   C101 6491   2.769   5.082   3.345  0.2138 -0.3364  0.4243
   46MOL   C102 6492   2.804   5.165   3.227 -0.2922  0.2746  0.4008
   46MOL   N103 6493   2.828   5.224   3.132 -0.3981 -0.6149 -0.0281
   46MOL   H104 6494   2.689   5.247   3.462  2.8248  1.2299 -1.5060
   46MOL   H105 6495   2.835   5.173   3.534 -0.4181 -2.0276  1.4784
   46MOL   H106 6496   2.681   5.035   3.301  2.1378 -2.5289 -1.2240
   46MOL   C107 6497   2.871   4.968   3.369 -0.3445  0.0031 -0.8091
   46MOL   C108 6498   2.941   4.912   3.248 -0.1679 -0.8208  1.4559
   46MOL   C109 6499   3.045   5.008   3.202 -0.1794  0.1985  0.0330
   46MOL   N110 6500   3.128   5.081   3.166  0.4715  0.4990  1.1921
   46MOL   H111 6501   2.938   5.007   3.446 -3.5287  0.9844  1.5516
   46MOL   H112 6502   2.824   4.888   3.425  0.7571 -1.0732 -1.3763
   46MOL   H113 6503   2.886   4.892   3.157  0.2045 -0.4172  1.1365
   46MOL   C114 6504   3.006   4.774   3.281  0.3343  0.0958 -0.3829
   46MOL   C115 6505   2.915   4.651   3.294 -0.0945 -0.1163 -0.2443
   46MOL   C116 6506   2.814   4.636   3.187 -0.0741 -0.2098 -0.4230
   46MOL   N117 6507   2.736   4.623   3.100 -0.1666 -0.2697 -0.6098
   46MOL   H118 6508   3.074   4.751   3.198 -1.1516 -2.1034 -1.0302
   46MOL   H119 6509   3.073   4.798   3.364 -1.1172  0.2949  0.7397
   46MOL   H120 6510   2.849   4.664   3.381 -1.6261 -1.1845 -1.2066
   46MOL   C121 6511   2.997   4.527   3.324  0.7493  0.4186  0.1506
   46MOL   C122 6512   2.913   4.405   3.363  0.3217 -0.1754  0.1482
   46MOL   C123 6513   2.846   4.344   3.250 -0.3005 -1.0843  0.8439
   46MOL   N124 6514   2.793   4.295   3.159 -0.2151  0.5933  0.0641
   46MOL   H125 6515   3.063   4.503   3.240  3.9186  2.8339  1.8151
   46MOL   H126 6516   3.061   4.548   3.410  0.0201  0.3258  0.7157
   46MOL   H127 6517   2.830   4.440   3.425  0.7688  2.3143 -0.5710
   46MOL   C128 6518   2.990   4.299   3.442  0.1823 -0.2541  0.0524
   46MOL   C129 6519   3.026   4.316   3.595 -0.7363  0.0580  0.2390
   46MOL   C130 6520   2.903   4.325   3.678  0.0530 -0.0548 -0.4435
   46MOL   N131 6521   2.813   4.341   3.752 -0.1130 -0.3162  0.2045
   46MOL   H132 6522   2.926   4.211   3.439 -1.4933  0.8993  1.3755
   46MOL   H133 6523   3.077   4.265   3.386  0.4257 -0.4976  0.5736
   46MOL   H134 6524   3.071   4.415   3.607  2.3783 -1.3645  0.7592
   46MOL   C135 6525   3.120   4.213   3.658  0.0192 -0.1822 -0.5708
   46MOL   C136 6526   3.137   4.249   3.809 -0.1949 -0.3002 -0.3509
   46MOL   C137 6527   3.181   4.388   3.842 -0.2660  0.1728 -0.7343
   46MOL   N138 6528   3.216   4.493   3.882 -0.6533 -0.2550 -0.1451
   46MOL   H139 6529   3.084   4.111   3.649  1.9152 -0.9660  0.4665
   46MOL   H140 6530   3.220   4.215   3.616  0.4483  2.0779  0.4676
   46MOL   H141 6531   3.223   4.194   3.848 -1.2264 -1.8140 -0.1533
   46MOL   H142 6532   3.047   4.238   3.869  0.5812  3.9537  1.7714
   47MOL     C1 6533   0.198   1.894   2.164  0.5147 -0.3051  0.7294
   47MOL     C2 6534   0.132   1.853   2.298  0.9779  0.1570  0.6985
   47MOL     C3 6535   0.152   1.708   2.323  0.2669  0.1812  0.1337
   47MOL     N4 6536   0.171   1.594   2.346 -0.0496 -0.1569 -0.4318
   47MOL     H5 6537   0.181   1.998   2.137  2.4197  0.3384  1.9262
   47MOL     H6 6538   0.154   1.823   2.093  1.4403 -0.7236  0.5746
   47MOL     H7 6539   0.024   1.849   2.288  1.1805 -1.6294 -1.0273
   47MOL     H8 6540   0.304   1.871   2.163  0.3610 -1.0262  0.8969
   47MOL     C9 6541   0.176   1.943   2.417 -0.1361  0.0569  0.2343
   47MOL    C10 6542   0.086   1.952   2.545  0.3759  0.0939  0.5924
   47MOL    C11 6543   8.262   1.987   2.497  0.0518 -0.2565 -0.0192
   47MOL    N12 6544   8.156   2.011   2.458  0.1726  0.3008  0.4618
   47MOL    H13 6545   0.279   1.914   2.438  1.0307  2.9595 -1.2716
   47MOL    H14 6546   0.186   2.041   2.372 -0.9796  0.0493  0.0220
   47MOL    H15 6547   0.130   2.038   2.595  3.8245 -1.5085  0.4497
   47MOL    C16 6548   0.095   1.833   2.635  0.1038 -0.3595  0.1427
   47MOL    C17 6549   0.030   1.846   2.774  0.1674  0.7686 -0.2756
   47MOL    C18 6550   8.195   1.831   2.773  0.0168  0.0385  0.3433
   47MOL    N19 6551   8.078   1.817   2.766 -0.6315  0.5749  1.3568
   47MOL    H20 6552   0.041   1.752   2.585 -1.4392  1.3712 -1.0619
   47MOL    H21 6553   0.198   1.799   2.643  0.5105  0.9553  0.6681
   47MOL    H22 6554   0.054   1.944   2.816 -1.5397  0.9161  0.4037
   47MOL    C23 6555   0.111   1.750   2.869 -0.0187  0.0028  1.2298
   47MOL    C24 6556   0.104   1.776   3.023  0.0889  0.0664  0.1176
   47MOL    C25 6557   8.271   1.782   3.061  0.2293 -0.3183  0.1172
   47MOL    N26 6558   8.161   1.786   3.094  0.7358 -0.0996  0.3875
   47MOL    H27 6559   0.089   1.645   2.850  1.4601  0.1735 -1.7900
   47MOL    H28 6560   0.218   1.761   2.854 -0.3693 -0.5403 -2.0326
   47MOL    H29 6561   0.135   1.876   3.054 -0.3869  0.7030 -1.4000
   47MOL    C30 6562   0.171   1.655   3.101 -0.4443  0.5246 -0.2929
   47MOL    C31 6563   0.317   1.620   3.052 -0.1275 -0.7127 -0.2207
   47MOL    C32 6564   0.412   1.733   3.063 -0.4242  0.0849  0.3315
   47MOL    N33 6565   0.495   1.820   3.076  0.4591  0.1796 -0.3144
   47MOL    H34 6566   0.180   1.686   3.205 -0.3156  4.4891 -1.4133
   47MOL    H35 6567   0.104   1.569   3.097  1.9930 -1.4003 -1.4041
   47MOL    H36 6568   0.320   1.598   2.945 -2.7062  1.3337 -0.7798
   47MOL    C37 6569   0.373   1.499   3.137  0.6300 -0.0232 -0.0520
   47MOL    C38 6570   0.450   1.389   3.054 -0.3686 -0.1234  0.0858
   47MOL    C39 6571   0.576   1.438   3.009 -0.0779  0.4525 -1.0312
   47MOL    N40 6572   0.677   1.488   2.977  0.2185 -0.0667 -0.0820
   47MOL    H41 6573   0.437   1.536   3.217 -0.2734 -0.2724  0.8047
   47MOL    H42 6574   0.295   1.447   3.194 -1.1002 -0.1184 -2.4452
   47MOL    H43 6575   0.397   1.385   2.959  1.2308 -1.2553 -0.7979
   47MOL    C44 6576   0.465   1.252   3.126 -0.1202 -0.1701 -0.2044
   47MOL    C45 6577   0.539   1.259   3.265  0.5167 -0.0931 -0.2064
   47MOL    C46 6578   0.452   1.311   3.368 -0.2136 -0.3156  0.5014
   47MOL    N47 6579   0.383   1.348   3.452 -0.5784  0.3239  0.1325
   47MOL    H48 6580   0.368   1.203   3.124 -1.4258  2.2597  1.1883
   47MOL    H49 6581   0.532   1.192   3.065  0.7269  0.7899 -0.2471
   47MOL    H50 6582   0.619   1.332   3.262  1.9292 -1.5426  1.2446
   47MOL    C51 6583   0.599   1.116   3.304  0.3743 -0.1005  0.3112
   47MOL    C52 6584   0.736   1.088   3.225 -0.0455  0.0873 -0.8500
   47MOL    C53 6585   0.839   1.192   3.232  0.0337  0.8579 -0.3038
   47MOL    N54 6586   0.914   1.278   3.237 -0.1080 -0.2517  0.1624
   47MOL    H55 6587   0.616   1.100   3.410 -0.0575 -0.4252  0.3338
   47MOL    H56 6588   0.516   1.045   3.300  0.5947 -0.3045 -0.9353
   47MOL    H57 6589   0.711   1.102   3.120 -0.4731 -0.1234 -0.7748
   47MOL    C58 6590   0.803   0.949   3.244 -0.2389  0.1676 -0.1657
   47MOL    C59 6591   0.855   0.927   3.393 -0.1215  0.1162  1.1219
   47MOL    C60 6592   0.752   0.858   3.469 -0.0094 -0.0014  0.3445
   47MOL    N61 6593   0.672   0.799   3.535 -1.1256  0.0738 -0.1122
   47MOL    H62 6594   0.741   0.865   3.211 -0.6974 -0.3068  1.8245
   47MOL    H63 6595   0.888   0.934   3.177 -0.5810 -0.9861 -0.3569
   47MOL    H64 6596   0.855   1.030   3.430  1.8490  0.3186  0.6450
   47MOL    C65 6597   0.996   0.870   3.403 -0.2137 -0.0219  0.4437
   47MOL    C66 6598   1.042   0.842   3.557  0.0438 -0.5851  0.6056
   47MOL    C67 6599   0.996   0.948   3.651  0.9205  0.2640  0.0337
   47MOL    N68 6600   0.958   1.022   3.730  0.2819 -0.1415 -0.3544
   47MOL    H69 6601   0.994   0.782   3.338  2.0940 -2.3584  3.3998
   47MOL    H70 6602   1.067   0.932   3.350  0.1432 -1.5636 -0.9418
   47MOL    H71 6603   1.151   0.850   3.559  0.0370 -0.6872  2.1709
   47MOL    C72 6604   1.001   0.707   3.625 -0.1439 -0.3608  0.4634
   47MOL    C73 6605   1.066   0.583   3.561 -0.0666  0.3192  0.7439
   47MOL    C74 6606   1.201   0.610   3.512 -0.5948 -0.0188  0.1311
   47MOL    N75 6607   1.311   0.631   3.474  0.2907 -0.9334  0.3353
   47MOL    H76 6608   1.031   0.707   3.729  0.4270 -0.5651  0.3003
   47MOL    H77 6609   0.892   0.697   3.620  0.0179 -1.8530 -0.5623
   47MOL    H78 6610   1.031   0.553   3.462 -1.9699 -1.9750  2.0497
   47MOL    C79 6611   1.045   0.454   3.644  0.0124  0.2220 -0.5602
   47MOL    C80 6612   1.121   0.329   3.607  0.5967 -0.2835  0.0044
   47MOL    C81 6613   1.088   0.227   3.705 -0.0894  0.0246 -0.7207
   47MOL    N82 6614   1.055   0.146   3.786  0.5423 -0.0679  0.0331
   47MOL    H83 6615   1.070   0.473   3.749 -0.5402 -0.6783 -0.2705
   47MOL    H84 6616   0.939   0.431   3.644 -0.0913  0.6081 -2.2825
   47MOL    H85 6617   1.226   0.348   3.633  0.9530 -1.6327 -0.3948
   47MOL    C86 6618   1.106   0.273   3.464  0.1330 -0.2087 -0.5955
   47MOL    C87 6619   1.220   0.174   3.419  0.0664 -0.2186 -0.6303
   47MOL    C88 6620   1.254   0.071   3.517  0.7902 -0.0983 -0.3329
   47MOL    N89 6621   1.282   8.298   3.594  0.0914 -0.3657  0.2405
   47MOL    H90 6622   1.013   0.215   3.466 -0.6218  1.0185  1.3057
   47MOL    H91 6623   1.096   0.351   3.389 -0.9817  0.2681  0.0208
   47MOL    H92 6624   1.312   0.233   3.425  0.9235 -1.6244  0.1805
   47MOL    C93 6625   1.186   0.122   3.274  0.2709  0.3702  0.4528
   47MOL    C94 6626   1.275   0.000   3.230  0.5734 -0.4426  0.1543
   47MOL    C95 6627   1.417   0.009   3.280 -0.4421 -0.3165  0.1951
   47MOL    N96 6628   1.524   0.015   3.313 -0.2443  0.4338 -0.2245
   47MOL    H97 6629   1.082   0.089   3.270  0.3257  0.1810  0.5691
   47MOL    H98 6630   1.193   0.196   3.194  1.3232 -0.5044 -0.2862
   47MOL    H99 6631   1.289   0.014   3.123 -2.3787  1.7531  0.0056
   47MOL   C100 6632   1.212   8.176   3.272  0.4212  0.1487 -0.0938
   47MOL   C101 6633   1.089   8.133   3.183 -0.6854 -0.4446 -0.1160
   47MOL   C102 6634   1.131   8.107   3.045 -0.3312  0.5241  0.2326
   47MOL   N103 6635   1.167   8.081   2.936 -0.2725  0.4814  0.5302
   47MOL   H104 6636   1.282   8.094   3.257  1.0922  0.7760 -0.4491
   47MOL   H105 6637   1.200   8.154   3.379 -0.6758 -1.0913 -0.4651
   47MOL   H106 6638   1.025   8.219   3.167  1.3630  1.1503  0.0243
   47MOL   C107 6639   1.006   8.016   3.243  0.0409  0.3591 -0.4241
   47MOL   C108 6640   0.953   8.029   3.383  0.2160 -0.7740  0.4214
   47MOL   C109 6641   0.920   8.164   3.419 -0.0784 -0.3857 -0.4624
   47MOL   N110 6642   0.898   8.271   3.445 -0.4273  0.4314 -0.5350
   47MOL   H111 6643   0.935   7.990   3.165  1.1243  0.7203 -1.5440
   47MOL   H112 6644   1.076   7.933   3.243 -0.4288 -0.0538  0.7993
   47MOL   H113 6645   1.040   8.003   3.444 -0.1118 -1.9108  0.4154
   47MOL   C114 6646   0.841   7.927   3.421 -0.2571  0.1920 -0.4028
   47MOL   C115 6647   0.693   7.972   3.400 -0.0096 -0.3485 -0.6199
   47MOL   C116 6648   0.656   7.978   3.254  0.1431  0.3054 -1.1791
   47MOL   N117 6649   0.624   7.981   3.145 -0.1870  0.2741 -0.0484
   47MOL   H118 6650   0.847   7.829   3.375 -3.4738 -1.5627  2.6064
   47MOL   H119 6651   0.850   7.898   3.526 -0.3437 -1.7883 -0.9151
   47MOL   H120 6652   0.681   8.076   3.433  0.8020 -0.6173  0.5588
   47MOL   C121 6653   0.588   7.905   3.493 -0.0143  0.1423  0.3031
   47MOL   C122 6654   0.563   7.752   3.474  0.2974  0.1050  0.9534
   47MOL   C123 6655   0.496   7.686   3.586  0.5051 -0.0351 -0.2014
   47MOL   N124 6656   0.438   7.634   3.678  0.0832 -0.1859 -0.3055
   47MOL   H125 6657   0.633   7.915   3.592  0.4619 -0.4759  0.1531
   47MOL   H126 6658   0.493   7.959   3.489  0.6665  1.2528 -1.5504
   47MOL   H127 6659   0.664   7.710   3.471  0.1652 -0.1618  0.1208
   47MOL   C128 6660   0.474   7.712   3.351  0.9342  0.1872 -0.1044
   47MOL   C129 6661   0.317   7.738   3.372 -0.1127 -0.2413  0.1583
   47MOL   C130 6662   0.284   7.881   3.383 -0.8759  0.7061  0.2696
   47MOL   N131 6663   0.257   7.991   3.394 -0.8277  0.1719 -0.3533
   47MOL   H132 6664   0.507   7.754   3.256  1.3404  0.4813  0.1608
   47MOL   H133 6665   0.479   7.604   3.339  2.0355  0.2625 -0.3798
   47MOL   H134 6666   0.297   7.692   3.469  0.4685 -1.2330 -0.1836
   47MOL   C135 6667   0.237   7.673   3.258 -0.6275  0.0010  0.1370
   47MOL   C136 6668   0.231   7.752   3.129 -0.0420  0.9168 -0.2770
   47MOL   C137 6669   0.158   7.665   3.035 -0.5539 -0.7570 -0.3412
   47MOL   N138 6670   0.101   7.597   2.958 -0.1302 -0.5854  0.2173
   47MOL   H139 6671   0.292   7.583   3.228  0.7689  1.4407 -1.7441
   47MOL   H140 6672   0.139   7.638   3.290 -0.2435  0.1026  1.4432
   47MOL   H141 6673   0.328   7.792   3.100  1.1858 -0.9654  1.0922
   47MOL   H142 6674   0.162   7.834   3.150  0.8734  1.7240 -0.4085
   48MOL     C1 6675   4.244   2.826   4.744 -0.1514  0.0873  0.0191
   48MOL     C2 6676   4.322   2.713   4.821 -0.3857  0.5109 -1.1525
   48MOL     C3 6677   4.342   2.750   4.964  0.0417  0.0989 -0.2103
   48MOL     N4 6678   4.356   2.775   5.073  0.3266  0.4778 -0.2828
   48MOL     H5 6679   4.310   2.912   4.745  1.9695 -1.5006  2.0226
   48MOL     H6 6680   4.158   2.838   4.809  0.0420  1.3455  0.0567
   48MOL     H7 6681   4.423   2.720   4.783 -0.0638 -0.1424 -0.4284
   48MOL     H8 6682   4.200   2.795   4.649  0.3022 -0.9763  0.1508
   48MOL     C9 6683   4.241   2.573   4.825  0.5727  0.8277  0.4572
   48MOL    C10 6684   4.249   2.499   4.687 -0.0127 -0.0756  0.1919
   48MOL    C11 6685   4.388   2.457   4.695  0.3832  0.1839  0.2430
   48MOL    N12 6686   4.501   2.420   4.703 -0.4431 -1.0103 -0.3476
   48MOL    H13 6687   4.278   2.508   4.904  0.2802  0.2671  0.1411
   48MOL    H14 6688   4.136   2.592   4.846  0.3456 -1.7107  1.8101
   48MOL    H15 6689   4.233   2.571   4.607  0.7957  0.6934  0.7246
   48MOL    C16 6690   4.159   2.376   4.683 -0.6449 -0.0031 -0.5517
   48MOL    C17 6691   4.130   2.299   4.555  0.1709  0.1173  0.8013
   48MOL    C18 6692   4.240   2.303   4.460  0.6655 -0.2176 -0.1002
   48MOL    N19 6693   4.324   2.312   4.385  0.3066  0.0871  0.1308
   48MOL    H20 6694   4.199   2.296   4.744  1.6240  0.0823 -1.8489
   48MOL    H21 6695   4.062   2.396   4.728 -0.6829  0.1182 -0.6829
   48MOL    H22 6696   4.052   2.356   4.504  1.0130 -0.2152 -0.9065
   48MOL    C23 6697   4.068   2.161   4.571 -0.1380 -0.5182 -0.7947
   48MOL    C24 6698   4.018   2.090   4.441 -0.6445 -0.0506  0.1981
   48MOL    C25 6699   3.937   2.176   4.363  0.2263 -0.3718  0.3644
   48MOL    N26 6700   3.876   2.252   4.296  0.2469 -0.6772  0.3299
   48MOL    H27 6701   4.132   2.085   4.616 -2.4194 -0.5460  2.5635
   48MOL    H28 6702   3.977   2.163   4.630  0.8149 -0.9919  0.7107
   48MOL    H29 6703   3.949   2.011   4.467 -0.8328 -0.8160 -2.5197
   48MOL    C30 6704   4.146   2.038   4.370 -0.0314 -0.4184  0.1010
   48MOL    C31 6705   4.129   1.905   4.285  0.3305 -0.9990  0.0016
   48MOL    C32 6706   4.007   1.905   4.205 -0.2670 -0.3674 -0.6552
   48MOL    N33 6707   3.911   1.902   4.136  0.0846  0.0130 -0.2883
   48MOL    H34 6708   4.176   2.113   4.297  0.1147  1.4375  2.0163
   48MOL    H35 6709   4.228   2.023   4.440 -0.4502  1.9909  1.1662
   48MOL    H36 6710   4.122   1.829   4.363 -2.0000 -1.2655 -0.4476
   48MOL    C37 6711   4.255   1.893   4.196 -0.2173 -0.5602 -0.8261
   48MOL    C38 6712   4.303   1.754   4.173 -0.1469 -0.4725 -0.0394
   48MOL    C39 6713   4.323   1.655   4.277  0.7791 -0.3589  0.2409
   48MOL    N40 6714   4.332   1.582   4.363  0.0819 -0.2949 -0.4670
   48MOL    H41 6715   4.255   1.952   4.104  1.0490 -1.7341 -1.6031
   48MOL    H42 6716   4.332   1.946   4.252 -2.4832  2.3024 -0.3189
   48MOL    H43 6717   4.407   1.773   4.145  0.0634  0.0700  1.0853
   48MOL    C44 6718   4.230   1.691   4.054 -0.9382  0.5768 -0.5931
   48MOL    C45 6719   4.326   1.643   3.946 -0.4517  0.5203 -0.2569
   48MOL    C46 6720   4.428   1.551   3.994 -0.0532  0.2434 -0.8129
   48MOL    N47 6721   4.515   1.481   4.029  0.0871  0.0975 -0.4043
   48MOL    H48 6722   4.173   1.606   4.093 -0.4351  0.0382 -1.0109
   48MOL    H49 6723   4.169   1.762   3.999 -0.8961  2.0810  1.2566
   48MOL    H50 6724   4.375   1.738   3.924  0.3953  0.0636 -0.3645
   48MOL    C51 6725   4.263   1.589   3.817  0.5491  0.7129 -0.1762
   48MOL    C52 6726   4.203   1.449   3.827  0.0114  0.5625  0.4047
   48MOL    C53 6727   4.064   1.437   3.881  0.3305 -0.2486  0.4039
   48MOL    N54 6728   3.958   1.414   3.921  0.1045  0.4196  0.0712
   48MOL    H55 6729   4.193   1.665   3.781  2.3520  2.3683 -0.3351
   48MOL    H56 6730   4.348   1.584   3.748  0.9431 -1.5694  0.4412
   48MOL    H57 6731   4.270   1.395   3.895  1.6544  1.0574 -0.7780
   48MOL    C58 6732   4.211   1.363   3.693 -1.2099  0.0061 -0.1349
   48MOL    C59 6733   4.359   1.320   3.658 -0.3365 -0.7477  0.1099
   48MOL    C60 6734   4.417   1.240   3.768  0.0759 -0.4504 -0.5601
   48MOL    N61 6735   4.471   1.183   3.858 -0.0294  0.0833  0.2778
   48MOL    H62 6736   4.153   1.271   3.702  0.4410 -0.9168  1.2868
   48MOL    H63 6737   4.162   1.415   3.610 -1.2125  0.3622  0.0894
   48MOL    H64 6738   4.414   1.414   3.658 -3.0998  0.9633 -1.3605
   48MOL    C65 6739   4.367   1.249   3.523  0.9307  0.3035 -0.0292
   48MOL    C66 6740   4.505   1.244   3.461 -0.3714  0.1734  0.5916
   48MOL    C67 6741   4.561   1.368   3.421  0.5635 -0.0040 -0.2574
   48MOL    N68 6742   4.605   1.471   3.388 -0.3784 -0.2319 -0.2112
   48MOL    H69 6743   4.325   1.151   3.547  1.4557 -0.2393 -1.3190
   48MOL    H70 6744   4.284   1.292   3.467  0.0442 -2.1243 -0.6132
   48MOL    H71 6745   4.488   1.191   3.367 -1.3470  1.8287 -0.1910
   48MOL    C72 6746   4.612   1.145   3.525  0.2555  0.0137  0.6260
   48MOL    C73 6747   4.559   1.005   3.528 -0.4875  0.0076 -0.2605
   48MOL    C74 6748   4.585   0.925   3.410 -0.1701  0.0521  0.2930
   48MOL    N75 6749   4.599   0.855   3.315  0.2640  0.1476 -0.4477
   48MOL    H76 6750   4.716   1.158   3.496  0.1678 -0.9158 -0.1447
   48MOL    H77 6751   4.621   1.170   3.630 -3.4563  0.1967  0.9947
   48MOL    H78 6752   4.451   0.994   3.530 -0.3962 -0.9908 -0.1658
   48MOL    C79 6753   4.621   0.941   3.658  0.6391 -0.0755  1.0754
   48MOL    C80 6754   4.575   0.800   3.694  0.4850 -0.3393 -0.7684
   48MOL    C81 6755   4.425   0.791   3.688 -0.2012 -0.0263  0.5137
   48MOL    N82 6756   4.312   0.779   3.683 -0.2839 -0.4092  0.0572
   48MOL    H83 6757   4.728   0.946   3.675  0.5293 -0.5254  1.9220
   48MOL    H84 6758   4.585   1.003   3.740 -0.4110  2.6338 -1.3437
   48MOL    H85 6759   4.591   0.792   3.802 -0.5613 -0.9890 -0.6479
   48MOL    C86 6760   4.643   0.683   3.622  0.5338  0.1491 -0.3142
   48MOL    C87 6761   4.569   0.556   3.589 -0.4063  0.3589  0.3339
   48MOL    C88 6762   4.480   0.504   3.694  0.1954 -0.1248 -0.5195
   48MOL    N89 6763   4.401   0.466   3.772 -0.2602 -0.2006  1.0056
   48MOL    H90 6764   4.696   0.716   3.533 -1.9012  0.7753 -1.5820
   48MOL    H91 6765   4.725   0.663   3.690 -2.5813  0.3027  3.6507
   48MOL    H92 6766   4.637   0.471   3.592 -0.7566  0.1229  2.5890
   48MOL    C93 6767   4.493   0.563   3.459  0.6290 -0.3041  0.5361
   48MOL    C94 6768   4.579   0.525   3.336 -0.5240 -0.0576 -0.0974
   48MOL    C95 6769   4.687   0.426   3.362 -0.0298 -0.4475  0.0904
   48MOL    N96 6770   4.766   0.348   3.379 -0.3682 -0.2338 -0.3543
   48MOL    H97 6771   4.405   0.501   3.479  0.1626 -0.6952 -2.4456
   48MOL    H98 6772   4.453   0.663   3.439 -0.6489 -0.8308  0.4070
   48MOL    H99 6773   4.636   0.613   3.306  0.7407 -0.8054  0.0682
   48MOL   C100 6774   4.482   0.485   3.219 -0.5115 -0.4321  0.3540
   48MOL   C101 6775   4.533   0.369   3.131  0.9461 -0.0120 -0.4839
   48MOL   C102 6776   4.415   0.309   3.065  0.2857 -0.4779  0.2816
   48MOL   N103 6777   4.318   0.266   3.011  0.3552 -0.2699  0.1389
   48MOL   H104 6778   4.396   0.434   3.264 -0.4246 -0.8921 -0.0026
   48MOL   H105 6779   4.459   0.570   3.155 -2.0406 -0.5569  0.7135
   48MOL   H106 6780   4.573   0.291   3.196 -0.6200  0.4797  1.1291
   48MOL   C107 6781   4.648   0.417   3.045  0.0407  0.5791  0.0451
   48MOL   C108 6782   4.694   0.326   2.930  0.5119 -0.0355 -0.7269
   48MOL   C109 6783   4.756   0.414   2.831  0.0826  0.6391 -0.1339
   48MOL   N110 6784   4.808   0.480   2.755  0.1975  0.6123  0.0476
   48MOL   H111 6785   4.610   0.507   2.997  1.3706  0.8467 -0.5336
   48MOL   H112 6786   4.728   0.453   3.110 -0.4195  0.3021  0.7709
   48MOL   H113 6787   4.605   0.281   2.886  0.0166 -1.2682  1.4389
   48MOL   C114 6788   4.785   0.210   2.988  0.3066  0.1153 -0.3834
   48MOL   C115 6789   4.832   0.094   2.894  1.0119 -0.0999 -0.2599
   48MOL   C116 6790   4.708   0.051   2.823  0.6105 -1.0499  0.1339
   48MOL   N117 6791   4.617   0.010   2.762  0.2143 -0.7356 -0.1407
   48MOL   H118 6792   4.868   0.245   3.049  0.3127 -0.0496 -0.2962
   48MOL   H119 6793   4.744   0.163   3.078  0.0598  1.9812  0.5088
   48MOL   H120 6794   4.872   0.006   2.944  0.9512  0.5355  0.9419
   48MOL   C121 6795   4.939   0.146   2.795  0.1652 -0.0573 -0.0558
   48MOL   C122 6796   5.011   0.034   2.721  0.2092  0.1406  1.5736
   48MOL   C123 6797   5.069   8.257   2.821  0.0747  0.3098  0.4219
   48MOL   N124 6798   5.116   8.179   2.890 -0.4429 -0.1005 -0.1121
   48MOL   H125 6799   4.894   0.207   2.717  1.1636  0.5264 -0.1876
   48MOL   H126 6800   5.002   0.226   2.834  2.4304 -1.2799 -1.1170
   48MOL   H127 6801   5.101   0.074   2.675 -0.6645 -0.7469 -1.0111
   48MOL   C128 6802   4.923   8.282   2.606  0.3097 -0.1766  0.2370
   48MOL   C129 6803   4.988   8.190   2.502 -0.5626 -0.0398 -0.0005
   48MOL   C130 6804   5.048   8.077   2.571 -0.0376 -0.4850  1.0919
   48MOL   N131 6805   5.098   7.982   2.618 -0.4524  0.0783 -0.4935
   48MOL   H132 6806   4.838   8.226   2.647 -0.4294 -0.0122 -1.0371
   48MOL   H133 6807   4.882   0.051   2.546  0.8560  0.0091  0.1133
   48MOL   H134 6808   5.073   8.246   2.465 -0.8232 -0.7126 -1.6251
   48MOL   C135 6809   4.901   8.151   2.385  0.6691  0.4257 -0.1112
   48MOL   C136 6810   4.960   8.046   2.294 -0.5179  0.7390  0.1401
   48MOL   C137 6811   5.076   8.098   2.221  0.4098  0.9304  0.3872
   48MOL   N138 6812   5.170   8.134   2.163 -0.9444  0.0425 -0.0397
   48MOL   H139 6813   4.809   8.102   2.419  0.0727  1.9545  0.5240
   48MOL   H140 6814   4.865   8.232   2.322  2.8468  0.2481 -1.6476
   48MOL   H141 6815   4.875   8.025   2.230 -2.7125 -4.7324  4.4887
   48MOL   H142 6816   4.984   7.953   2.346  0.1449 -1.4293 -3.8749
   49MOL     C1 6817   4.826   3.671   2.843  0.3526 -0.0115 -0.4332
   49MOL     C2 6818   4.832   3.703   2.989 -0.4380 -0.4508 -0.6510
   49MOL     C3 6819   4.955   3.664   3.064 -0.3359  0.5485 -0.1699
   49MOL     N4 6820   5.048   3.639   3.129 -1.0695  0.7031  0.2117
   49MOL     H5 6821   4.904   3.732   2.799 -1.4269  1.9165 -1.0055
   49MOL     H6 6822   4.732   3.686   2.790 -0.1121  0.0605  0.3875
   49MOL     H7 6823   4.750   3.649   3.036 -0.5527 -0.4167 -0.8118
   49MOL     H8 6824   4.858   3.567   2.838  0.2675 -0.0651  0.0973
   49MOL     C9 6825   4.803   3.851   3.017  0.1144 -0.8522  0.1343
   49MOL    C10 6826   4.658   3.894   2.970 -0.3125  1.0565 -0.2428
   49MOL    C11 6827   4.548   3.823   3.039 -0.1725 -0.2136  0.0926
   49MOL    N12 6828   4.463   3.763   3.090 -0.3136  0.1793  0.5732
   49MOL    H13 6829   4.809   3.861   3.126 -1.9419  1.2671  0.0866
   49MOL    H14 6830   4.880   3.908   2.966 -1.2034 -0.3999 -1.3782
   49MOL    H15 6831   4.655   3.876   2.863  1.2182  1.6235 -0.4058
   49MOL    C16 6832   4.649   4.047   2.991  0.0517  1.1349 -0.0827
   49MOL    C17 6833   4.747   4.140   2.923 -0.5321 -0.6834 -0.1065
   49MOL    C18 6834   4.795   4.091   2.796  0.3423  0.6071  0.5590
   49MOL    N19 6835   4.830   4.049   2.695  0.0926  0.4452  0.9625
   49MOL    H20 6836   4.555   4.082   2.947 -0.7761 -0.7807  0.1296
   49MOL    H21 6837   4.646   4.059   3.099 -2.9885 -2.1300  0.2857
   49MOL    H22 6838   4.842   4.136   2.976 -1.4239 -0.0886  1.5708
   49MOL    C23 6839   4.707   4.292   2.924 -0.2035  0.2951  0.2559
   49MOL    C24 6840   4.823   4.386   2.907 -0.6805  0.0079  0.0741
   49MOL    C25 6841   4.933   4.373   3.003 -0.1166  0.1479  0.1271
   49MOL    N26 6842   5.028   4.360   3.071  0.8232 -0.0357 -0.4072
   49MOL    H27 6843   4.622   4.311   2.859  0.6070  0.6018 -0.7286
   49MOL    H28 6844   4.668   4.299   3.026  0.9603 -0.1036  0.7420
   49MOL    H29 6845   4.772   4.477   2.938 -0.8340  0.4795 -1.5724
   49MOL    C30 6846   4.868   4.396   2.760  0.0389  0.8285  0.1937
   49MOL    C31 6847   4.942   4.522   2.704  0.4068 -0.4144  0.4874
   49MOL    C32 6848   4.865   4.647   2.726 -0.4230  0.2682  0.4032
   49MOL    N33 6849   4.810   4.745   2.740 -0.1554 -0.4014  0.1796
   49MOL    H34 6850   4.919   4.303   2.736  1.8681  1.7865  0.3187
   49MOL    H35 6851   4.775   4.399   2.703  0.7907  2.5914 -0.9843
   49MOL    H36 6852   4.954   4.494   2.599  0.5480 -0.4634  0.5163
   49MOL    C37 6853   5.076   4.547   2.767 -0.1378  0.5563  0.0430
   49MOL    C38 6854   5.182   4.610   2.681 -0.0751  0.2332  0.4913
   49MOL    C39 6855   5.127   4.670   2.561  0.0217  0.4671  0.1411
   49MOL    N40 6856   5.072   4.715   2.467 -0.8939 -0.0501 -0.5705
   49MOL    H41 6857   5.062   4.606   2.858 -2.2090  0.8719 -0.4779
   49MOL    H42 6858   5.122   4.452   2.797  1.2347  0.9966 -0.5887
   49MOL    H43 6859   5.253   4.534   2.649  1.5695  1.8014  0.3174
   49MOL    C44 6860   5.272   4.708   2.759 -0.5795  0.5806  0.3143
   49MOL    C45 6861   5.393   4.767   2.684 -0.2963  0.0918  0.4251
   49MOL    C46 6862   5.349   4.846   2.572  0.2487 -0.3716 -0.1504
   49MOL    N47 6863   5.315   4.911   2.479  0.0491  0.2444 -0.1660
   49MOL    H48 6864   5.223   4.795   2.802 -1.5119  0.0805  0.2742
   49MOL    H49 6865   5.314   4.658   2.847 -0.0458 -0.1181 -0.3243
   49MOL    H50 6866   5.439   4.677   2.643 -0.3451  0.0074  0.5549
   49MOL    C51 6867   5.494   4.840   2.784 -0.2208 -0.5444  1.0986
   49MOL    C52 6868   5.633   4.883   2.727  0.5457  0.0235 -1.0971
   49MOL    C53 6869   5.675   4.782   2.629  1.4064  0.4520 -0.1470
   49MOL    N54 6870   5.714   4.703   2.555  0.8706  0.2778  0.6391
   49MOL    H55 6871   5.439   4.918   2.838 -0.9467 -1.0769  1.1359
   49MOL    H56 6872   5.521   4.766   2.859 -0.4868  0.1634  1.9107
   49MOL    H57 6873   5.704   4.879   2.809  0.7695 -2.0149 -1.3572
   49MOL    C58 6874   5.646   5.020   2.667  0.7428 -0.0449  0.1428
   49MOL    C59 6875   5.786   5.091   2.668 -0.3148 -0.3377  0.8969
   49MOL    C60 6876   5.839   5.100   2.809  0.5498  0.3981 -0.1500
   49MOL    N61 6877   5.886   5.110   2.914  0.2380  0.0152 -0.7504
   49MOL    H62 6878   5.594   5.024   2.571  1.1431 -0.0096 -0.0724
   49MOL    H63 6879   5.588   5.084   2.733 -1.1987 -2.0235  0.4117
   49MOL    H64 6880   5.781   5.195   2.635 -0.1170 -0.8621 -0.8084
   49MOL    C65 6881   5.890   5.022   2.576  0.0412 -0.1276  0.0789
   49MOL    C66 6882   5.847   5.042   2.429  0.4182  0.6192  0.0410
   49MOL    C67 6883   5.909   5.162   2.373  0.3473  0.4441 -0.0402
   49MOL    N68 6884   5.956   5.256   2.331 -0.0753 -0.0760  0.5280
   49MOL    H69 6885   5.989   5.068   2.583 -0.4543  1.0126 -0.4188
   49MOL    H70 6886   5.903   4.916   2.598  3.9796 -0.1028 -1.7255
   49MOL    H71 6887   5.742   5.069   2.426  0.2181 -0.1999 -0.4087
   49MOL    C72 6888   5.872   4.920   2.349  0.6173  0.0864  0.2494
   49MOL    C73 6889   5.793   4.901   2.222  0.4400  0.0404 -0.1173
   49MOL    C74 6890   5.819   5.004   2.120 -0.1504 -0.0577  0.4224
   49MOL    N75 6891   5.842   5.082   2.038 -0.6517  0.0011  0.0146
   49MOL    H76 6892   5.975   4.923   2.313  0.2076 -1.0157 -1.0362
   49MOL    H77 6893   5.856   4.831   2.410 -0.1220  0.5122  0.7006
   49MOL    H78 6894   5.688   4.899   2.252  0.2830  0.5482 -0.6175
   49MOL    C79 6895   5.809   4.758   2.164  0.3916 -0.0821  0.6824
   49MOL    C80 6896   5.730   4.721   2.039 -0.5740  0.3856  0.2357
   49MOL    C81 6897   5.794   4.616   1.956  0.1313  0.3955 -0.2429
   49MOL    N82 6898   5.838   4.531   1.895 -0.6829  0.1909 -0.1514
   49MOL    H83 6899   5.915   4.749   2.138  0.5841 -0.0432  1.4448
   49MOL    H84 6900   5.792   4.685   2.243  0.4523  0.0823  0.8463
   49MOL    H85 6901   5.715   4.815   1.987 -0.0288  1.3381  1.7575
   49MOL    C86 6902   5.590   4.684   2.082  0.1509 -0.4409 -0.2331
   49MOL    C87 6903   5.483   4.682   1.976  0.2917 -0.4933 -0.7164
   49MOL    C88 6904   5.495   4.556   1.894 -0.0158 -0.0799 -0.3415
   49MOL    N89 6905   5.506   4.465   1.825  0.0602  0.6913  0.2894
   49MOL    H90 6906   5.588   4.581   2.117  0.8131 -0.1531  0.6639
   49MOL    H91 6907   5.562   4.741   2.171 -0.1629  0.5723 -0.9618
   49MOL    H92 6908   5.501   4.766   1.909  3.0426 -0.4201  0.0782
   49MOL    C93 6909   5.339   4.705   2.032  0.5888  0.8050  0.6543
   49MOL    C94 6910   5.280   4.591   2.116  0.5911 -0.5530 -0.4183
   49MOL    C95 6911   5.339   4.582   2.245 -0.4953  0.7554 -0.3785
   49MOL    N96 6912   5.396   4.584   2.346 -0.1956  0.3265 -0.3067
   49MOL    H97 6913   5.345   4.799   2.087  2.8598 -0.3817  2.5153
   49MOL    H98 6914   5.275   4.717   1.945  1.5577  0.8100 -0.0734
   49MOL    H99 6915   5.290   4.490   2.074  0.2035 -0.6294 -0.3298
   49MOL   C100 6916   5.129   4.597   2.138 -0.4923 -0.0140 -0.4141
   49MOL   C101 6917   5.060   4.465   2.194  0.0472 -0.0637 -0.1968
   49MOL   C102 6918   5.104   4.413   2.333  0.9673 -0.1771  1.0655
   49MOL   N103 6919   5.131   4.372   2.437 -0.2147 -0.6744 -0.6476
   49MOL   H104 6920   5.105   4.678   2.207  0.7907  0.3680 -0.3963
   49MOL   H105 6921   5.074   4.617   2.046 -1.0887 -0.6591 -0.1956
   49MOL   H106 6922   5.104   4.385   2.134 -0.5278 -0.4301 -0.1362
   49MOL   C107 6923   4.909   4.477   2.168 -1.0440 -0.3188  0.4740
   49MOL   C108 6924   4.817   4.357   2.215  0.4493  0.1581 -0.2042
   49MOL   C109 6925   4.764   4.371   2.355  0.1741 -0.6980 -1.3771
   49MOL   N110 6926   4.715   4.380   2.460 -0.0986  0.6341 -0.0823
   49MOL   H111 6927   4.876   4.562   2.229 -0.2708  0.4756 -0.2035
   49MOL   H112 6928   4.898   4.510   2.065 -1.9841 -0.9336  0.3681
   49MOL   H113 6929   4.879   4.268   2.210 -0.1616 -0.2895  0.1216
   49MOL   C114 6930   4.695   4.332   2.125 -0.0866  0.2467 -0.5607
   49MOL   C115 6931   4.586   4.439   2.132 -0.0782 -0.7335 -0.6314
   49MOL   C116 6932   4.629   4.571   2.081  0.1731  0.6176 -0.7464
   49MOL   N117 6933   4.661   4.679   2.044 -0.2969 -0.2887  0.3228
   49MOL   H118 6934   4.723   4.331   2.020  0.4818  0.0451 -0.4124
   49MOL   H119 6935   4.654   4.232   2.141 -1.3233  0.7048 -0.8611
   49MOL   H120 6936   4.551   4.462   2.232  0.3696 -0.9977 -0.4101
   49MOL   C121 6937   4.460   4.383   2.059 -0.1573 -0.3805 -0.4379
   49MOL   C122 6938   4.340   4.485   2.051 -0.3641 -0.4497  0.0428
   49MOL   C123 6939   4.357   4.596   1.956  0.1191 -0.0645 -0.2698
   49MOL   N124 6940   4.370   4.680   1.877 -0.0338  0.3136  0.1511
   49MOL   H125 6941   4.495   4.367   1.957 -1.0561 -1.3939 -0.5924
   49MOL   H126 6942   4.427   4.291   2.107 -0.4604  0.9039  1.8864
   49MOL   H127 6943   4.315   4.530   2.147  0.5965 -2.6534  1.3587
   49MOL   C128 6944   4.200   4.410   2.033 -0.2737 -0.1823  0.0996
   49MOL   C129 6945   4.067   4.476   2.085 -0.1646 -0.2327  0.0542
   49MOL   C130 6946   4.055   4.611   2.025  0.1068  0.9115 -0.1126
   49MOL   N131 6947   4.044   4.718   1.976 -0.0496 -1.1924  0.1872
   49MOL   H132 6948   4.194   4.376   1.930  0.8851  1.6335 -0.5907
   49MOL   H133 6949   4.200   4.313   2.083  0.1607  0.1715  0.7945
   49MOL   H134 6950   4.074   4.497   2.191  0.0921 -1.5003  0.3004
   49MOL   C135 6951   3.935   4.394   2.051  0.4189 -0.3349  0.0685
   49MOL   C136 6952   3.820   4.433   2.138  0.1690  0.5504  0.0832
   49MOL   C137 6953   3.698   4.346   2.133 -0.4515 -0.2705  0.6541
   49MOL   N138 6954   3.603   4.284   2.131 -0.2310 -0.3290  0.3013
   49MOL   H139 6955   3.908   4.424   1.950 -1.1745  0.4423  0.7038
   49MOL   H140 6956   3.958   4.288   2.045 -0.5982 -0.5632  0.1914
   49MOL   H141 6957   3.807   4.538   2.109 -0.9489  0.4102  0.0492
   49MOL   H142 6958   3.848   4.432   2.243 -1.7831 -0.1075  0.6270
   50MOL     C1 6959   5.348   1.209   5.869  0.2058  0.0912 -0.1403
   50MOL     C2 6960   5.296   1.082   5.798 -0.1598  0.3160 -0.1521
   50MOL     C3 6961   5.287   1.107   5.650  0.2889 -0.3077  0.2392
   50MOL     N4 6962   5.287   1.129   5.537  1.0160  0.2388  0.5996
   50MOL     H5 6963   5.299   1.300   5.835  1.8951  2.1758  2.7272
   50MOL     H6 6964   5.454   1.232   5.861  0.7134 -1.3441  1.9780
   50MOL     H7 6965   5.191   1.079   5.830 -0.2024  3.9379  0.2686
   50MOL     H8 6966   5.333   1.193   5.976  1.1904 -0.7409 -0.1228
   50MOL     C9 6967   5.370   0.947   5.837  0.3353  0.1468  0.8276
   50MOL    C10 6968   5.281   0.823   5.831  0.1675  0.0670  0.2979
   50MOL    C11 6969   5.177   0.832   5.932 -0.5826 -0.9009  0.1211
   50MOL    N12 6970   5.108   0.842   6.019 -0.2564 -0.6655 -0.5098
   50MOL    H13 6971   5.455   0.931   5.770 -2.4122  0.5733 -2.9769
   50MOL    H14 6972   5.417   0.960   5.934 -2.2061  1.6666  1.8812
   50MOL    H15 6973   5.346   0.740   5.859  0.3771  0.0844 -0.1433
   50MOL    C16 6974   5.224   0.788   5.688  0.4843  0.3704 -0.7344
   50MOL    C17 6975   5.162   0.642   5.668  0.7246  0.1430 -0.3456
   50MOL    C18 6976   5.268   0.541   5.668 -0.8900 -0.3047  0.5048
   50MOL    N19 6977   5.353   0.463   5.669 -0.0886  0.5029 -0.5822
   50MOL    H20 6978   5.147   0.862   5.665 -1.5005 -2.8582 -5.3152
   50MOL    H21 6979   5.298   0.807   5.610 -0.7667 -2.0370 -2.5439
   50MOL    H22 6980   5.127   0.631   5.565  3.8008  0.0362 -1.4206
   50MOL    C23 6981   5.049   0.588   5.761  0.0603  0.2022  0.4238
   50MOL    C24 6982   4.904   0.644   5.733  0.4557 -0.4329 -0.4236
   50MOL    C25 6983   4.883   0.704   5.598  0.7351 -0.2443  0.3026
   50MOL    N26 6984   4.867   0.752   5.495  0.2554  0.0575  0.0243
   50MOL    H27 6985   5.059   0.479   5.756  0.4609  0.3182 -1.3769
   50MOL    H28 6986   5.081   0.623   5.859  0.7331 -0.8884  0.5949
   50MOL    H29 6987   4.887   0.720   5.809 -2.3263 -1.0704 -0.3730
   50MOL    C30 6988   4.789   0.554   5.774 -0.0400  0.4210  0.0005
   50MOL    C31 6989   4.649   0.621   5.805 -0.1795 -0.1794  0.4313
   50MOL    C32 6990   4.592   0.681   5.676 -0.1488  0.4991 -0.7147
   50MOL    N33 6991   4.557   0.728   5.577  0.5813 -0.4852  0.0431
   50MOL    H34 6992   4.788   0.476   5.698  1.3606  0.9695 -0.6149
   50MOL    H35 6993   4.823   0.512   5.868 -2.3720  1.1013  1.1850
   50MOL    H36 6994   4.667   0.708   5.869 -0.3248  1.8747 -2.2502
   50MOL    C37 6995   4.548   0.529   5.872  0.1381 -0.1998 -1.1362
   50MOL    C38 6996   4.468   0.434   5.786  0.0845 -0.2906 -0.6440
   50MOL    C39 6997   4.557   0.364   5.687  0.3051 -0.0174 -0.5498
   50MOL    N40 6998   4.630   0.316   5.610 -0.5005 -0.1463 -0.2587
   50MOL    H41 6999   4.602   0.470   5.946  2.0415 -1.5930 -3.5746
   50MOL    H42 7000   4.472   0.576   5.935  0.8508 -0.2533 -0.2256
   50MOL    H43 7001   4.403   0.490   5.719  0.0113 -0.3349 -0.6078
   50MOL    C44 7002   4.383   0.340   5.875 -0.2888 -0.4926 -0.7025
   50MOL    C45 7003   4.278   0.239   5.812 -0.0828  0.5701 -0.0927
   50MOL    C46 7004   4.150   0.287   5.865  0.2913  0.4765 -0.2180
   50MOL    N47 7005   4.047   0.312   5.895  0.2219 -0.7722 -1.4252
   50MOL    H48 7006   4.450   0.280   5.937  1.0136  0.1218 -1.4968
   50MOL    H49 7007   4.326   0.401   5.945  2.0082  2.2302 -1.0832
   50MOL    H50 7008   4.302   0.149   5.869  0.7085  1.4602  1.0060
   50MOL    C51 7009   4.275   0.200   5.657  0.6796  0.3807 -0.3208
   50MOL    C52 7010   4.203   0.064   5.639  0.5766  0.2647  0.2606
   50MOL    C53 7011   4.061   0.082   5.653  0.1101  0.1687 -0.8403
   50MOL    N54 7012   3.945   0.086   5.660 -0.1058  0.1449 -0.1820
   50MOL    H55 7013   4.224   0.281   5.606 -0.4577 -0.8084 -1.0886
   50MOL    H56 7014   4.375   0.191   5.614 -0.6325 -2.1567 -2.9972
   50MOL    H57 7015   4.236   8.303   5.713 -0.0370 -2.1173 -1.7788
   50MOL    C58 7016   4.227   0.002   5.494 -0.4719 -0.5545  0.1656
   50MOL    C59 7017   4.178   8.171   5.462  0.2291  0.2558  0.2489
   50MOL    C60 7018   4.097   8.117   5.577 -0.3514  0.7671  0.4037
   50MOL    N61 7019   4.037   8.076   5.669  0.2430  0.1691  0.4516
   50MOL    H62 7020   4.184   0.067   5.418 -0.8736  0.7164  1.4659
   50MOL    H63 7021   4.335   0.010   5.475 -0.6104  3.8401  0.6697
   50MOL    H64 7022   4.272   8.119   5.448  0.4864  0.5391  0.9434
   50MOL    C65 7023   4.105   8.162   5.323  0.3714  0.1232  0.0458
   50MOL    C66 7024   4.132   8.030   5.246  0.4309 -0.0078 -0.6352
   50MOL    C67 7025   4.141   7.907   5.325  0.0268  0.2090 -1.0680
   50MOL    N68 7026   4.145   7.807   5.382  0.2576  0.2733  0.3690
   50MOL    H69 7027   3.998   8.180   5.335  0.3389  0.9234 -1.3282
   50MOL    H70 7028   4.117   8.245   5.254  0.9364 -0.6478 -0.7906
   50MOL    H71 7029   4.230   8.032   5.198  0.9414  3.1003  0.3818
   50MOL    C72 7030   4.034   8.003   5.125  0.8431 -0.1416 -0.0387
   50MOL    C73 7031   4.024   8.100   5.010 -0.1612  0.1459 -1.0523
   50MOL    C74 7032   4.132   8.195   5.009  0.0948 -0.1843  0.3506
   50MOL    N75 7033   4.219   8.274   5.000 -0.0671  0.4708  0.1631
   50MOL    H76 7034   4.084   7.915   5.085 -1.2869 -0.4638 -2.1254
   50MOL    H77 7035   3.938   7.971   5.166  0.4255  2.0341  0.7470
   50MOL    H78 7036   3.941   8.167   5.032  0.2213 -0.3350  2.0192
   50MOL    C79 7037   3.989   8.034   4.876  0.0185  0.5428 -0.6115
   50MOL    C80 7038   3.882   7.924   4.884  0.2496 -0.2034 -0.0265
   50MOL    C81 7039   3.757   7.988   4.945  0.0675  0.2213 -0.4679
   50MOL    N82 7040   3.664   8.036   4.989  0.2432  0.2488  0.0855
   50MOL    H83 7041   3.962   8.107   4.800  0.6586  1.3011 -0.1199
   50MOL    H84 7042   4.079   7.987   4.836 -0.3832  0.2527 -1.1862
   50MOL    H85 7043   3.913   7.850   4.957 -2.6509 -2.0724 -0.5973
   50MOL    C86 7044   3.844   7.852   4.752 -0.1760 -0.1237  0.6830
   50MOL    C87 7045   3.854   7.701   4.749  0.0389 -0.6920  0.3579
   50MOL    C88 7046   3.770   7.630   4.645  0.2621 -0.2820  0.0105
   50MOL    N89 7047   3.709   7.573   4.566  0.8724  0.4581  0.2484
   50MOL    H90 7048   3.741   7.874   4.725 -0.5558 -3.1587 -0.4712
   50MOL    H91 7049   3.899   7.893   4.667 -1.5446  2.5985  1.0565
   50MOL    H92 7050   3.807   7.665   4.841  1.5551  0.3797  1.5803
   50MOL    C93 7051   3.993   7.646   4.754 -0.2573 -0.6290  0.5443
   50MOL    C94 7052   4.092   7.652   4.636  0.3100  0.1768 -0.7172
   50MOL    C95 7053   4.123   7.784   4.576  0.7189  0.2043  0.9150
   50MOL    N96 7054   4.148   7.885   4.520  0.1584 -0.8244  0.2852
   50MOL    H97 7055   4.042   7.680   4.845 -2.4049 -0.0289  1.5215
   50MOL    H98 7056   3.977   7.539   4.772  0.9788 -0.5756  2.0827
   50MOL    H99 7057   4.055   7.614   4.540  0.9825  4.3736 -2.7304
   50MOL   C100 7058   4.233   7.596   4.676  0.5703 -1.8071 -0.5072
   50MOL   C101 7059   4.244   7.451   4.742 -0.3524  0.2010 -0.0779
   50MOL   C102 7060   4.161   7.350   4.673 -0.1723  0.0640 -0.2847
   50MOL   N103 7061   4.090   7.275   4.621  0.0354 -0.0699 -0.5508
   50MOL   H104 7062   4.290   7.596   4.583  0.1111 -0.5258 -0.8030
   50MOL   H105 7063   4.285   7.674   4.732 -0.1836 -1.3641 -0.4146
   50MOL   H106 7064   4.212   7.451   4.846 -0.4686 -1.5120 -0.1054
   50MOL   C107 7065   4.398   7.425   4.755 -0.0420  0.2784 -0.4588
   50MOL   C108 7066   4.429   7.294   4.833 -0.6439  0.0785 -0.2689
   50MOL   C109 7067   4.438   7.183   4.738 -0.2062  0.2452  0.9644
   50MOL   N110 7068   4.443   7.097   4.662  0.3905  0.3794 -0.5947
   50MOL   H111 7069   4.444   7.429   4.656 -1.8125 -1.2790 -1.4059
   50MOL   H112 7070   4.444   7.513   4.800  0.9913  0.6677 -2.2260
   50MOL   H113 7071   4.349   7.275   4.905  1.1734 -0.3100  1.7298
   50MOL   C114 7072   4.549   7.310   4.929  0.2477  0.0469 -0.3592
   50MOL   C115 7073   4.687   7.303   4.866 -0.6506 -0.4455 -0.0631
   50MOL   C116 7074   4.700   7.417   4.785 -0.5591 -0.1948 -0.0485
   50MOL   N117 7075   4.712   7.512   4.718  0.6827  0.4677 -0.3828
   50MOL   H118 7076   4.538   7.402   4.986  0.0435  0.3550 -0.8869
   50MOL   H119 7077   4.532   7.234   5.005 -0.4163  2.1452  1.6404
   50MOL   H120 7078   4.689   7.225   4.790 -0.7150  1.0805 -1.6509
   50MOL   C121 7079   4.798   7.287   4.967 -0.4906  0.9357 -0.9391
   50MOL   C122 7080   4.798   7.160   5.060  0.0249  0.0182 -0.1439
   50MOL   C123 7081   4.771   7.035   4.987  0.4560 -0.6150  0.8455
   50MOL   N124 7082   4.748   6.941   4.924  0.3164  0.2399  0.6796
   50MOL   H125 7083   4.887   7.277   4.906  0.1177 -0.8706  0.2191
   50MOL   H126 7084   4.813   7.382   5.019 -2.4144  0.4479  0.5695
   50MOL   H127 7085   4.715   7.184   5.127 -1.9807 -0.2439 -2.4270
   50MOL   C128 7086   4.924   7.151   5.139 -0.9414 -0.4960 -0.4942
   50MOL   C129 7087   4.907   7.197   5.285 -0.0416 -0.0341 -0.4607
   50MOL   C130 7088   4.877   7.338   5.311  0.0698  0.2075 -0.0636
   50MOL   N131 7089   4.851   7.446   5.335 -0.0174 -0.7423  0.2379
   50MOL   H132 7090   4.955   7.046   5.143  1.1945  0.0955 -1.2244
   50MOL   H133 7091   5.007   7.205   5.094 -1.0966  1.4988  1.5219
   50MOL   H134 7092   5.006   7.186   5.328  0.4986  2.4018 -1.0246
   50MOL   C135 7093   4.832   7.099   5.383  0.5039 -0.1366 -0.9358
   50MOL   C136 7094   4.819   7.150   5.524  0.1971 -0.2781  0.3529
   50MOL   C137 7095   4.744   7.064   5.614  0.4585  0.1987  0.5162
   50MOL   N138 7096   4.691   6.993   5.686  0.4065 -0.1364 -0.4370
   50MOL   H139 7097   4.733   7.091   5.339 -1.2610 -0.5394  2.9223
   50MOL   H140 7098   4.873   6.998   5.382  1.3501  0.1707  1.1868
   50MOL   H141 7099   4.773   7.249   5.519  3.3335  1.2298 -0.4242
   50MOL   H142 7100   4.914   7.176   5.572 -0.2948 -0.3155  1.3460
   51MOL     C1 7101   4.673   2.865   5.272 -0.5788  0.6592  0.3153
   51MOL     C2 7102   4.675   2.934   5.141  0.0548 -0.6628 -0.5959
   51MOL     C3 7103   4.667   3.087   5.141 -0.2377  0.2600 -0.2146
   51MOL     N4 7104   4.665   3.207   5.137 -0.3778  0.2789  0.5826
   51MOL     H5 7105   4.583   2.896   5.326 -1.4718 -2.6954  0.9063
   51MOL     H6 7106   4.754   2.892   5.340 -0.4158  2.3539 -0.5382
   51MOL     H7 7107   4.578   2.907   5.100 -1.1026  1.5984  0.5278
   51MOL     H8 7108   4.666   2.756   5.263 -0.8428  0.9105 -3.0445
   51MOL     C9 7109   4.786   2.883   5.054 -0.3535  0.5405  0.5560
   51MOL    C10 7110   4.811   2.943   4.910  0.0195  0.8753 -0.2189
   51MOL    C11 7111   4.678   2.947   4.836 -0.1023 -0.6036  0.3421
   51MOL    N12 7112   4.580   2.958   4.775 -0.2029  0.2108  0.7290
   51MOL    H13 7113   4.884   2.877   5.100 -0.0445 -0.3660 -0.1959
   51MOL    H14 7114   4.757   2.778   5.044 -0.2939  0.5621  0.1737
   51MOL    H15 7115   4.865   2.872   4.849  1.1648  0.3710  1.3438
   51MOL    C16 7116   4.895   3.072   4.913  0.1818 -0.6946 -0.5905
   51MOL    C17 7117   4.889   3.161   4.793 -0.6526  0.1550  0.0935
   51MOL    C18 7118   4.902   3.080   4.671  0.1195  0.4790  0.5552
   51MOL    N19 7119   4.907   3.013   4.576  0.4544  0.0881 -0.0237
   51MOL    H20 7120   4.872   3.142   4.994  0.4594 -2.9278  1.4893
   51MOL    H21 7121   4.997   3.037   4.931  0.1281 -0.6487 -0.1868
   51MOL    H22 7122   4.983   3.216   4.801 -0.4707 -0.2298  0.6565
   51MOL    C23 7123   4.771   3.262   4.792  0.2437 -0.1973  0.1167
   51MOL    C24 7124   4.754   3.350   4.671 -0.0549  0.3028 -0.5886
   51MOL    C25 7125   4.883   3.395   4.621 -0.5665 -0.6935 -0.3143
   51MOL    N26 7126   4.987   3.428   4.587  0.3939 -0.4976  0.4289
   51MOL    H27 7127   4.679   3.213   4.826  0.4986 -0.9379 -0.2321
   51MOL    H28 7128   4.792   3.324   4.879  1.0007  1.2464 -1.0825
   51MOL    H29 7129   4.702   3.441   4.700 -0.6749 -0.2600  0.0861
   51MOL    C30 7130   4.683   3.283   4.552  0.2015 -0.2316 -0.1868
   51MOL    C31 7131   4.610   3.380   4.462 -0.5137  0.1986  0.5511
   51MOL    C32 7132   4.700   3.473   4.389 -0.2363 -0.7960 -0.1623
   51MOL    N33 7133   4.763   3.546   4.329 -0.2359 -0.0223 -0.6307
   51MOL    H34 7134   4.754   3.225   4.494  0.1409 -1.6068  1.0913
   51MOL    H35 7135   4.614   3.206   4.586 -0.0655 -0.0254 -0.2527
   51MOL    H36 7136   4.549   3.452   4.516 -0.1074  1.9617 -1.2668
   51MOL    C37 7137   4.507   3.313   4.360  0.4012 -0.3813  0.1537
   51MOL    C38 7138   4.397   3.229   4.430  0.0319 -0.4479  0.1798
   51MOL    C39 7139   4.317   3.307   4.523  0.0557 -0.0960 -0.5837
   51MOL    N40 7140   4.254   3.373   4.595  0.1212  0.3291  0.0356
   51MOL    H41 7141   4.462   3.395   4.305 -1.0134 -1.9024 -0.9835
   51MOL    H42 7142   4.563   3.254   4.287  0.7117 -1.2441  1.0715
   51MOL    H43 7143   4.440   3.152   4.494  2.0687  1.1507  0.7766
   51MOL    C44 7144   4.311   3.141   4.331 -0.0894 -0.1264  0.6693
   51MOL    C45 7145   4.227   3.040   4.401 -0.0212  0.9697  0.0483
   51MOL    C46 7146   4.104   3.098   4.458 -0.1928 -0.0557 -0.3713
   51MOL    N47 7147   4.004   3.143   4.511  0.3836 -0.2070 -0.2174
   51MOL    H48 7148   4.243   3.205   4.274  0.8915  0.1051 -0.2507
   51MOL    H49 7149   4.382   3.095   4.263  1.0618  1.2508  0.9239
   51MOL    H50 7150   4.292   3.013   4.485  0.6442 -0.8051 -1.0028
   51MOL    C51 7151   4.196   2.913   4.314  0.3666 -0.1084  0.2176
   51MOL    C52 7152   4.122   2.787   4.374  0.0245 -0.9115 -0.0077
   51MOL    C53 7153   4.008   2.808   4.458 -0.2783 -0.6294 -0.9131
   51MOL    N54 7154   3.922   2.823   4.533  0.3696  0.0874  0.0213
   51MOL    H55 7155   4.146   2.955   4.227 -0.0087 -2.0878 -0.5569
   51MOL    H56 7156   4.284   2.875   4.262  0.5550 -0.3158  0.6849
   51MOL    H57 7157   4.206   2.755   4.435  0.3354  0.4206  0.2749
   51MOL    C58 7158   4.108   2.671   4.277 -0.0418 -0.1785  0.7021
   51MOL    C59 7159   4.000   2.682   4.170  0.4066 -0.4305 -0.9892
   51MOL    C60 7160   4.040   2.777   4.061 -0.9413  0.2988 -0.0860
   51MOL    N61 7161   4.071   2.847   3.982 -0.1129 -0.5476 -0.0439
   51MOL    H62 7162   4.210   2.659   4.242 -1.1928 -3.7547 -1.6898
   51MOL    H63 7163   4.075   2.593   4.346 -0.8086  0.1984  0.7766
   51MOL    H64 7164   3.911   2.735   4.204  0.9163 -0.5346  0.5277
   51MOL    C65 7165   3.957   2.539   4.120 -0.2086 -0.6154 -0.5017
   51MOL    C66 7166   3.888   2.534   3.984  0.3160  0.3722 -0.5653
   51MOL    C67 7167   3.986   2.545   3.874 -0.0341 -0.4257 -0.3028
   51MOL    N68 7168   4.062   2.558   3.786 -0.3306  0.1902  0.1728
   51MOL    H69 7169   4.042   2.473   4.135  0.4740  0.4104  0.2389
   51MOL    H70 7170   3.882   2.518   4.196 -0.7069  0.1709 -0.7706
   51MOL    H71 7171   3.814   2.615   3.986  0.4489  0.5402 -1.9676
   51MOL    C72 7172   3.811   2.395   3.969 -0.3472  0.3723 -0.0126
   51MOL    C73 7173   3.890   2.275   3.913  0.2231 -0.1437  0.1251
   51MOL    C74 7174   4.003   2.243   4.004  0.2607 -0.5869  0.1569
   51MOL    N75 7175   4.096   2.229   4.077 -0.2514  0.8099 -0.5496
   51MOL    H76 7176   3.775   2.361   4.066  2.6194 -0.6326  0.7763
   51MOL    H77 7177   3.722   2.429   3.916 -0.7007  2.0986  1.6080
   51MOL    H78 7178   3.938   2.304   3.820 -0.4999 -0.7939 -0.4538
   51MOL    C79 7179   3.801   2.152   3.885 -0.0591  0.9407  0.1775
   51MOL    C80 7180   3.703   2.173   3.758  0.3891  0.0545  0.3825
   51MOL    C81 7181   3.776   2.185   3.630 -0.2980 -0.2754 -0.1808
   51MOL    N82 7182   3.835   2.206   3.527 -0.2873  0.0558  0.5827
   51MOL    H83 7183   3.856   2.059   3.871 -1.3667  0.1550  0.1614
   51MOL    H84 7184   3.745   2.145   3.978  2.3731 -0.6673  1.5667
   51MOL    H85 7185   3.658   2.269   3.782 -0.0524 -0.4151  1.4774
   51MOL    C86 7186   3.599   2.067   3.743  0.0405 -0.0238 -0.1194
   51MOL    C87 7187   3.469   2.100   3.671 -0.5663  0.6986 -0.1554
   51MOL    C88 7188   3.498   2.162   3.541 -0.0760 -0.8642 -0.1343
   51MOL    N89 7189   3.515   2.216   3.440 -0.5696 -0.0077  0.0409
   51MOL    H90 7190   3.638   1.975   3.698  0.8196  1.6835 -3.0810
   51MOL    H91 7191   3.573   2.033   3.843  0.5174 -1.3039 -0.4175
   51MOL    H92 7192   3.423   2.175   3.736  1.6014  1.0796  0.9917
   51MOL    C93 7193   3.365   1.986   3.687 -0.1220  0.1125  0.0651
   51MOL    C94 7194   3.312   1.948   3.828  0.2052  0.3015  0.6121
   51MOL    C95 7195   3.232   2.055   3.886 -0.3870 -0.4603  0.5862
   51MOL    N96 7196   3.170   2.143   3.930 -0.3894 -0.9642  0.3807
   51MOL    H97 7197   3.277   2.013   3.629  0.0633  1.3248  0.3333
   51MOL    H98 7198   3.399   1.894   3.639 -1.2291 -0.4089  0.2581
   51MOL    H99 7199   3.399   1.931   3.893  1.7053 -0.6839 -1.6088
   51MOL   C100 7200   3.224   1.819   3.814 -0.2511 -0.2750  0.5456
   51MOL   C101 7201   3.291   1.691   3.761  0.3566  0.1855 -0.3637
   51MOL   C102 7202   3.432   1.670   3.803 -0.2336  0.5593 -0.2009
   51MOL   N103 7203   3.541   1.647   3.837 -0.4070 -0.5343  0.1669
   51MOL   H104 7204   3.183   1.794   3.912  1.3052 -0.6640  1.0963
   51MOL   H105 7205   3.126   1.830   3.766  1.0431 -1.1922 -2.3757
   51MOL   H106 7206   3.298   1.713   3.654  0.9688 -0.7705 -0.5212
   51MOL   C107 7207   3.200   1.573   3.791 -0.1909 -0.1571 -0.6997
   51MOL   C108 7208   3.229   1.484   3.920 -0.8698 -0.2845 -0.9890
   51MOL   C109 7209   3.213   1.540   4.058 -0.2176  0.2686  0.5566
   51MOL   N110 7210   3.206   1.585   4.162 -0.3835 -0.3117 -0.0944
   51MOL   H111 7211   3.098   1.606   3.808 -0.8319 -2.0593 -0.7621
   51MOL   H112 7212   3.197   1.505   3.705  1.8397 -1.2324  0.0502
   51MOL   H113 7213   3.337   1.470   3.919 -0.8133  0.0402  0.4053
   51MOL   C114 7214   3.160   1.345   3.917  0.6754  0.0823 -0.0296
   51MOL   C115 7215   3.005   1.328   3.918 -0.1270 -0.4655  0.0478
   51MOL   C116 7216   2.938   1.377   3.796 -0.2516 -0.0741 -0.2065
   51MOL   N117 7217   2.884   1.403   3.697  0.0960 -0.6661 -0.0308
   51MOL   H118 7218   3.191   1.281   3.834  1.2220 -1.0456  1.0359
   51MOL   H119 7219   3.191   1.287   4.004 -2.2325 -1.4497  0.0572
   51MOL   H120 7220   2.974   1.396   3.998 -1.1804 -1.5087  0.5376
   51MOL   C121 7221   2.968   1.182   3.951  0.0513  0.3839  0.6966
   51MOL   C122 7222   2.847   1.166   4.040 -0.3603  0.4832 -0.5165
   51MOL   C123 7223   2.738   1.251   3.989  0.2769  0.1858  0.1870
   51MOL   N124 7224   2.647   1.318   3.951 -0.0741  0.7024  0.1904
   51MOL   H125 7225   2.948   1.137   3.853  0.4210 -0.4352  0.9889
   51MOL   H126 7226   3.054   1.128   3.992  0.3645  0.2656 -0.0901
   51MOL   H127 7227   2.855   1.200   4.143 -1.6709 -1.7795  0.3572
   51MOL   C128 7228   2.811   1.018   4.049 -0.2172  0.3266 -0.4955
   51MOL   C129 7229   2.669   0.975   4.081  0.1227  0.2296 -0.7201
   51MOL   C130 7230   2.582   0.996   3.965 -0.0494  0.2393 -0.9811
   51MOL   N131 7231   2.521   1.009   3.868 -0.3411 -0.8028 -0.0418
   51MOL   H132 7232   2.852   0.966   3.962 -0.2096 -0.5399  0.0218
   51MOL   H133 7233   2.874   0.981   4.131 -1.7763  0.4469  0.7721
   51MOL   H134 7234   2.627   1.047   4.151 -0.0907 -0.5869  0.0046
   51MOL   C135 7235   2.658   0.833   4.132  1.1061 -0.4133  0.1744
   51MOL   C136 7236   2.694   0.712   4.048 -0.0091  0.2443  0.1363
   51MOL   C137 7237   2.837   0.699   4.017  0.2089  0.2878 -0.2639
   51MOL   N138 7238   2.949   0.695   3.985  0.2387 -0.3851  0.3417
   51MOL   H139 7239   2.708   0.822   4.229  0.8186  1.2392  0.5159
   51MOL   H140 7240   2.550   0.832   4.150  0.8559 -0.0420 -1.3078
   51MOL   H141 7241   2.640   0.712   3.953  1.9479  0.0272 -1.0126
   51MOL   H142 7242   2.673   0.618   4.098 -0.5806  0.4027  0.1930
   52MOL     C1 7243   2.786   0.747   6.725 -0.4850 -0.4598  0.3888
   52MOL     C2 7244   2.656   0.835   6.725 -0.2561 -0.6993 -0.3751
   52MOL     C3 7245   2.684   0.974   6.701  0.9271  0.1081  0.9028
   52MOL     N4 7246   2.708   1.083   6.682  0.8215 -0.1354  0.0603
   52MOL     H5 7247   2.855   0.799   6.658 -1.4707  0.8270  0.3590
   52MOL     H6 7248   2.771   0.645   6.689 -2.7251  0.3377 -1.0734
   52MOL     H7 7249   2.611   0.832   6.825  0.5553  0.8619  0.0468
   52MOL     H8 7250   2.824   0.743   6.827  1.9046 -2.8532 -0.5250
   52MOL     C9 7251   2.550   0.770   6.626 -0.0632 -1.3890 -0.2764
   52MOL    C10 7252   2.563   0.823   6.480 -0.2403  0.4511 -0.0833
   52MOL    C11 7253   2.698   0.840   6.430  0.2709  0.2209  0.2276
   52MOL    N12 7254   2.804   0.860   6.388  0.1307  0.0270 -0.8515
   52MOL    H13 7255   2.563   0.663   6.636 -0.6255 -1.6783 -2.3054
   52MOL    H14 7256   2.447   0.789   6.655  0.2575 -0.1129  0.0960
   52MOL    H15 7257   2.511   0.918   6.488 -2.0552 -0.5711  0.4895
   52MOL    C16 7258   2.473   0.739   6.380 -0.7343  0.3362 -0.3119
   52MOL    C17 7259   2.555   0.627   6.309 -1.1045  0.2674  0.6355
   52MOL    C18 7260   2.604   0.530   6.402  0.9596  0.3430 -0.5106
   52MOL    N19 7261   2.638   0.444   6.474  0.2868  0.1537  0.3351
   52MOL    H20 7262   2.394   0.697   6.442 -1.6476 -1.5832 -2.7006
   52MOL    H21 7263   2.431   0.810   6.310  0.5121  0.5274 -0.8905
   52MOL    H22 7264   2.642   0.679   6.269 -0.4074 -0.3557  1.3388
   52MOL    C23 7265   2.481   0.555   6.192  0.3045 -0.4717 -0.9195
   52MOL    C24 7266   2.573   0.498   6.078 -0.0414  0.3373 -0.1807
   52MOL    C25 7267   2.686   0.428   6.128  1.3494  0.3135 -0.0425
   52MOL    N26 7268   2.778   0.377   6.175  0.2735  0.5914  0.0016
   52MOL    H27 7269   2.410   0.479   6.226 -0.3567  0.6067  0.1335
   52MOL    H28 7270   2.421   0.635   6.149  1.0036  0.0376 -0.9469
   52MOL    H29 7271   2.615   0.589   6.034 -0.5723  0.0703 -1.2588
   52MOL    C30 7272   2.504   0.437   5.957  0.0543 -0.7410 -0.0821
   52MOL    C31 7273   2.475   0.292   5.944 -0.0860 -0.7102 -0.5237
   52MOL    C32 7274   2.394   0.245   6.058 -0.1572  0.0261  0.0932
   52MOL    N33 7275   2.338   0.212   6.152 -0.7258 -0.3226  0.3429
   52MOL    H34 7276   2.426   0.509   5.934  1.1566  1.0521  1.5397
   52MOL    H35 7277   2.567   0.463   5.872 -1.2230 -1.5551 -1.3031
   52MOL    H36 7278   2.569   0.239   5.958 -0.7970 -1.9468 -0.2678
   52MOL    C37 7279   2.411   0.246   5.812  0.5584 -0.2805 -0.1734
   52MOL    C38 7280   2.406   0.098   5.776  0.8893  0.4936  0.2899
   52MOL    C39 7281   2.294   0.078   5.683  0.3949 -0.5012 -0.1950
   52MOL    N40 7282   2.202   0.061   5.609 -0.1866  0.2828  0.7329
   52MOL    H41 7283   2.307   0.276   5.808  1.1831  2.2688  1.4373
   52MOL    H42 7284   2.460   0.306   5.736 -2.0460  1.8213 -0.2302
   52MOL    H43 7285   2.381   0.039   5.864 -0.3035 -1.1223 -1.0847
   52MOL    C44 7286   2.537   0.046   5.719  0.5018 -0.4095 -0.2604
   52MOL    C45 7287   2.561   8.204   5.720  0.3209 -0.1117 -0.6550
   52MOL    C46 7288   2.453   8.146   5.634  0.6840 -0.5167  0.1939
   52MOL    N47 7289   2.369   8.105   5.570  0.3475 -0.0145  0.4332
   52MOL    H48 7290   2.553   0.087   5.619 -2.2701  0.7971 -0.2505
   52MOL    H49 7291   2.617   0.096   5.773 -1.8827  0.6326  2.4577
   52MOL    H50 7292   2.555   8.160   5.820  0.7040 -0.3110 -0.7198
   52MOL    C51 7293   2.697   8.172   5.657 -0.1279  0.0204  0.4828
   52MOL    C52 7294   2.756   8.032   5.673  0.1331  0.0069  0.2163
   52MOL    C53 7295   2.651   7.935   5.689  0.4825  0.1134  0.4052
   52MOL    N54 7296   2.572   7.854   5.707 -0.0306  0.0493 -0.1398
   52MOL    H55 7297   2.684   8.214   5.557  1.6596 -0.5444 -0.0142
   52MOL    H56 7298   2.776   8.241   5.690  0.5009 -0.3211 -0.2741
   52MOL    H57 7299   2.825   8.024   5.757 -0.2266 -1.3422  0.4013
   52MOL    C58 7300   2.850   7.985   5.556  0.4027  0.1121 -0.1175
   52MOL    C59 7301   2.946   7.864   5.591 -0.9404 -0.1879 -0.6496
   52MOL    C60 7302   2.872   7.738   5.625 -0.2562 -0.4154 -0.4972
   52MOL    N61 7303   2.808   7.644   5.652 -0.1203  0.5794  0.4369
   52MOL    H62 7304   2.791   7.965   5.466 -0.4887  0.0526  0.4703
   52MOL    H63 7305   2.920   8.068   5.548  0.3850  0.2038  0.6033
   52MOL    H64 7306   3.005   7.882   5.681 -1.9936 -1.1016  0.2388
   52MOL    C65 7307   3.062   7.841   5.491  0.2124  0.0644 -0.3120
   52MOL    C66 7308   3.015   7.846   5.344  0.1112 -0.2432  0.2352
   52MOL    C67 7309   2.996   7.986   5.296  0.8982  0.2106 -0.0073
   52MOL    N68 7310   2.978   8.092   5.263 -0.4049 -0.3912 -0.5106
   52MOL    H69 7311   3.146   7.905   5.514  0.3673  0.4617 -1.8978
   52MOL    H70 7312   3.094   7.743   5.528 -0.8752  0.9637  3.1018
   52MOL    H71 7313   2.914   7.805   5.343 -0.3347  0.7399  2.0539
   52MOL    C72 7314   3.101   7.764   5.247  0.0886 -0.5354 -0.1561
   52MOL    C73 7315   3.157   7.627   5.297  0.1975  0.0739 -0.1163
   52MOL    C74 7316   3.065   7.527   5.348  0.2479 -0.3940  0.6403
   52MOL    N75 7317   2.988   7.451   5.379 -0.1356 -0.2549 -0.2045
   52MOL    H76 7318   3.062   7.763   5.145  0.8167  0.0288 -0.4391
   52MOL    H77 7319   3.186   7.831   5.235 -1.2413  1.5411  1.6214
   52MOL    H78 7320   3.223   7.654   5.379 -0.6157  0.5592  0.3815
   52MOL    C79 7321   3.241   7.561   5.181 -0.0043  0.9579 -0.4685
   52MOL    C80 7322   3.377   7.620   5.145 -0.6633 -0.5101 -0.6407
   52MOL    C81 7323   3.454   7.650   5.264  0.2859 -0.3378  0.4441
   52MOL    N82 7324   3.514   7.668   5.356  0.8752  0.3794 -0.0556
   52MOL    H83 7325   3.248   7.459   5.220 -1.5860  0.1231 -2.2428
   52MOL    H84 7326   3.185   7.540   5.090  3.2190  0.3314 -2.3546
   52MOL    H85 7327   3.354   7.716   5.099 -1.7662 -0.0726  0.7970
   52MOL    C86 7328   3.449   7.540   5.037 -1.4081  0.2491  0.2383
   52MOL    C87 7329   3.488   7.397   5.069 -0.0704 -0.3584  0.3437
   52MOL    C88 7330   3.378   7.294   5.087  0.8261 -0.5302 -0.7031
   52MOL    N89 7331   3.295   7.215   5.098 -0.0891  0.7269  0.1558
   52MOL    H90 7332   3.388   7.558   4.948 -0.9195  0.0883 -0.1278
   52MOL    H91 7333   3.540   7.594   5.012 -0.9952 -1.0300 -1.0943
   52MOL    H92 7334   3.540   7.405   5.164  1.2777  0.8923 -0.4816
   52MOL    C93 7335   3.592   7.338   4.975 -0.0077  0.5942  0.7049
   52MOL    C94 7336   3.544   7.262   4.844  0.8847  0.2942  0.6153
   52MOL    C95 7337   3.458   7.348   4.759 -0.1745  1.0536 -0.2985
   52MOL    N96 7338   3.386   7.415   4.700  0.3069  0.3341 -0.4841
   52MOL    H97 7339   3.660   7.417   4.943  1.9653 -1.4230 -0.1915
   52MOL    H98 7340   3.645   7.259   5.028 -2.2158 -0.6185  1.1807
   52MOL    H99 7341   3.479   7.176   4.860  2.1021 -0.9210 -0.9180
   52MOL   C100 7342   3.668   7.210   4.760 -0.4088  0.7435  0.1192
   52MOL   C101 7343   3.734   7.078   4.814 -0.1132 -0.5734  0.0976
   52MOL   C102 7344   3.635   6.971   4.822  0.0556  0.4171  0.1194
   52MOL   N103 7345   3.551   6.886   4.835 -0.1259  0.4854  0.2009
   52MOL   H104 7346   3.614   7.189   4.668  0.8639  0.0537 -0.4803
   52MOL   H105 7347   3.743   7.285   4.735  0.6237 -0.6294 -0.9771
   52MOL   H106 7348   3.756   7.086   4.920 -0.6800 -0.2730  0.1932
   52MOL   C107 7349   3.871   7.053   4.732 -0.0042 -0.2391 -0.8597
   52MOL   C108 7350   3.938   6.909   4.743 -0.9401 -0.2733  0.0251
   52MOL   C109 7351   3.861   6.817   4.657  0.3006  0.1339  0.6484
   52MOL   N110 7352   3.798   6.756   4.583 -0.2259  0.3637  0.5283
   52MOL   H111 7353   3.844   7.077   4.630 -1.4107  0.1709 -0.3986
   52MOL   H112 7354   3.933   7.127   4.783  0.1700 -1.5187  0.8214
   52MOL   H113 7355   3.918   6.882   4.846  1.5507 -0.7869  0.4187
   52MOL   C114 7356   4.092   6.913   4.719 -0.7113  0.5869 -0.4723
   52MOL   C115 7357   4.166   6.775   4.735 -0.1049  0.3195  0.3733
   52MOL   C116 7358   4.127   6.681   4.629 -0.8209  0.0667 -1.0095
   52MOL   N117 7359   4.097   6.604   4.546  0.5718 -0.2467  0.3090
   52MOL   H118 7360   4.125   6.959   4.625 -0.6443 -1.8622 -1.6701
   52MOL   H119 7361   4.132   6.983   4.793  1.6066  0.5406 -1.6307
   52MOL   H120 7362   4.131   6.744   4.834 -1.8168  2.4884  0.4853
   52MOL   C121 7363   4.320   6.783   4.728  0.3943  0.0513 -0.0879
   52MOL   C122 7364   4.389   6.805   4.856  0.3813  0.0970 -0.5400
   52MOL   C123 7365   4.342   6.928   4.923  0.2402 -0.2298  0.1466
   52MOL   N124 7366   4.303   7.021   4.984 -0.0635 -0.3415  0.0360
   52MOL   H125 7367   4.367   6.689   4.700 -0.9409 -0.6333 -0.1071
   52MOL   H126 7368   4.345   6.861   4.656 -1.8500 -0.3115 -1.3159
   52MOL   H127 7369   4.495   6.824   4.838  0.6720 -0.9271  0.0759
   52MOL   C128 7370   4.397   6.684   4.953  0.1795 -0.8209 -0.5181
   52MOL   C129 7371   4.523   6.679   5.037  0.8490  0.7858  0.0158
   52MOL   C130 7372   4.557   6.795   5.127 -0.3201 -0.0947  0.4603
   52MOL   N131 7373   4.579   6.883   5.199 -0.4588  0.1630 -0.1649
   52MOL   H132 7374   4.310   6.686   5.018  0.1474  3.1124 -0.5696
   52MOL   H133 7375   4.405   6.591   4.896 -0.0719 -0.0473 -1.8265
   52MOL   H134 7376   4.605   6.673   4.965 -0.9677  0.3048 -2.0687
   52MOL   C135 7377   4.525   6.556   5.120 -0.1923 -0.2878  0.0514
   52MOL   C136 7378   4.673   6.506   5.162 -0.9200 -0.2873 -0.0322
   52MOL   C137 7379   4.665   6.372   5.218 -0.2660  0.8787 -1.0729
   52MOL   N138 7380   4.659   6.265   5.268  0.0898  0.3271  0.0201
   52MOL   H139 7381   4.463   6.574   5.208 -1.5125  0.2398 -0.9755
   52MOL   H140 7382   4.475   6.472   5.072 -1.4071  0.0905  0.6356
   52MOL   H141 7383   4.735   6.566   5.228  1.8059 -1.9050 -1.0329
   52MOL   H142 7384   4.722   6.501   5.065 -1.0987 -2.5338 -0.0343
   53MOL     C1 7385   3.525   4.652   3.990 -0.3216 -0.5512 -0.0011
   53MOL     C2 7386   3.556   4.671   3.839 -0.4506  0.1270 -0.1727
   53MOL     C3 7387   3.447   4.766   3.800  0.4405  0.6043 -0.3076
   53MOL     N4 7388   3.367   4.840   3.768 -0.0483 -0.0089 -0.3125
   53MOL     H5 7389   3.538   4.743   4.048  0.0022 -2.2217  2.5950
   53MOL     H6 7390   3.589   4.573   4.030  0.0019 -1.1495 -1.6442
   53MOL     H7 7391   3.540   4.582   3.779 -0.2252  1.6227 -2.4816
   53MOL     H8 7392   3.419   4.633   4.001 -0.3814  0.4501  1.2769
   53MOL     C9 7393   3.694   4.729   3.816 -0.5404 -0.0260  0.5618
   53MOL    C10 7394   3.809   4.651   3.881 -1.1218 -0.0479 -0.3962
   53MOL    C11 7395   3.792   4.507   3.858  0.2547 -1.0107 -0.8180
   53MOL    N12 7396   3.772   4.394   3.847  0.1760 -0.4251 -0.0101
   53MOL    H13 7397   3.708   4.749   3.710 -2.2837 -2.2712 -0.1239
   53MOL    H14 7398   3.687   4.830   3.858 -2.0827  0.0316  0.1858
   53MOL    H15 7399   3.819   4.677   3.986 -0.5340 -0.0235 -0.4529
   53MOL    C16 7400   3.945   4.697   3.822  0.4135 -0.5607 -1.1485
   53MOL    C17 7401   4.052   4.588   3.788  0.2918 -0.5904  0.0399
   53MOL    C18 7402   4.019   4.535   3.647 -0.6862  0.4933 -0.0769
   53MOL    N19 7403   3.987   4.488   3.544 -0.2631 -0.0619 -0.2604
   53MOL    H20 7404   3.930   4.767   3.740 -0.0996  0.4544 -0.1977
   53MOL    H21 7405   3.992   4.756   3.900  0.0706 -1.7749  0.0017
   53MOL    H22 7406   4.051   4.491   3.839 -1.2400 -0.6004  0.0084
   53MOL    C23 7407   4.198   4.642   3.785  0.7268 -0.0117  0.1003
   53MOL    C24 7408   4.257   4.699   3.909 -0.3404 -1.0304  0.0253
   53MOL    C25 7409   4.244   4.601   4.013 -0.7813 -1.2601 -0.4138
   53MOL    N26 7410   4.234   4.513   4.094  0.4486 -0.7219 -0.1604
   53MOL    H27 7411   4.263   4.569   3.736 -0.6790 -1.8609  0.9429
   53MOL    H28 7412   4.201   4.717   3.707 -1.8653  0.3418  0.3068
   53MOL    H29 7413   4.199   4.785   3.940 -0.4995 -1.1764  0.1326
   53MOL    C30 7414   4.407   4.744   3.892  0.6097 -0.2155 -0.5390
   53MOL    C31 7415   4.517   4.638   3.930 -0.0615  0.4204 -0.2409
   53MOL    C32 7416   4.481   4.512   3.865 -0.5555 -0.4938 -0.9416
   53MOL    N33 7417   4.453   4.416   3.810  0.4579 -0.1222  0.2365
   53MOL    H34 7418   4.422   4.781   3.791  1.3692 -0.7229 -0.6118
   53MOL    H35 7419   4.427   4.835   3.948  0.0781  0.6219 -1.6935
   53MOL    H36 7420   4.511   4.622   4.037  0.8501  0.6420 -0.1554
   53MOL    C37 7421   4.653   4.695   3.895  0.2293 -0.3913 -0.5472
   53MOL    C38 7422   4.773   4.602   3.919 -0.4311  0.9961  0.1397
   53MOL    C39 7423   4.896   4.653   3.850  0.1839  0.3634 -0.2900
   53MOL    N40 7424   4.998   4.693   3.801 -0.1033 -0.2316  0.4048
   53MOL    H41 7425   4.665   4.709   3.787 -1.2903  1.2329 -0.5344
   53MOL    H42 7426   4.672   4.791   3.942 -1.4831 -0.3971  0.1803
   53MOL    H43 7427   4.748   4.503   3.880  2.2990  0.1299  0.4937
   53MOL    C44 7428   4.813   4.590   4.066  0.1287  0.7234  0.8079
   53MOL    C45 7429   4.872   4.454   4.095  0.0101  0.8691 -0.3764
   53MOL    C46 7430   4.969   4.415   3.991 -0.3195  0.0740  0.0648
   53MOL    N47 7431   5.048   4.382   3.914  0.6454 -0.0681  0.4590
   53MOL    H48 7432   4.882   4.668   4.097 -1.0076  1.0102  2.7140
   53MOL    H49 7433   4.723   4.605   4.127 -0.4945  0.9475 -0.1499
   53MOL    H50 7434   4.798   4.380   4.065 -0.2862  1.1894 -0.4306
   53MOL    C51 7435   4.930   4.430   4.235 -0.0526  1.1720 -0.4728
   53MOL    C52 7436   4.833   4.453   4.354  0.2955 -0.1651  0.0387
   53MOL    C53 7437   4.714   4.377   4.326 -0.3425 -0.4077 -0.0709
   53MOL    N54 7438   4.616   4.315   4.309  0.6026  0.2520 -0.8054
   53MOL    H55 7439   4.971   4.329   4.237  1.1511  1.5684 -3.0838
   53MOL    H56 7440   5.018   4.492   4.252  0.2836  0.6928 -0.4302
   53MOL    H57 7441   4.799   4.556   4.360 -0.3522 -0.3669 -0.0487
   53MOL    C58 7442   4.894   4.410   4.489 -0.0120 -0.3407 -0.7306
   53MOL    C59 7443   4.992   4.500   4.563  0.5834  0.2298 -0.1910
   53MOL    C60 7444   4.920   4.603   4.635 -0.2742 -0.6610 -0.1954
   53MOL    N61 7445   4.868   4.692   4.692 -0.5356 -0.0893 -0.8471
   53MOL    H62 7446   4.809   4.402   4.557 -0.5482  2.8446 -0.9485
   53MOL    H63 7447   4.938   4.311   4.478 -1.3601 -1.3116  2.0062
   53MOL    H64 7448   5.058   4.552   4.492  1.4471 -0.1088  0.3550
   53MOL    C65 7449   5.090   4.419   4.649 -0.4868 -0.7514  0.2245
   53MOL    C66 7450   5.170   4.308   4.587  0.6290 -0.0117  1.2245
   53MOL    C67 7451   5.227   4.341   4.456  0.3279 -0.0607 -0.1419
   53MOL    N68 7452   5.268   4.361   4.350  0.0284 -0.0288  0.3204
   53MOL    H69 7453   5.161   4.500   4.667 -1.0007 -0.3318  0.3802
   53MOL    H70 7454   5.042   4.399   4.744  0.5649 -0.6273  0.7904
   53MOL    H71 7455   5.098   4.228   4.568 -1.7764  2.1421  0.9056
   53MOL    C72 7456   5.276   4.257   4.682 -0.6477 -0.1651  0.8408
   53MOL    C73 7457   5.355   4.132   4.639 -0.1545  0.5102  0.8331
   53MOL    C74 7458   5.487   4.119   4.701  0.3275  0.1721  0.1516
   53MOL    N75 7459   5.586   4.106   4.751 -0.8569 -0.8723 -0.3225
   53MOL    H76 7460   5.335   4.344   4.712 -0.9206  0.9631 -1.7523
   53MOL    H77 7461   5.231   4.247   4.781 -0.2334 -2.2480  0.8533
   53MOL    H78 7462   5.369   4.153   4.532 -0.7874 -1.4892  0.3405
   53MOL    C79 7463   5.272   4.002   4.649 -0.1669  0.4618  0.1491
   53MOL    C80 7464   5.252   3.957   4.793 -0.3956  0.2287  0.0055
   53MOL    C81 7465   5.198   4.042   4.892  0.8719  0.0398  0.1130
   53MOL    N82 7466   5.155   4.108   4.971 -0.8193  0.0649  0.8794
   53MOL    H83 7467   5.173   4.027   4.611 -1.3966 -0.5851  2.5818
   53MOL    H84 7468   5.321   3.926   4.588  1.5152  0.2669  1.6958
   53MOL    H85 7469   5.351   3.925   4.826 -0.1161 -2.2049 -2.9962
   53MOL    C86 7470   5.165   3.830   4.796 -0.1302  0.4407  0.1561
   53MOL    C87 7471   5.122   3.758   4.928  0.2659 -0.4967 -0.4379
   53MOL    C88 7472   5.002   3.820   4.983  0.3916 -0.1891  0.1141
   53MOL    N89 7473   4.904   3.865   5.029  0.3538  0.2020 -0.1497
   53MOL    H90 7474   5.078   3.850   4.733  0.3515 -0.5645 -0.8490
   53MOL    H91 7475   5.223   3.763   4.733 -0.3943 -1.2436  1.6741
   53MOL    H92 7476   5.188   3.765   5.014 -2.4701  0.3980  1.6813
   53MOL    C93 7477   5.093   3.611   4.900 -0.1001  1.0114  0.4838
   53MOL    C94 7478   5.223   3.532   4.914 -0.5594 -0.2977 -0.6628
   53MOL    C95 7479   5.283   3.548   5.049  0.1383  0.2232  0.0738
   53MOL    N96 7480   5.325   3.552   5.157  0.1043 -0.8264 -0.4078
   53MOL    H97 7481   5.031   3.567   4.979 -0.1520 -0.4741 -0.3678
   53MOL    H98 7482   5.042   3.597   4.805 -0.4724  3.4531  0.2923
   53MOL    H99 7483   5.290   3.576   4.840 -2.4919  0.9418 -1.7221
   53MOL   C100 7484   5.204   3.377   4.889 -0.2511 -0.1418  0.4087
   53MOL   C101 7485   5.334   3.283   4.899  0.0293  0.4203  0.4096
   53MOL   C102 7486   5.447   3.359   4.842  1.0189 -0.2831  0.0431
   53MOL   N103 7487   5.533   3.427   4.802 -0.1817  0.2918 -0.3300
   53MOL   H104 7488   5.128   3.328   4.950 -1.8604 -0.3064 -1.6518
   53MOL   H105 7489   5.162   3.364   4.789  0.1040 -0.9985  0.3658
   53MOL   H106 7490   5.308   3.198   4.835  0.1995 -0.1236  1.0584
   53MOL   C107 7491   5.367   3.222   5.031 -0.2705  0.8072 -0.1659
   53MOL   C108 7492   5.440   3.084   5.006  0.1931  0.2087 -0.0997
   53MOL   C109 7493   5.551   3.095   4.915  0.4892  0.7940 -0.3582
   53MOL   N110 7494   5.645   3.100   4.850 -0.6605  0.4864 -0.1097
   53MOL   H111 7495   5.432   3.295   5.078  0.1609  0.7241 -0.6216
   53MOL   H112 7496   5.279   3.209   5.093 -1.3359  1.8306 -1.4364
   53MOL   H113 7497   5.362   3.021   4.963  0.7301  0.1051 -0.9194
   53MOL   C114 7498   5.485   3.019   5.139 -0.1538  0.4130 -0.0534
   53MOL   C115 7499   5.519   2.870   5.155  0.0336  0.2263  0.1242
   53MOL   C116 7500   5.576   2.842   5.286  0.0116  0.3336 -0.2329
   53MOL   N117 7501   5.624   2.822   5.394 -0.5869  0.1412  0.1534
   53MOL   H118 7502   5.575   3.076   5.164 -0.8643  0.9019  1.4836
   53MOL   H119 7503   5.420   3.056   5.219  1.4638  1.6135  0.7179
   53MOL   H120 7504   5.605   2.839   5.096 -1.1545 -1.7867 -0.5772
   53MOL   C121 7505   5.409   2.764   5.129 -0.0698  0.1548  0.2640
   53MOL   C122 7506   5.282   2.778   5.218  0.6115  0.2408  0.1029
   53MOL   C123 7507   5.212   2.907   5.194  0.3097  0.5585  0.0339
   53MOL   N124 7508   5.150   3.007   5.174 -0.2500 -0.4878  1.0969
   53MOL   H125 7509   5.384   2.764   5.022  2.7751  0.3952 -0.4231
   53MOL   H126 7510   5.456   2.668   5.152 -0.4391 -0.1760 -0.3293
   53MOL   H127 7511   5.299   2.792   5.325 -1.4077 -2.6336  0.8438
   53MOL   C128 7512   5.192   2.652   5.202 -0.2512  0.8903 -0.5650
   53MOL   C129 7513   5.046   2.664   5.241  0.0710  0.3538 -0.2485
   53MOL   C130 7514   4.963   2.591   5.147  0.3911  0.3644  0.2649
   53MOL   N131 7515   4.900   2.527   5.072 -0.0889  0.2194 -0.0202
   53MOL   H132 7516   5.197   2.627   5.096  1.0149 -0.2266 -0.2511
   53MOL   H133 7517   5.238   2.565   5.249 -2.9459 -0.5754 -0.5210
   53MOL   H134 7518   5.022   2.770   5.232  3.5571  1.2774  0.5315
   53MOL   C135 7519   5.035   2.614   5.385  0.7209 -0.6668  0.2204
   53MOL   C136 7520   4.898   2.651   5.439  0.6496  0.4668 -0.8756
   53MOL   C137 7521   4.878   2.587   5.571 -0.3907  0.9635 -0.3712
   53MOL   N138 7522   4.853   2.532   5.670  0.3931 -0.1555  0.0593
   53MOL   H139 7523   5.033   2.506   5.376 -0.4630 -0.6064 -0.2934
   53MOL   H140 7524   5.112   2.649   5.453  1.6028 -0.4193 -0.8786
   53MOL   H141 7525   4.825   2.612   5.369  0.8083 -0.2410 -0.6497
   53MOL   H142 7526   4.885   2.759   5.439  1.1522  0.5470 -2.5781
   54MOL     C1 7527   1.047   4.207   1.241  0.5106 -0.0117 -0.0781
   54MOL     C2 7528   1.133   4.113   1.173 -0.9312 -0.1674  0.1262
   54MOL     C3 7529   1.254   4.183   1.121 -0.6390  0.4099 -0.4729
   54MOL     N4 7530   1.343   4.241   1.085  0.1400 -0.0020  0.5319
   54MOL     H5 7531   1.029   4.297   1.182 -1.2024  0.3551  0.9434
   54MOL     H6 7532   1.080   4.231   1.342 -0.9222 -0.2107  0.4574
   54MOL     H7 7533   1.079   4.069   1.088  1.3449 -2.4551 -0.1957
   54MOL     H8 7534   0.949   4.162   1.259  1.4948 -1.0447  3.0200
   54MOL     C9 7535   1.168   3.994   1.260 -0.5100 -0.4210  0.3939
   54MOL    C10 7536   1.194   3.864   1.188  0.5091 -0.2783 -0.0429
   54MOL    C11 7537   1.308   3.882   1.092 -0.2515  0.2010 -0.1597
   54MOL    N12 7538   1.398   3.908   1.022  0.0681 -0.2322  0.4030
   54MOL    H13 7539   1.261   4.010   1.314 -1.3249 -0.5602  1.8772
   54MOL    H14 7540   1.094   3.967   1.336 -0.1734  0.0030  0.8803
   54MOL    H15 7541   1.102   3.846   1.133 -0.4971  0.9460  1.2156
   54MOL    C16 7542   1.208   3.751   1.296  0.2549  0.2654 -0.1929
   54MOL    C17 7543   1.235   3.617   1.232 -0.5384 -0.0441  0.8841
   54MOL    C18 7544   1.381   3.607   1.208 -0.6435 -0.3106 -0.0742
   54MOL    N19 7545   1.495   3.604   1.189  0.5866 -0.2769 -0.7497
   54MOL    H20 7546   1.282   3.776   1.372  0.7578 -2.7323  0.3967
   54MOL    H21 7547   1.117   3.746   1.355 -0.6082 -0.0860 -1.5338
   54MOL    H22 7548   1.191   3.609   1.133  0.0699  1.3187  0.4961
   54MOL    C23 7549   1.186   3.498   1.312  0.1798 -0.2796 -0.1245
   54MOL    C24 7550   1.284   3.436   1.401 -0.6468 -0.3992 -1.3648
   54MOL    C25 7551   1.330   3.537   1.493  0.3707  0.1059 -0.1400
   54MOL    N26 7552   1.370   3.621   1.563  0.1533 -0.1062  0.1803
   54MOL    H27 7553   1.094   3.521   1.366  1.1270 -0.2266  1.4772
   54MOL    H28 7554   1.151   3.423   1.240 -0.5567  1.6995 -1.8772
   54MOL    H29 7555   1.363   3.410   1.331 -0.6299  0.0291 -1.5054
   54MOL    C30 7556   1.212   3.316   1.483  0.4717 -0.1102 -0.4560
   54MOL    C31 7557   1.312   3.232   1.556 -0.0494 -0.0811  0.2656
   54MOL    C32 7558   1.388   3.310   1.654 -0.5278  0.4061 -0.1134
   54MOL    N33 7559   1.449   3.371   1.730  0.2247  0.1034  0.0463
   54MOL    H34 7560   1.134   3.355   1.548  1.7195 -0.0391  1.0176
   54MOL    H35 7561   1.151   3.250   1.422  1.7244 -0.5034 -1.3067
   54MOL    H36 7562   1.379   3.210   1.473  0.3150 -1.1648  0.8478
   54MOL    C37 7563   1.237   3.113   1.621 -0.2163  1.2385  0.2471
   54MOL    C38 7564   1.331   3.032   1.715 -0.0392 -0.1714 -0.5230
   54MOL    C39 7565   1.319   3.087   1.849  1.0194 -0.9203 -0.6179
   54MOL    N40 7566   1.304   3.122   1.959  0.1608  0.2092 -0.3512
   54MOL    H41 7567   1.155   3.150   1.684 -3.3353 -0.6979 -2.5089
   54MOL    H42 7568   1.190   3.052   1.544  2.3157  0.8037 -0.9920
   54MOL    H43 7569   1.437   3.043   1.688 -0.1008  2.8504  0.3050
   54MOL    C44 7570   1.294   2.884   1.703  0.1846  0.3088 -0.7793
   54MOL    C45 7571   1.175   2.832   1.788  0.4030 -0.0341 -0.5369
   54MOL    C46 7572   1.062   2.888   1.714  0.8648  0.4002  0.0655
   54MOL    N47 7573   0.975   2.934   1.655  1.3851  0.0886  0.9091
   54MOL    H48 7574   1.284   2.851   1.599 -2.8912 -0.7902 -0.1770
   54MOL    H49 7575   1.385   2.837   1.742 -0.1575  0.5799  0.3698
   54MOL    H50 7576   1.169   2.878   1.886 -2.1388  0.8724 -1.0826
   54MOL    C51 7577   1.188   2.677   1.806  1.2802  0.7364  0.2844
   54MOL    C52 7578   1.068   2.614   1.892 -0.0920 -0.7585 -0.4447
   54MOL    C53 7579   0.933   2.612   1.822  0.0387  0.8145 -0.0550
   54MOL    N54 7580   0.829   2.614   1.770  0.7944 -0.1455  0.3850
   54MOL    H55 7581   1.209   2.633   1.708 -1.1783  2.5243 -1.1185
   54MOL    H56 7582   1.282   2.666   1.859 -0.2630  0.9242  3.1944
   54MOL    H57 7583   1.046   2.683   1.973  4.1690  0.1627  0.0324
   54MOL    C58 7584   1.109   2.484   1.965 -0.0504 -0.2649  0.8261
   54MOL    C59 7585   1.055   2.354   1.878 -0.4582  0.1472  0.5167
   54MOL    C60 7586   0.919   2.328   1.910  0.1868 -0.5184  0.5296
   54MOL    N61 7587   0.806   2.308   1.931 -0.2435 -0.1607 -0.5363
   54MOL    H62 7588   1.214   2.486   1.990 -0.3237 -0.4872  2.0093
   54MOL    H63 7589   1.053   2.480   2.058 -1.6699 -2.3217 -0.1768
   54MOL    H64 7590   1.095   2.264   1.926 -0.5319 -1.4295 -2.2588
   54MOL    C65 7591   1.103   2.354   1.732 -0.1066  0.2717 -0.9863
   54MOL    C66 7592   1.046   2.245   1.647  0.1065  0.0994  0.1713
   54MOL    C67 7593   1.047   2.109   1.709 -0.0508 -0.1849  0.7833
   54MOL    N68 7594   1.045   2.003   1.758  0.5197 -0.6325  0.7053
   54MOL    H69 7595   1.088   2.447   1.677 -0.9682  0.5230 -0.3400
   54MOL    H70 7596   1.211   2.343   1.732 -0.1202 -0.2253  1.7724
   54MOL    H71 7597   1.127   2.231   1.575 -1.2191 -0.1600 -1.3065
   54MOL    C72 7598   0.913   2.280   1.580  0.0275 -0.3603  0.6082
   54MOL    C73 7599   0.873   2.183   1.468 -0.0782  0.1966 -0.2966
   54MOL    C74 7600   0.828   2.056   1.526  0.2147  0.4324  0.0329
   54MOL    N75 7601   0.793   1.960   1.572 -0.1021 -0.0356 -0.1627
   54MOL    H76 7602   0.832   2.280   1.653  0.4632 -0.4454  1.0883
   54MOL    H77 7603   0.910   2.384   1.547 -0.6026 -0.0554  1.5960
   54MOL    H78 7604   0.957   2.164   1.401 -1.9817  0.8947 -2.9198
   54MOL    C79 7605   0.772   2.248   1.371  0.2790  0.1992  0.1494
   54MOL    C80 7606   0.692   2.156   1.276 -0.1375  0.6741 -0.4500
   54MOL    C81 7607   0.789   2.048   1.240  0.2082 -0.0084 -0.8736
   54MOL    N82 7608   0.863   1.965   1.214 -0.2113 -0.1079  0.6708
   54MOL    H83 7609   0.699   2.312   1.420  1.3603 -0.2279  2.3973
   54MOL    H84 7610   0.834   2.320   1.318  1.8195  0.8441  2.7606
   54MOL    H85 7611   0.679   2.204   1.180  1.8703  2.5080  0.1603
   54MOL    C86 7612   0.556   2.110   1.340  0.0771  0.3661  0.0512
   54MOL    C87 7613   0.455   2.040   1.238 -0.7822  0.0368 -0.0766
   54MOL    C88 7614   0.477   2.108   1.109  0.1045  0.5789 -0.0549
   54MOL    N89 7615   0.492   2.154   1.004  0.1367 -0.2307  0.4195
   54MOL    H90 7616   0.562   2.043   1.426 -1.7027 -1.3958 -1.1672
   54MOL    H91 7617   0.511   2.199   1.384  1.7154  0.9708  0.5677
   54MOL    H92 7618   0.358   2.066   1.281 -0.7780  0.9524 -0.6345
   54MOL    C93 7619   0.478   1.889   1.229  0.2075  0.3041  0.0052
   54MOL    C94 7620   0.373   1.808   1.150 -0.1043  0.4109  0.3836
   54MOL    C95 7621   0.241   1.843   1.202 -0.1975  0.2897  0.2385
   54MOL    N96 7622   0.140   1.871   1.246  0.6564 -0.8541 -0.0988
   54MOL    H97 7623   0.577   1.861   1.195 -0.1812  0.3427 -1.1795
   54MOL    H98 7624   0.469   1.861   1.334  0.6459  1.1651  0.2770
   54MOL    H99 7625   0.374   1.702   1.178 -0.6814  0.8000  1.8813
   54MOL   C100 7626   0.378   1.824   0.996 -0.5681 -0.1834  0.5194
   54MOL   C101 7627   0.308   1.717   0.913  0.1454  0.1311 -0.0794
   54MOL   C102 7628   0.165   1.684   0.950 -1.3847 -0.8542  0.0358
   54MOL   N103 7629   0.054   1.671   0.981 -0.1100 -0.7828  0.1128
   54MOL   H104 7630   0.340   1.925   0.983  1.2335  0.3992 -0.4901
   54MOL   H105 7631   0.485   1.837   0.976 -0.6686  1.4555  0.9923
   54MOL   H106 7632   0.354   1.621   0.936  0.1876  0.1795  0.0375
   54MOL   C107 7633   0.328   1.751   0.760  0.2681 -0.0952  0.2961
   54MOL   C108 7634   0.232   1.854   0.687  0.4813  0.1266 -0.2066
   54MOL   C109 7635   0.187   1.977   0.765 -0.3904 -0.0667 -0.3400
   54MOL   N110 7636   0.152   2.071   0.827 -0.5467 -0.4466  0.6772
   54MOL   H111 7637   0.429   1.784   0.736  0.2547 -0.0095  0.3610
   54MOL   H112 7638   0.324   1.663   0.695 -1.2171 -0.9826  1.5706
   54MOL   H113 7639   0.133   1.807   0.682  0.1262  0.6712  1.2095
   54MOL   C114 7640   0.268   1.889   0.541  0.4494 -0.1727  0.0632
   54MOL   C115 7641   0.343   2.025   0.527  0.4193 -0.0953 -0.3575
   54MOL   C116 7642   0.456   2.023   0.619 -0.5770  0.0168  0.2533
   54MOL   N117 7643   0.551   2.014   0.693  0.0812  0.5952 -0.4735
   54MOL   H118 7644   0.307   1.801   0.490 -2.1801 -1.1851 -0.2716
   54MOL   H119 7645   0.177   1.906   0.484  1.4521  2.1698 -0.9277
   54MOL   H120 7646   0.272   2.094   0.571  1.8969  2.1862 -1.4618
   54MOL   C121 7647   0.368   2.066   0.375  0.4215  0.1264 -0.1467
   54MOL   C122 7648   0.476   1.976   0.303  0.2477 -1.1221 -0.3267
   54MOL   C123 7649   0.410   1.851   0.251  0.0294  0.0102  0.6357
   54MOL   N124 7650   0.361   1.755   0.209  0.0811 -0.0759 -0.0454
   54MOL   H125 7651   0.272   2.050   0.325  0.3904 -0.8632  0.2264
   54MOL   H126 7652   0.403   2.170   0.375 -5.4182  2.3016 -0.5970
   54MOL   H127 7653   0.560   1.956   0.370  1.4819 -0.0969 -1.5323
   54MOL   C128 7654   0.543   2.044   0.176  0.6321  0.9074 -0.9592
   54MOL   C129 7655   0.664   2.127   0.204  0.3580 -0.7113 -0.1522
   54MOL   C130 7656   0.625   2.248   0.281  0.2362  0.6789 -0.5818
   54MOL   N131 7657   0.593   2.343   0.333 -0.7729 -0.1446 -0.9534
   54MOL   H132 7658   0.570   1.957   0.116  1.2204  1.2669 -1.2126
   54MOL   H133 7659   0.476   2.106   0.115 -0.0415 -0.1707 -1.3342
   54MOL   H134 7660   0.699   2.164   0.107 -0.0450 -1.3717 -0.5560
   54MOL   C135 7661   0.786   2.059   0.266 -0.7340  0.2633 -0.0523
   54MOL   C136 7662   0.910   2.154   0.276  0.7882 -1.3992  0.4833
   54MOL   C137 7663   0.964   2.210   0.146 -0.0247 -0.1931  0.4524
   54MOL   N138 7664   1.002   2.253   0.044 -0.7981  0.2513 -0.1646
   54MOL   H139 7665   0.771   2.014   0.364  0.0993 -0.4711 -0.2536
   54MOL   H140 7666   0.817   1.967   0.215  1.0113  0.0209  1.4052
   54MOL   H141 7667   0.988   2.098   0.327  0.2724 -0.3870  2.4149
   54MOL   H142 7668   0.879   2.241   0.334 -2.7567 -0.5521 -2.4511
   55MOL     C1 7669   0.355   4.861   3.609 -0.2217  0.7769  0.2379
   55MOL     C2 7670   0.434   4.980   3.658 -0.3259  0.1667  0.1912
   55MOL     C3 7671   0.532   5.024   3.558 -0.4381 -0.1593 -0.4091
   55MOL     N4 7672   0.606   5.059   3.474 -1.0268  0.5013 -0.6610
   55MOL     H5 7673   0.319   4.794   3.688  1.0931 -0.4920 -0.2090
   55MOL     H6 7674   0.423   4.800   3.548 -0.3451  0.7594  0.1175
   55MOL     H7 7675   0.489   4.934   3.740  0.2045  0.0727 -0.2149
   55MOL     H8 7676   0.269   4.878   3.544 -0.5725 -0.4985  0.3560
   55MOL     C9 7677   0.361   5.111   3.697  0.2455  0.3852 -0.4275
   55MOL    C10 7678   0.241   5.098   3.790  0.2785 -0.1252  0.1257
   55MOL    C11 7679   0.124   5.019   3.730 -0.2440 -0.2739  0.0299
   55MOL    N12 7680   0.036   4.959   3.684 -0.2252  0.5182 -0.6604
   55MOL    H13 7681   0.426   5.187   3.742  0.9520 -0.5913  0.2269
   55MOL    H14 7682   0.329   5.163   3.607 -1.6195 -0.0846 -0.0507
   55MOL    H15 7683   0.200   5.198   3.802 -0.0006 -0.1294 -0.7856
   55MOL    C16 7684   0.266   5.040   3.933  0.8310  0.4120 -0.0274
   55MOL    C17 7685   0.370   5.115   4.010  0.0764 -0.2422 -0.3353
   55MOL    C18 7686   0.338   5.259   4.013  0.1023  0.4278 -0.4091
   55MOL    N19 7687   0.314   5.370   4.017  0.1856 -0.1706  0.5304
   55MOL    H20 7688   0.170   5.043   3.986  1.3153 -0.1960  0.8984
   55MOL    H21 7689   0.283   4.933   3.924  1.9757  0.7623 -2.1910
   55MOL    H22 7690   0.457   5.094   3.948 -0.9036 -0.3951 -1.6906
   55MOL    C23 7691   0.383   5.058   4.154  0.5518  0.2342  0.1984
   55MOL    C24 7692   0.505   5.097   4.229  0.1989 -0.8243 -0.6572
   55MOL    C25 7693   0.627   5.058   4.161 -0.1716  0.1092 -0.1609
   55MOL    N26 7694   0.724   5.036   4.107  0.3507  0.2729 -0.4043
   55MOL    H27 7695   0.293   5.089   4.207  0.7040  0.4356  0.3418
   55MOL    H28 7696   0.379   4.950   4.147  2.6921  0.1422  0.1669
   55MOL    H29 7697   0.498   5.023   4.309 -1.7989  0.7029  0.6418
   55MOL    C30 7698   0.507   5.241   4.297 -0.0436  0.1573 -0.5908
   55MOL    C31 7699   0.604   5.347   4.256 -0.0965 -0.9111 -0.4159
   55MOL    C32 7700   0.641   5.351   4.112  0.5172  1.0053  0.5237
   55MOL    N33 7701   0.660   5.356   3.995 -0.1688 -0.6535 -0.0628
   55MOL    H34 7702   0.405   5.278   4.288 -0.2708 -0.2771  0.1349
   55MOL    H35 7703   0.520   5.224   4.404  0.5687  1.9787 -0.3716
   55MOL    H36 7704   0.704   5.320   4.291  0.4763  1.7324  0.0847
   55MOL    C37 7705   0.559   5.486   4.315  0.7587 -0.3491  0.2722
   55MOL    C38 7706   0.656   5.605   4.300  0.5393 -0.1597  0.8527
   55MOL    C39 7707   0.575   5.730   4.302  0.5514 -0.8327 -0.0221
   55MOL    N40 7708   0.513   5.830   4.305  0.1867  0.3435 -0.3524
   55MOL    H41 7709   0.471   5.509   4.254 -0.1804 -0.8344  1.4259
   55MOL    H42 7710   0.515   5.480   4.414  1.0145 -0.6896  0.3658
   55MOL    H43 7711   0.704   5.592   4.203 -0.2554 -1.3201  0.6029
   55MOL    C44 7712   0.749   5.595   4.418  0.1310  0.6052 -0.5929
   55MOL    C45 7713   0.859   5.696   4.417  0.2709 -0.0369 -0.2091
   55MOL    C46 7714   0.815   5.830   4.455 -0.0629  0.0551  0.3252
   55MOL    N47 7715   0.787   5.934   4.487  0.6014 -0.0910  0.2344
   55MOL    H48 7716   0.696   5.592   4.513 -0.7570 -1.1748 -1.1323
   55MOL    H49 7717   0.797   5.497   4.418  0.1788  0.6254 -1.2971
   55MOL    H50 7718   0.890   5.695   4.313  0.1655 -1.9968 -0.2296
   55MOL    C51 7719   0.969   5.644   4.515 -0.5512 -0.0237  0.3955
   55MOL    C52 7720   1.103   5.726   4.517 -0.2043 -0.5955  0.8341
   55MOL    C53 7721   1.216   5.654   4.586  0.1872 -0.1398  0.1625
   55MOL    N54 7722   1.299   5.596   4.644  0.0615 -0.4281 -0.2389
   55MOL    H55 7723   0.926   5.637   4.615  0.4593  1.9970  0.9764
   55MOL    H56 7724   0.991   5.545   4.473  1.2232 -0.0403  1.3201
   55MOL    H57 7725   1.092   5.813   4.581 -2.1604 -0.1468 -0.0730
   55MOL    C58 7726   1.144   5.767   4.374  0.3652 -0.0372  0.1208
   55MOL    C59 7727   1.268   5.852   4.354  0.6208  0.4005 -0.4647
   55MOL    C60 7728   1.294   5.957   4.462  0.5765  0.5378 -0.0796
   55MOL    N61 7729   1.312   6.038   4.548  0.1356  0.4798  0.5405
   55MOL    H62 7730   1.133   5.683   4.305 -0.3150  0.2923 -0.1823
   55MOL    H63 7731   1.067   5.835   4.337  0.6794  0.7331  0.8681
   55MOL    H64 7732   1.245   5.906   4.263 -1.7195  0.6299  0.2394
   55MOL    C65 7733   1.390   5.761   4.322 -0.4365  0.0212  0.1236
   55MOL    C66 7734   1.437   5.763   4.181 -0.0156 -0.1380  0.3458
   55MOL    C67 7735   1.451   5.901   4.138 -0.3577 -0.4136  0.4409
   55MOL    N68 7736   1.468   6.011   4.111 -0.3202 -0.1413  0.5298
   55MOL    H69 7737   1.479   5.789   4.378 -0.7553  1.3614 -0.0225
   55MOL    H70 7738   1.372   5.662   4.364  1.1441 -0.5455 -0.4952
   55MOL    H71 7739   1.358   5.719   4.121  0.8146  1.1403 -1.7184
   55MOL    C72 7740   1.570   5.687   4.158  0.6524 -0.2190 -0.1971
   55MOL    C73 7741   1.556   5.540   4.178  0.2950  0.3212  0.4282
   55MOL    C74 7742   1.447   5.477   4.095 -0.6575  0.1324  0.6291
   55MOL    N75 7743   1.367   5.424   4.035 -0.3468  0.2241 -0.2386
   55MOL    H76 7744   1.600   5.720   4.059  1.0344  2.6896  0.8402
   55MOL    H77 7745   1.647   5.725   4.226 -1.7320  1.5632  1.6075
   55MOL    H78 7746   1.521   5.535   4.281 -2.3396  0.8446 -0.3975
   55MOL    C79 7747   1.693   5.468   4.154 -0.6910  0.1581  0.0820
   55MOL    C80 7748   1.803   5.478   4.265  0.0194 -0.3770  0.0246
   55MOL    C81 7749   1.752   5.451   4.396  0.4998  0.1057  0.3905
   55MOL    N82 7750   1.711   5.431   4.504 -0.5813  0.2294 -0.1788
   55MOL    H83 7751   1.672   5.364   4.129  0.7868 -0.1121 -0.1081
   55MOL    H84 7752   1.749   5.499   4.066 -0.5249  0.4386  0.2842
   55MOL    H85 7753   1.823   5.585   4.277 -0.0603 -0.2637 -0.8559
   55MOL    C86 7754   1.936   5.410   4.231 -0.1578 -0.0945 -0.4831
   55MOL    C87 7755   2.020   5.491   4.128  0.4407 -0.2465  0.5119
   55MOL    C88 7756   2.078   5.610   4.193 -0.9990 -0.0840 -0.0698
   55MOL    N89 7757   2.117   5.705   4.246  0.1225 -0.2322 -0.0455
   55MOL    H90 7758   1.979   5.393   4.329  1.1590  0.3053 -0.9765
   55MOL    H91 7759   1.914   5.309   4.196  0.5813 -0.3114 -0.3284
   55MOL    H92 7760   1.961   5.525   4.043  1.6835 -0.7514 -0.5753
   55MOL    C93 7761   2.134   5.406   4.071 -0.0386  0.6077 -0.4311
   55MOL    C94 7762   2.083   5.307   3.969 -0.7712  0.9233 -0.1466
   55MOL    C95 7763   2.061   5.369   3.835 -0.5012  0.2014  0.4934
   55MOL    N96 7764   2.039   5.418   3.730  0.3479 -0.2349 -0.1786
   55MOL    H97 7765   2.213   5.469   4.030  0.2606  0.0994 -0.6366
   55MOL    H98 7766   2.172   5.349   4.156 -2.9613 -0.4105  0.2616
   55MOL    H99 7767   1.985   5.272   3.999 -0.1363 -0.1026  0.7783
   55MOL   C100 7768   2.173   5.183   3.963  0.5446 -0.5808 -0.3607
   55MOL   C101 7769   2.138   5.076   3.857 -0.5901  0.2137 -0.5838
   55MOL   C102 7770   2.257   4.992   3.838 -0.2768  1.1741 -0.6788
   55MOL   N103 7771   2.348   4.919   3.828  1.0482 -0.4958 -0.1873
   55MOL   H104 7772   2.277   5.216   3.952 -0.0468  1.4208 -0.2668
   55MOL   H105 7773   2.170   5.134   4.061 -1.6211  0.8520  0.3452
   55MOL   H106 7774   2.131   5.134   3.765 -0.7833 -0.5371 -1.0440
   55MOL   C107 7775   2.017   4.995   3.889  0.6188 -0.2881 -0.3077
   55MOL   C108 7776   1.965   4.900   3.784  1.1081  0.0982  0.0658
   55MOL   C109 7777   1.858   4.814   3.837  0.5379 -0.2406 -0.0735
   55MOL   N110 7778   1.770   4.752   3.877 -0.7121 -0.7069  0.2026
   55MOL   H111 7779   2.046   4.942   3.980  1.0997 -2.0979 -1.4977
   55MOL   H112 7780   1.931   5.057   3.916  1.6441 -0.3055  3.2774
   55MOL   H113 7781   2.047   4.835   3.755  2.7141  1.8590  0.6142
   55MOL   C114 7782   1.901   4.990   3.668 -0.1283  0.2833 -0.6118
   55MOL   C115 7783   1.980   5.004   3.536  0.1995 -0.0049 -0.5119
   55MOL   C116 7784   2.022   4.875   3.499 -0.3200 -0.1152 -0.1072
   55MOL   N117 7785   2.051   4.764   3.469  0.0490 -0.1255  0.4140
   55MOL   H118 7786   1.795   4.972   3.655 -0.3403 -0.0053  1.3023
   55MOL   H119 7787   1.885   5.090   3.709 -0.0499  0.1288 -0.2033
   55MOL   H120 7788   2.063   5.074   3.551 -2.3739  2.6319  2.1297
   55MOL   C121 7789   1.887   5.063   3.424  0.2015  0.0394 -0.4643
   55MOL   C122 7790   1.962   5.075   3.287 -0.0973 -0.1469 -0.3092
   55MOL   C123 7791   1.851   5.086   3.188  0.3882 -0.8471  0.3004
   55MOL   N124 7792   1.765   5.094   3.115 -0.3987  0.1074 -0.8299
   55MOL   H125 7793   1.799   5.000   3.418  0.4287 -0.3097 -0.1730
   55MOL   H126 7794   1.862   5.166   3.449  0.6488  0.1337 -0.3871
   55MOL   H127 7795   2.015   4.983   3.262  0.9218  0.1179  0.8252
   55MOL   C128 7796   2.053   5.194   3.277 -0.8418 -0.7994  0.6661
   55MOL   C129 7797   2.191   5.175   3.203 -0.1070  0.5136 -0.0977
   55MOL   C130 7798   2.176   5.133   3.063 -0.2617  0.9952  0.4875
   55MOL   N131 7799   2.172   5.095   2.952  0.1565 -0.2428  0.4800
   55MOL   H132 7800   2.009   5.278   3.222  2.0038 -0.7206 -1.6240
   55MOL   H133 7801   2.073   5.232   3.377 -1.1545  0.7055  0.1856
   55MOL   H134 7802   2.240   5.096   3.260 -1.1220 -0.8569 -1.0842
   55MOL   C135 7803   2.284   5.295   3.203  0.0366  0.3434 -0.1363
   55MOL   C136 7804   2.426   5.261   3.178  0.4577  0.2763 -0.1915
   55MOL   C137 7805   2.524   5.371   3.186 -0.1441  0.3931  0.8545
   55MOL   N138 7806   2.598   5.460   3.197 -0.0210 -0.4153  0.5596
   55MOL   H139 7807   2.245   5.376   3.141  1.6214  2.2159  1.2479
   55MOL   H140 7808   2.283   5.340   3.303 -0.2144  2.3394 -1.0051
   55MOL   H141 7809   2.430   5.229   3.074  0.6994 -1.4613  0.3202
   55MOL   H142 7810   2.466   5.182   3.243  0.8837  0.1985 -0.5404
   56MOL     C1 7811   5.015   1.508   0.895 -0.4177  0.8102 -0.2983
   56MOL     C2 7812   4.985   1.382   0.808  0.1038  0.6003  0.6747
   56MOL     C3 7813   5.101   1.350   0.722  0.4903  0.2946 -0.6634
   56MOL     N4 7814   5.194   1.328   0.663  0.1984  0.2471  0.0950
   56MOL     H5 7815   4.921   1.539   0.941 -0.3057  0.0510  0.4694
   56MOL     H6 7816   5.056   1.590   0.837 -1.0870  0.5795 -1.1117
   56MOL     H7 7817   4.902   1.391   0.738  1.2749  1.2873 -0.6728
   56MOL     H8 7818   5.093   1.475   0.964  0.4492  0.3999 -1.4707
   56MOL     C9 7819   4.954   1.256   0.909  0.1604 -0.2983  0.4393
   56MOL    C10 7820   4.825   1.261   0.993 -0.1143 -0.3641 -0.3342
   56MOL    C11 7821   4.711   1.276   0.904  0.1756 -0.1370  0.6347
   56MOL    N12 7822   4.625   1.287   0.834 -0.8790  0.4710  0.3788
   56MOL    H13 7823   4.979   1.166   0.852 -1.1607  0.2784 -1.0781
   56MOL    H14 7824   5.029   1.277   0.986 -0.8246  0.5794  1.1695
   56MOL    H15 7825   4.822   1.343   1.064  0.1448  0.0249 -0.7693
   56MOL    C16 7826   4.814   1.137   1.085 -0.0134 -0.3477  0.6187
   56MOL    C17 7827   4.897   1.129   1.210  0.5018  0.4136  0.2264
   56MOL    C18 7828   4.889   1.240   1.302  0.1849 -0.2369  0.7676
   56MOL    N19 7829   4.892   1.328   1.374  0.3575 -0.2191  0.4867
   56MOL    H20 7830   4.714   1.135   1.129  0.2367 -0.3942  1.1954
   56MOL    H21 7831   4.810   1.047   1.024  1.2549  0.2502 -0.3554
   56MOL    H22 7832   5.002   1.130   1.182 -0.3631  1.5249 -3.2581
   56MOL    C23 7833   4.890   0.998   1.286 -0.6410 -0.1963  0.0749
   56MOL    C24 7834   4.969   1.011   1.425  0.4965  0.2406 -0.6605
   56MOL    C25 7835   4.945   0.888   1.504  0.0368  0.5672 -0.0164
   56MOL    N26 7836   4.928   0.795   1.570 -0.2479 -0.2300  0.4250
   56MOL    H27 7837   4.785   0.973   1.300 -0.0761 -2.8935 -0.2192
   56MOL    H28 7838   4.925   0.915   1.224 -2.4261 -0.6156 -0.4239
   56MOL    H29 7839   4.924   1.086   1.489 -1.0048  1.0500 -2.6195
   56MOL    C30 7840   5.120   1.039   1.404 -0.2032 -0.2909 -0.7030
   56MOL    C31 7841   5.195   1.041   1.548  0.1728 -0.2582  0.6186
   56MOL    C32 7842   5.297   0.938   1.545 -0.3382 -0.0149 -0.0705
   56MOL    N33 7843   5.379   0.855   1.543 -0.2541  0.8019  0.0257
   56MOL    H34 7844   5.156   0.954   1.346  0.1949 -0.3641 -0.3455
   56MOL    H35 7845   5.140   1.128   1.344 -1.6313 -0.0581 -0.8585
   56MOL    H36 7846   5.128   1.010   1.628 -1.0292 -1.9131 -0.9959
   56MOL    C37 7847   5.259   1.174   1.570  0.1234  0.2837 -0.1281
   56MOL    C38 7848   5.336   1.190   1.699  0.2492 -0.1278  0.3637
   56MOL    C39 7849   5.469   1.119   1.685  0.9296  0.0331 -0.3049
   56MOL    N40 7850   5.567   1.062   1.676 -0.0223  0.4919  0.0025
   56MOL    H41 7851   5.317   1.208   1.484  0.8494  1.8347  0.9572
   56MOL    H42 7852   5.175   1.243   1.570  0.2263  0.4523 -2.0143
   56MOL    H43 7853   5.280   1.138   1.777 -0.3833  0.6744  0.4547
   56MOL    C44 7854   5.343   1.335   1.749  0.1782  0.4476 -0.1893
   56MOL    C45 7855   5.446   1.378   1.856 -0.7504 -0.3216  0.0180
   56MOL    C46 7856   5.468   1.280   1.965  0.0123 -0.2098  0.1082
   56MOL    N47 7857   5.489   1.192   2.042 -0.8798  0.1935 -0.1034
   56MOL    H48 7858   5.357   1.399   1.662  2.4835  1.8490  1.1682
   56MOL    H49 7859   5.244   1.346   1.795 -0.9595  2.5616 -2.9829
   56MOL    H50 7860   5.395   1.465   1.896  0.2321  0.0991  0.3700
   56MOL    C51 7861   5.583   1.426   1.793 -0.4352  0.7680  0.1079
   56MOL    C52 7862   5.619   1.578   1.794 -0.0536 -0.3215 -0.3627
   56MOL    C53 7863   5.601   1.636   1.928 -0.2693  0.1662  0.2377
   56MOL    N54 7864   5.590   1.681   2.036 -0.0094  0.0253 -0.5893
   56MOL    H55 7865   5.667   1.384   1.847 -0.6135 -0.9357 -0.8975
   56MOL    H56 7866   5.591   1.392   1.689  0.6124  0.9482  0.1258
   56MOL    H57 7867   5.543   1.629   1.735 -0.5923 -0.4854  0.1834
   56MOL    C58 7868   5.756   1.616   1.729 -0.2417  0.1636 -0.2749
   56MOL    C59 7869   5.786   1.762   1.730 -0.1797  0.4468  0.6285
   56MOL    C60 7870   5.934   1.771   1.716  0.3051 -0.1056  0.5192
   56MOL    N61 7871   6.048   1.785   1.707  0.8079 -0.0712 -0.3233
   56MOL    H62 7872   5.843   1.567   1.773 -0.3630  0.5073  0.3417
   56MOL    H63 7873   5.756   1.578   1.627  1.5131  3.3268 -1.5334
   56MOL    H64 7874   5.764   1.813   1.823  0.5287 -1.2407  1.7410
   56MOL    C65 7875   5.711   1.846   1.615  0.1444  0.3278  0.0650
   56MOL    C66 7876   5.704   1.773   1.480 -0.6538 -0.8670  0.1912
   56MOL    C67 7877   5.579   1.690   1.482  0.5506  0.3397 -0.3319
   56MOL    N68 7878   5.482   1.623   1.476 -0.3517  0.3005 -0.1852
   56MOL    H69 7879   5.607   1.870   1.636  0.3239  0.4771  0.8197
   56MOL    H70 7880   5.772   1.936   1.611  0.8690 -0.1280  0.5802
   56MOL    H71 7881   5.797   1.719   1.468 -0.2902  0.1065 -1.5672
   56MOL    C72 7882   5.697   1.854   1.350  0.5906  0.1039  0.0484
   56MOL    C73 7883   5.835   1.921   1.316 -0.1654 -0.2494 -0.4974
   56MOL    C74 7884   5.951   1.827   1.313 -0.7897  0.5413  0.3411
   56MOL    N75 7885   6.044   1.755   1.308 -0.1473 -0.5094 -0.5389
   56MOL    H76 7886   5.663   1.791   1.268 -0.0373  0.2221  0.2171
   56MOL    H77 7887   5.619   1.929   1.362 -0.6469 -1.2826  0.8062
   56MOL    H78 7888   5.860   1.986   1.400 -0.9248  1.3017 -1.4413
   56MOL    C79 7889   5.825   2.012   1.192  0.3008 -0.4449  0.3457
   56MOL    C80 7890   5.706   2.097   1.167 -0.0879 -0.3911  0.2974
   56MOL    C81 7891   5.674   2.192   1.275 -0.3591 -0.2672 -0.0146
   56MOL    N82 7892   5.662   2.268   1.362  0.4776  0.2475  0.9480
   56MOL    H83 7893   5.920   2.066   1.188 -0.1674  0.4861  1.7720
   56MOL    H84 7894   5.826   1.942   1.108  0.8234  0.8026 -0.7130
   56MOL    H85 7895   5.631   2.018   1.170 -1.7261  1.1549  1.9294
   56MOL    C86 7896   5.699   2.150   1.020  0.5265 -0.5065 -0.2325
   56MOL    C87 7897   5.731   2.057   0.899  0.6330 -0.1755 -0.5923
   56MOL    C88 7898   5.659   1.933   0.908  0.3499  0.8340  0.7334
   56MOL    N89 7899   5.598   1.836   0.905 -0.8044  0.0086  0.0007
   56MOL    H90 7900   5.602   2.200   1.015 -1.2832 -3.8025  0.3894
   56MOL    H91 7901   5.763   2.238   1.013 -0.4192  0.1800 -0.3021
   56MOL    H92 7902   5.839   2.040   0.895  0.7371  0.4038 -0.4324
   56MOL    C93 7903   5.702   2.127   0.762 -0.1326  0.0899 -0.5700
   56MOL    C94 7904   5.750   2.275   0.744  0.0512  0.2838  0.4670
   56MOL    C95 7905   5.894   2.298   0.753  0.0744  0.9464 -0.0044
   56MOL    N96 7906   6.008   2.312   0.758  0.0873 -0.0678 -0.6561
   56MOL    H97 7907   5.745   2.069   0.680 -0.9069 -0.7049 -0.4306
   56MOL    H98 7908   5.593   2.117   0.755 -0.1480 -0.8122  0.7091
   56MOL    H99 7909   5.708   2.330   0.828 -1.0050 -2.3540  1.7091
   56MOL   C100 7910   5.685   2.332   0.619  0.3169 -0.6846 -0.4025
   56MOL   C101 7911   5.656   2.480   0.623 -0.1874 -0.4162  0.0352
   56MOL   C102 7912   5.749   2.552   0.715 -0.8363  0.0084 -0.3902
   56MOL   N103 7913   5.826   2.611   0.781 -0.5385  0.0492 -0.6748
   56MOL   H104 7914   5.739   2.298   0.530  0.9543 -1.9640  0.4577
   56MOL   H105 7915   5.594   2.276   0.597  0.1754  0.1786 -2.1335
   56MOL   H106 7916   5.558   2.477   0.669  0.6202  1.4252  1.9774
   56MOL   C107 7917   5.648   2.547   0.486 -0.0964  0.2377  0.2235
   56MOL   C108 7918   5.774   2.567   0.402 -0.1490  0.1589 -0.1962
   56MOL   C109 7919   5.879   2.459   0.413 -0.2437  0.1159 -0.4306
   56MOL   N110 7920   5.959   2.377   0.413 -0.1635 -0.4466  0.3041
   56MOL   H111 7921   5.575   2.494   0.424  0.0583 -1.4246  1.4230
   56MOL   H112 7922   5.605   2.646   0.500  0.1682  0.4390 -0.3705
   56MOL   H113 7923   5.825   2.655   0.442  2.4916 -0.6155 -1.7120
   56MOL   C114 7924   5.748   2.619   0.254 -0.0906 -0.5539  0.5004
   56MOL   C115 7925   5.730   2.507   0.162  0.6845  0.1859  0.9039
   56MOL   C116 7926   5.620   2.416   0.196  0.2964 -0.2372  0.1585
   56MOL   N117 7927   5.543   2.341   0.233  0.6936 -0.4356  0.0126
   56MOL   H118 7928   5.657   2.679   0.255  0.2945  0.0360  0.5358
   56MOL   H119 7929   5.821   2.684   0.206 -2.7083  1.2513 -1.1400
   56MOL   H120 7930   5.828   2.458   0.161  1.5120  1.8129 -0.4340
   56MOL   C121 7931   5.711   2.557   0.020  0.0537  0.5817 -0.6326
   56MOL   C122 7932   5.658   2.459   8.231 -0.0077 -0.8972 -0.8373
   56MOL   C123 7933   5.726   2.327   8.242  0.4167 -0.2895  0.5412
   56MOL   N124 7934   5.780   2.223   8.253 -0.0827  0.0211 -0.5405
   56MOL   H125 7935   5.638   2.636   0.040 -0.9116 -1.1759  3.1552
   56MOL   H126 7936   5.805   2.597   8.294 -0.6755  1.6200 -1.3679
   56MOL   H127 7937   5.694   2.492   8.133 -3.1855  0.0870 -1.7593
   56MOL   C128 7938   5.504   2.447   8.218  0.0126  0.1479  0.4188
   56MOL   C129 7939   5.448   2.419   8.078  0.0002 -0.1353  0.0843
   56MOL   C130 7940   5.461   2.538   7.984 -0.0045  0.1047  0.1333
   56MOL   N131 7941   5.472   2.635   7.921  0.2871 -0.3419  0.1776
   56MOL   H132 7942   5.476   2.365   8.285  1.2214 -1.4250 -0.9617
   56MOL   H133 7943   5.460   2.535   8.266 -0.4983 -0.0997  0.4140
   56MOL   H134 7944   5.339   2.410   8.084 -0.1232  0.3247 -1.2495
   56MOL   C135 7945   5.492   2.282   8.035  0.8153  0.0644 -0.0872
   56MOL   C136 7946   5.395   2.232   7.940 -0.2403 -0.0225  0.5879
   56MOL   C137 7947   5.435   2.097   7.892  0.2595  0.0739 -0.5652
   56MOL   N138 7948   5.457   1.985   7.866  0.2134  0.4296  0.3935
   56MOL   H139 7949   5.582   2.286   7.973  1.6513 -0.6212  1.0551
   56MOL   H140 7950   5.501   2.204   8.111  3.2808 -1.2771 -1.6881
   56MOL   H141 7951   5.386   2.302   7.857 -0.8869 -1.0620 -0.2361
   56MOL   H142 7952   5.293   2.225   7.978 -0.4954  0.4935  0.0199
   57MOL     C1 7953   1.229   6.129   7.746 -0.2759 -0.4766 -0.2690
   57MOL     C2 7954   1.320   6.200   7.649  0.0277  0.5514  0.2520
   57MOL     C3 7955   1.430   6.269   7.730 -0.6794 -0.1912  0.2539
   57MOL     N4 7956   1.510   6.324   7.792 -0.0340  0.2764 -0.2854
   57MOL     H5 7957   1.127   6.126   7.708 -0.0771  1.5300 -1.0297
   57MOL     H6 7958   1.223   6.183   7.841 -0.3597 -1.7840  0.4808
   57MOL     H7 7959   1.276   6.279   7.588  1.0432  0.2137 -0.9377
   57MOL     H8 7960   1.263   6.031   7.778 -1.5827 -0.4301  1.3719
   57MOL     C9 7961   1.384   6.094   7.551  0.8905  0.0529  0.5593
   57MOL    C10 7962   1.289   5.996   7.472  0.1887 -0.3091 -0.4805
   57MOL    C11 7963   1.189   6.072   7.397 -0.0332  0.4679  0.4181
   57MOL    N12 7964   1.114   6.134   7.337  0.0892  0.3363 -0.1160
   57MOL    H13 7965   1.458   6.142   7.486  0.9278 -1.6555 -0.6885
   57MOL    H14 7966   1.443   6.029   7.615 -0.4849  0.3888  2.1989
   57MOL    H15 7967   1.226   5.947   7.546  0.6499  1.1341  0.8845
   57MOL    C16 7968   1.351   5.880   7.390 -0.4346 -0.6161 -0.2259
   57MOL    C17 7969   1.435   5.914   7.258  0.3824 -0.1846 -0.7661
   57MOL    C18 7970   1.549   6.018   7.273 -0.2863  0.3355 -0.1552
   57MOL    N19 7971   1.635   6.095   7.285 -0.7863  0.3487  0.0218
   57MOL    H20 7972   1.419   5.826   7.456 -1.2921 -1.9266 -0.4047
   57MOL    H21 7973   1.280   5.808   7.351  2.0169 -1.6971 -2.8943
   57MOL    H22 7974   1.363   5.954   7.186 -1.2356 -0.8030  0.4724
   57MOL    C23 7975   1.494   5.778   7.215  0.5183 -0.0618 -0.5318
   57MOL    C24 7976   1.525   5.766   7.067 -0.3670  0.8190  0.0226
   57MOL    C25 7977   1.623   5.862   7.019  0.1695 -0.0264  0.1321
   57MOL    N26 7978   1.700   5.937   6.979 -0.1868 -0.5175 -0.0167
   57MOL    H27 7979   1.574   5.750   7.284 -1.0593  1.1038  1.8528
   57MOL    H28 7980   1.426   5.696   7.241 -1.2164  1.2812 -0.7377
   57MOL    H29 7981   1.423   5.781   7.031 -0.3779  0.6576 -0.0124
   57MOL    C30 7982   1.537   5.623   7.008 -0.2805 -1.2376  0.0209
   57MOL    C31 7983   1.514   5.609   6.854 -1.0796  0.5380  0.3067
   57MOL    C32 7984   1.607   5.678   6.760 -0.0076 -0.3012 -0.3918
   57MOL    N33 7985   1.676   5.738   6.686 -0.3544  0.0223  0.0300
   57MOL    H34 7986   1.639   5.594   7.035  0.3419  0.7591 -0.1122
   57MOL    H35 7987   1.481   5.549   7.065 -0.3716 -1.3213 -0.1758
   57MOL    H36 7988   1.416   5.642   6.819 -0.9539  0.2896 -0.2896
   57MOL    C37 7989   1.500   5.466   6.811  0.3472 -0.2437 -0.3333
   57MOL    C38 7990   1.422   5.445   6.677 -0.1401  0.1064 -0.1045
   57MOL    C39 7991   1.485   5.336   6.596 -0.4031  0.0914  0.7344
   57MOL    N40 7992   1.534   5.256   6.527 -0.3812 -0.2277 -0.1887
   57MOL    H41 7993   1.591   5.408   6.806 -0.0580 -0.9929  0.7526
   57MOL    H42 7994   1.444   5.416   6.890 -0.4367  0.1465 -0.6312
   57MOL    H43 7995   1.437   5.539   6.624  1.7995 -0.0554  0.1170
   57MOL    C44 7996   1.268   5.426   6.694 -0.0580 -0.4903  0.4799
   57MOL    C45 7997   1.189   5.461   6.575  0.4908  0.1986 -0.6897
   57MOL    C46 7998   1.214   5.367   6.465 -0.4095  0.0795 -0.4795
   57MOL    N47 7999   1.238   5.290   6.377  0.0962  0.0995  0.2197
   57MOL    H48 8000   1.264   5.321   6.724  1.2640 -0.0416  2.3218
   57MOL    H49 8001   1.228   5.478   6.782  3.5576 -1.0052  2.5409
   57MOL    H50 8002   1.226   5.559   6.544  0.5470 -0.2263 -2.0043
   57MOL    C51 8003   1.038   5.484   6.605  0.6914  0.4480  0.3757
   57MOL    C52 8004   0.954   5.356   6.619  0.0014 -0.7236 -0.7874
   57MOL    C53 8005   1.014   5.245   6.694  0.0799  0.0196  0.5846
   57MOL    N54 8006   1.062   5.158   6.754 -0.3101  0.0929  0.4322
   57MOL    H55 8007   1.037   5.548   6.693 -1.0690 -0.7917  1.2928
   57MOL    H56 8008   0.993   5.537   6.521  0.7455  1.1236  0.7685
   57MOL    H57 8009   0.928   5.302   6.527  0.2012  0.7121 -1.7101
   57MOL    C58 8010   0.815   5.410   6.652 -0.7942 -0.1231  1.2607
   57MOL    C59 8011   0.708   5.312   6.679 -0.8558  1.1205  0.0691
   57MOL    C60 8012   0.746   5.251   6.806 -0.1372  0.5507  0.3646
   57MOL    N61 8013   0.770   5.198   6.907  0.0565  0.5683 -0.0650
   57MOL    H62 8014   0.830   5.472   6.741  1.6667  1.5600 -0.2513
   57MOL    H63 8015   0.780   5.480   6.576  1.9459  1.8323  1.6769
   57MOL    H64 8016   0.707   5.233   6.603  0.3367  2.8247 -1.7527
   57MOL    C65 8017   0.560   5.357   6.705 -0.3938  0.0472 -0.1013
   57MOL    C66 8018   0.460   5.246   6.715  0.7229 -0.0893  0.7140
   57MOL    C67 8019   0.342   5.284   6.789 -0.1234 -0.1348  0.4282
   57MOL    N68 8020   0.251   5.319   6.848 -0.1554  1.1924 -0.1178
   57MOL    H69 8021   0.553   5.423   6.792 -2.6565 -0.0895 -0.1664
   57MOL    H70 8022   0.527   5.421   6.623 -1.9844  0.1766  0.6260
   57MOL    H71 8023   0.507   5.165   6.771 -0.6097 -2.1411 -1.0431
   57MOL    C72 8024   0.416   5.193   6.578 -0.7130  0.2785  0.5569
   57MOL    C73 8025   0.265   5.145   6.547 -0.2842  0.1751 -0.6101
   57MOL    C74 8026   0.180   5.262   6.540  0.1737  0.5252 -0.6987
   57MOL    N75 8027   0.107   5.352   6.531 -0.2989 -0.1801 -0.2873
   57MOL    H76 8028   0.448   5.252   6.491  2.3767  0.8390  2.0003
   57MOL    H77 8029   0.484   5.109   6.565 -0.8826  0.2821 -0.4103
   57MOL    H78 8030   0.224   5.085   6.629 -2.1402  1.5538 -0.5162
   57MOL    C79 8031   0.249   5.050   6.422 -0.4998  0.4878  0.5277
   57MOL    C80 8032   0.111   4.993   6.376 -0.2295  0.6778  0.1834
   57MOL    C81 8033   0.136   4.926   6.243 -1.0326 -0.9012  0.0204
   57MOL    N82 8034   0.157   4.873   6.140  0.0357 -0.4499 -0.0970
   57MOL    H83 8035   0.273   5.113   6.337 -1.6321  1.9667  1.2746
   57MOL    H84 8036   0.318   4.965   6.422 -1.0155  0.0527 -0.7088
   57MOL    H85 8037   0.048   5.082   6.367 -0.9929  0.0576 -0.7460
   57MOL    C86 8038   0.041   4.886   6.460 -0.6584  0.2399 -0.0035
   57MOL    C87 8039   0.118   4.754   6.502  0.0394 -0.6106  1.1056
   57MOL    C88 8040   0.224   4.779   6.595  0.0787  0.0985  0.4336
   57MOL    N89 8041   0.309   4.798   6.674  0.0507 -0.2156  0.4698
   57MOL    H90 8042   0.001   4.934   6.550  1.7812  2.9112 -0.2582
   57MOL    H91 8043   8.266   4.851   6.406  0.4125  0.7339 -2.1049
   57MOL    H92 8044   0.175   4.707   6.422  1.8623  1.5183  1.1358
   57MOL    C93 8045   0.015   4.636   6.545  0.2929 -0.0291  0.4981
   57MOL    C94 8046   0.071   4.503   6.606 -0.2736  0.5861 -0.4015
   57MOL    C95 8047   0.130   4.505   6.743 -0.0427  0.3398  0.2376
   57MOL    N96 8048   0.178   4.499   6.844  0.5983  0.2598 -0.3213
   57MOL    H97 8049   8.244   4.685   6.594 -0.1402  0.1375 -0.4076
   57MOL    H98 8050   8.266   4.617   6.457  1.9904 -1.4028 -0.4202
   57MOL    H99 8051   0.162   4.476   6.553 -0.8463  0.7497 -1.4757
   57MOL   C100 8052   8.288   4.379   6.593  0.4785  0.2934  0.2403
   57MOL   C101 8053   8.147   4.388   6.669 -0.0599 -0.4259  0.3491
   57MOL   C102 8054   8.072   4.273   6.613  0.9461 -0.3945 -0.8206
   57MOL   N103 8055   8.015   4.188   6.569  0.1050 -0.5739 -0.0594
   57MOL   H104 8056   8.265   4.373   6.487  0.3753  0.3384  0.2607
   57MOL   H105 8057   0.023   4.283   6.616 -0.8621 -0.0863  1.5071
   57MOL   H106 8058   8.093   4.479   6.642  3.2653  1.6363  0.2870
   57MOL   C107 8059   8.170   4.385   6.822 -0.2211 -0.2443 -0.4353
   57MOL   C108 8060   8.172   4.517   6.897 -0.4300  0.2099 -0.1173
   57MOL   C109 8061   8.047   4.595   6.874 -0.0309 -0.1699  0.0512
   57MOL   N110 8062   7.946   4.653   6.857  0.1845 -0.6025 -0.1343
   57MOL   H111 8063   8.092   4.326   6.870 -0.2204  0.5507  0.5611
   57MOL   H112 8064   8.260   4.327   6.842 -0.6078 -1.1340 -1.2026
   57MOL   H113 8065   8.242   4.586   6.850 -0.2460  0.0593 -0.0634
   57MOL   C114 8066   8.213   4.507   7.046  0.3666 -0.2978  0.1415
   57MOL   C115 8067   8.245   4.640   7.118 -0.6631 -0.5781  0.0879
   57MOL   C116 8068   0.021   4.731   7.041 -0.9820  0.2142 -0.0208
   57MOL   N117 8069   0.085   4.803   6.976  0.3532  0.1759 -0.3535
   57MOL   H118 8070   8.137   4.443   7.092  0.3925  0.2240  0.9163
   57MOL   H119 8071   8.298   4.439   7.038  1.1234  0.5144  1.1839
   57MOL   H120 8072   8.290   4.609   7.212 -0.8642  0.6170  0.5881
   57MOL   C121 8073   8.125   4.725   7.156 -1.0848  0.0355  0.6988
   57MOL   C122 8074   8.018   4.665   7.231  0.2190  0.6793  0.6600
   57MOL   C123 8075   8.064   4.620   7.362  0.3887 -0.1625 -0.3678
   57MOL   N124 8076   8.108   4.580   7.465  0.5852  0.3354 -0.7691
   57MOL   H125 8077   8.162   4.815   7.205  0.7378 -0.0936 -0.3688
   57MOL   H126 8078   8.088   4.768   7.063  0.1257 -0.1258  0.1329
   57MOL   H127 8079   7.986   4.570   7.189  3.2289  0.1569 -0.6440
   57MOL   C128 8080   7.894   4.759   7.251 -0.7939 -0.2164  0.2284
   57MOL   C129 8081   7.803   4.767   7.131  0.3189 -0.0980 -0.4287
   57MOL   C130 8082   7.740   4.634   7.100 -0.3694 -0.3440 -0.2922
   57MOL   N131 8083   7.692   4.531   7.084  0.1551  0.0484  0.0018
   57MOL   H132 8084   7.839   4.719   7.336  1.3158  0.4458  1.9560
   57MOL   H133 8085   7.927   4.856   7.288  1.5103 -0.1592 -1.8454
   57MOL   H134 8086   7.855   4.803   7.043  1.2231 -0.9935 -0.2714
   57MOL   C135 8087   7.695   4.871   7.149 -0.1163 -0.2471  0.3807
   57MOL   C136 8088   7.626   4.916   7.022 -0.1677  0.2474  0.4170
   57MOL   C137 8089   7.550   4.818   6.941  0.4457 -0.5537 -0.2102
   57MOL   N138 8090   7.492   4.740   6.882  0.3737 -0.1197 -0.3991
   57MOL   H139 8091   7.628   4.837   7.229 -2.8329 -1.4822 -2.2887
   57MOL   H140 8092   7.746   4.965   7.169  0.2651 -0.0667 -1.4026
   57MOL   H141 8093   7.705   4.951   6.956  1.9787 -2.3273  1.5128
   57MOL   H142 8094   7.554   4.996   7.040  1.0084  1.1573  1.0949
   58MOL     C1 8095   0.135   0.926   3.317  0.0114 -0.6234  0.0962
   58MOL     C2 8096   0.119   0.782   3.371  0.0153 -0.1453 -0.4619
   58MOL     C3 8097   0.050   0.687   3.287 -0.3219  0.2554 -0.7680
   58MOL     N4 8098   8.302   0.615   3.221 -0.2710 -0.8965 -0.0279
   58MOL     H5 8099   0.211   0.945   3.242  0.6608 -0.4798  0.7829
   58MOL     H6 8100   0.159   1.006   3.388 -0.3869 -0.7570  0.3855
   58MOL     H7 8101   0.038   0.806   3.439 -0.1642  0.5153 -0.9060
   58MOL     H8 8102   0.044   0.958   3.266 -0.8248 -0.8518  1.4179
   58MOL     C9 8103   0.243   0.727   3.446  0.6011  0.1283  0.5135
   58MOL    C10 8104   0.336   0.642   3.347 -0.5424 -0.1349  0.5890
   58MOL    C11 8105   0.407   0.736   3.261 -0.0844  1.1075  0.0315
   58MOL    N12 8106   0.460   0.803   3.184 -0.3739  0.0533 -0.5975
   58MOL    H13 8107   0.305   0.805   3.492  1.4567 -0.5595  0.5352
   58MOL    H14 8108   0.207   0.659   3.524 -0.9887 -0.0126 -0.3272
   58MOL    H15 8109   0.278   0.576   3.283 -1.3317  1.6257 -0.5667
   58MOL    C16 8110   0.438   0.569   3.442  0.4539 -0.0533  0.4104
   58MOL    C17 8111   0.404   0.420   3.487 -0.3495  0.2115 -0.1056
   58MOL    C18 8112   0.262   0.408   3.527  0.1617  0.1981 -0.0164
   58MOL    N19 8113   0.146   0.404   3.561  0.3111 -0.4798  0.0057
   58MOL    H20 8114   0.539   0.563   3.401  0.0594  0.8951 -0.7064
   58MOL    H21 8115   0.453   0.616   3.539  2.1898  2.7118 -1.1495
   58MOL    H22 8116   0.457   0.406   3.581 -0.0836 -1.7638 -0.5362
   58MOL    C23 8117   0.447   0.317   3.389 -0.6395  0.3437  0.1408
   58MOL    C24 8118   0.398   0.167   3.412  0.1207 -0.1796 -0.0240
   58MOL    C25 8119   0.266   0.148   3.347 -0.0504 -0.2622 -0.6756
   58MOL    N26 8120   0.164   0.123   3.295 -0.2138 -0.0606 -0.4840
   58MOL    H27 8121   0.417   0.339   3.287 -0.2382  0.3584  0.0237
   58MOL    H28 8122   0.554   0.299   3.402 -1.2399 -2.5386  1.4787
   58MOL    H29 8123   0.374   0.155   3.518  1.7985 -0.6238  0.3202
   58MOL    C30 8124   0.506   0.068   3.366 -0.3269 -0.0005 -0.1466
   58MOL    C31 8125   0.519   0.061   3.215  0.5621  0.6097  0.4093
   58MOL    C32 8126   0.663   0.035   3.187  0.1470 -0.5952  0.2626
   58MOL    N33 8127   0.774   0.008   3.166  0.1522 -0.0475 -0.1152
   58MOL    H34 8128   0.597   0.108   3.409  2.1581 -2.3201 -2.9760
   58MOL    H35 8129   0.486   8.280   3.403 -1.8979 -0.1037 -1.2010
   58MOL    H36 8130   0.498   0.163   3.181 -1.1285  0.7645  1.8569
   58MOL    C37 8131   0.416   8.275   3.145  0.6121 -0.3928  0.2005
   58MOL    C38 8132   0.428   8.260   2.993 -0.0430 -0.1415 -0.0964
   58MOL    C39 8133   0.394   8.121   2.947 -0.0807  0.2471  0.0278
   58MOL    N40 8134   0.373   8.012   2.913  0.1590  0.1824  0.3011
   58MOL    H41 8135   0.421   8.179   3.195  4.2601  0.1786  1.1004
   58MOL    H42 8136   0.310   8.302   3.152  0.0480 -1.2725 -3.5611
   58MOL    H43 8137   0.533   8.259   2.963 -0.3277 -1.1987 -1.0826
   58MOL    C44 8138   0.361   0.065   2.920 -0.1932 -0.3612  0.3698
   58MOL    C45 8139   0.380   0.067   2.766  0.4224  0.0265  0.6046
   58MOL    C46 8140   0.349   8.245   2.705 -0.5655  0.2497  0.5945
   58MOL    N47 8141   0.322   8.148   2.650  0.1223 -0.1773 -0.1049
   58MOL    H48 8142   0.257   0.079   2.952 -0.3422 -1.9641  0.5909
   58MOL    H49 8143   0.409   0.154   2.961  0.1289 -0.9483  1.2680
   58MOL    H50 8144   0.489   0.066   2.767  0.4611  0.8117 -1.5251
   58MOL    C51 8145   0.333   0.197   2.706  0.3034  0.1100  0.5140
   58MOL    C52 8146   0.410   0.238   2.572 -0.1529  1.3450 -0.3583
   58MOL    C53 8147   0.384   0.143   2.459  0.1805  0.4001  0.3469
   58MOL    N54 8148   0.365   0.078   2.370  0.1240 -0.1786 -0.3542
   58MOL    H55 8149   0.225   0.191   2.690  0.1537  1.6080  0.8493
   58MOL    H56 8150   0.339   0.290   2.762  0.6983  0.2571  0.2295
   58MOL    H57 8151   0.516   0.218   2.591 -0.4658  0.4617  0.5055
   58MOL    C58 8152   0.395   0.390   2.544  0.2810 -0.1714 -0.0754
   58MOL    C59 8153   0.491   0.459   2.445  0.0050 -0.0476  0.7237
   58MOL    C60 8154   0.462   0.425   2.310 -0.2195  0.0458  0.4395
   58MOL    N61 8155   0.438   0.394   2.201  0.0489 -0.1818  0.5195
   58MOL    H62 8156   0.291   0.399   2.512 -0.7338 -2.7031  2.2678
   58MOL    H63 8157   0.402   0.454   2.632 -1.7412 -1.0737  0.7840
   58MOL    H64 8158   0.592   0.423   2.458 -0.3662 -1.5050 -0.3412
   58MOL    C65 8159   0.490   0.612   2.464 -0.0403 -0.5467 -0.4667
   58MOL    C66 8160   0.504   0.700   2.344 -0.7176 -0.0131  0.2412
   58MOL    C67 8161   0.474   0.841   2.380 -0.5116  0.4822  0.1566
   58MOL    N68 8162   0.451   0.955   2.399  0.2405  1.5745 -0.3601
   58MOL    H69 8163   0.396   0.634   2.516  0.1926  0.5393 -0.4931
   58MOL    H70 8164   0.555   0.634   2.548 -1.7164  1.8701  0.2662
   58MOL    H71 8165   0.440   0.685   2.257  1.6195  0.9754 -1.7001
   58MOL    C72 8166   0.642   0.674   2.280 -0.4709  0.1712 -0.2614
   58MOL    C73 8167   0.754   0.727   2.365  0.2582  0.8688  0.9998
   58MOL    C74 8168   0.792   0.620   2.458  0.3342  0.3384 -0.7903
   58MOL    N75 8169   0.821   0.525   2.524  0.2309 -0.8185  0.1369
   58MOL    H76 8170   0.675   0.573   2.255  2.1273  0.5333  1.3959
   58MOL    H77 8171   0.637   0.722   2.183 -1.1024  1.5227  0.4322
   58MOL    H78 8172   0.712   0.801   2.433 -0.1775 -0.4387  2.1871
   58MOL    C79 8173   0.872   0.769   2.280  0.5175  0.2608  0.0730
   58MOL    C80 8174   1.005   0.817   2.343  0.3013 -0.1097 -1.0464
   58MOL    C81 8175   0.978   0.907   2.454  0.2171 -0.3786 -0.0105
   58MOL    N82 8176   0.950   0.979   2.539  0.0019  0.7528  0.6068
   58MOL    H83 8177   0.894   0.680   2.222  1.9501  0.7174 -0.1111
   58MOL    H84 8178   0.839   0.856   2.222  2.0090  1.1242  0.4743
   58MOL    H85 8179   1.057   0.884   2.275  1.5387  0.5508  0.5404
   58MOL    C86 8180   1.106   0.704   2.371  0.0721 -0.8002  0.2067
   58MOL    C87 8181   1.227   0.741   2.460  0.0437  0.3527  0.0008
   58MOL    C88 8182   1.188   0.782   2.598  0.5168 -0.2633  0.0460
   58MOL    N89 8183   1.158   0.815   2.705 -0.8624 -0.2230 -0.0127
   58MOL    H90 8184   1.053   0.620   2.417  0.0659 -0.6937  0.3943
   58MOL    H91 8185   1.147   0.670   2.276  0.5111 -0.1332  0.1567
   58MOL    H92 8186   1.276   0.830   2.421 -0.7173  0.2298 -1.2457
   58MOL    C93 8187   1.344   0.640   2.459 -0.0363 -0.2723 -1.1648
   58MOL    C94 8188   1.460   0.661   2.551  0.6445  0.2381  0.4411
   58MOL    C95 8189   1.545   0.544   2.570  0.5109 -0.6358  0.1082
   58MOL    N96 8190   1.612   0.451   2.589  0.6002  0.0773 -0.0333
   58MOL    H97 8191   1.317   0.536   2.477  2.8432 -1.3250 -2.6153
   58MOL    H98 8192   1.371   0.636   2.353 -2.7217  0.4436 -1.9006
   58MOL    H99 8193   1.420   0.684   2.650  0.1957 -1.2765  0.6287
   58MOL   C100 8194   1.539   0.789   2.505  0.3250 -0.4389 -0.6147
   58MOL   C101 8195   1.611   0.792   2.366 -0.2502  0.8698 -0.7032
   58MOL   C102 8196   1.647   0.661   2.315 -0.3517  0.1925 -1.0363
   58MOL   N103 8197   1.677   0.555   2.279  0.1926  0.1518 -0.6588
   58MOL   H104 8198   1.477   0.877   2.520  0.1326 -0.6374 -0.2579
   58MOL   H105 8199   1.619   0.790   2.579  0.4546 -0.2490 -0.7587
   58MOL   H106 8200   1.686   0.866   2.391  0.4041  0.5730 -1.7327
   58MOL   C107 8201   1.524   0.872   2.267  0.0387  0.3562  0.1363
   58MOL   C108 8202   1.589   0.932   2.150  0.7661 -0.3909 -0.4412
   58MOL   C109 8203   1.673   0.831   2.075 -0.3117 -0.1545  0.4539
   58MOL   N110 8204   1.733   0.754   2.010  0.2249  0.2109 -0.7366
   58MOL   H111 8205   1.449   0.805   2.225  0.2143  0.2317  0.0195
   58MOL   H112 8206   1.476   0.951   2.325 -0.2099 -0.6051  1.2689
   58MOL   H113 8207   1.669   0.999   2.180  0.6527 -1.2283  1.7852
   58MOL   C114 8208   1.480   0.999   2.059 -0.0474  0.1956  0.7368
   58MOL   C115 8209   1.504   1.017   1.912  0.0777 -0.6403 -0.7445
   58MOL   C116 8210   1.376   0.985   1.839 -1.0153 -0.3714 -0.2873
   58MOL   N117 8211   1.279   0.955   1.788  0.3599  0.0504 -0.0443
   58MOL   H118 8212   1.385   0.948   2.079 -0.0955  0.9944  2.6320
   58MOL   H119 8213   1.450   1.099   2.093  2.2200  1.3272 -0.4967
   58MOL   H120 8214   1.573   0.935   1.890 -0.8153 -1.6728  0.2353
   58MOL   C121 8215   1.559   1.142   1.854  0.1377  0.1647 -0.2659
   58MOL   C122 8216   1.660   1.225   1.935 -0.1675  0.2104  0.1842
   58MOL   C123 8217   1.771   1.140   1.990 -0.7817  0.2534 -0.4620
   58MOL   N124 8218   1.860   1.072   2.030  0.3085  0.1009 -0.1025
   58MOL   H125 8219   1.587   1.126   1.750  0.6217  0.9006 -0.2510
   58MOL   H126 8220   1.479   1.215   1.843 -0.1257  0.4633  3.0976
   58MOL   H127 8221   1.613   1.267   2.024  1.9623  1.3844  0.7874
   58MOL   C128 8222   1.705   1.353   1.863  0.5152  0.2789 -0.4235
   58MOL   C129 8223   1.819   1.341   1.773 -0.5206 -0.2153 -0.2751
   58MOL   C130 8224   1.803   1.234   1.679  0.5632 -0.7602  0.1299
   58MOL   N131 8225   1.792   1.149   1.604  0.6547  0.3799 -0.3869
   58MOL   H132 8226   1.623   1.409   1.818  0.1570  0.4315  0.4117
   58MOL   H133 8227   1.736   1.418   1.945 -1.8472  1.6030 -0.5277
   58MOL   H134 8228   1.910   1.309   1.826  0.2731  0.7812 -1.0061
   58MOL   C135 8229   1.852   1.478   1.701 -0.7508 -0.0277  0.4197
   58MOL   C136 8230   1.759   1.526   1.589  0.0988 -0.5872  0.1986
   58MOL   C137 8231   1.806   1.643   1.514  0.1334  0.7698 -0.0591
   58MOL   N138 8232   1.844   1.737   1.459  0.1167  0.1092 -0.0730
   58MOL   H139 8233   1.855   1.563   1.770 -1.9507  0.3876 -0.0368
   58MOL   H140 8234   1.959   1.472   1.678 -0.8268  2.0623 -0.6906
   58MOL   H141 8235   1.661   1.548   1.633  0.4022 -0.1468  0.6552
   58MOL   H142 8236   1.741   1.453   1.510 -0.4830  0.9941 -1.1561
   59MOL     C1 8237   5.403   1.483   4.508  0.3406  0.1948  0.5249
   59MOL     C2 8238   5.402   1.332   4.490  0.4645  0.0641 -0.3962
   59MOL     C3 8239   5.404   1.256   4.614 -0.4088 -0.6540 -0.2286
   59MOL     N4 8240   5.404   1.195   4.718 -0.9957 -0.5117  0.4156
   59MOL     H5 8241   5.333   1.517   4.584  0.5738  0.7626  0.4853
   59MOL     H6 8242   5.381   1.546   4.422  2.2226  0.7294  0.4192
   59MOL     H7 8243   5.491   1.304   4.433 -0.4864  0.4892 -2.1281
   59MOL     H8 8244   5.498   1.520   4.547  1.3545 -0.4155 -1.3053
   59MOL     C9 8245   5.279   1.287   4.402 -0.1561  0.1719 -0.2653
   59MOL    C10 8246   5.285   1.136   4.365 -0.2765  0.5767 -0.3741
   59MOL    C11 8247   5.160   1.073   4.319  0.2521 -0.4323  0.4028
   59MOL    N12 8248   5.065   1.021   4.282 -0.2541 -0.1235 -0.4576
   59MOL    H13 8249   5.186   1.317   4.451 -0.3310 -0.2087 -0.3628
   59MOL    H14 8250   5.276   1.354   4.316  1.2126  0.8829  0.2275
   59MOL    H15 8251   5.311   1.082   4.456 -0.2050 -1.5230 -1.5954
   59MOL    C16 8252   5.402   1.116   4.259  0.0048 -0.4249  0.0829
   59MOL    C17 8253   5.440   0.965   4.225  0.4745  0.3284  0.3098
   59MOL    C18 8254   5.339   0.901   4.143 -0.0109  1.2133  0.3216
   59MOL    N19 8255   5.262   0.853   4.076  0.9356  0.3515 -0.9937
   59MOL    H20 8256   5.360   1.171   4.175  3.0993  2.6441  0.4473
   59MOL    H21 8257   5.495   1.158   4.296  0.9818 -0.3841 -2.3543
   59MOL    H22 8258   5.429   0.901   4.312 -1.6336 -1.1122 -0.9872
   59MOL    C23 8259   5.588   0.948   4.183  0.8389 -0.0182  0.5489
   59MOL    C24 8260   5.617   0.985   4.040 -0.1808  0.1862 -0.2233
   59MOL    C25 8261   5.643   1.128   4.039  0.5639 -0.5153 -0.3312
   59MOL    N26 8262   5.663   1.243   4.038  0.1844  0.2260 -0.0791
   59MOL    H27 8263   5.655   0.996   4.254 -0.0677  0.8566  0.8188
   59MOL    H28 8264   5.599   0.840   4.194 -2.0976 -0.2964  1.1232
   59MOL    H29 8265   5.533   0.960   3.975  0.4978 -2.5064 -0.1450
   59MOL    C30 8266   5.730   0.907   3.982 -0.0833  0.3404 -0.4568
   59MOL    C31 8267   5.681   0.766   3.943  0.0337 -0.4738  0.4066
   59MOL    C32 8268   5.588   0.761   3.831  0.8203  1.0032  0.4166
   59MOL    N33 8269   5.513   0.757   3.736  0.1920 -0.4208 -0.3872
   59MOL    H34 8270   5.755   0.964   3.893  0.5338 -0.2677 -0.6795
   59MOL    H35 8271   5.817   0.898   4.046 -0.4067 -0.3406 -0.1061
   59MOL    H36 8272   5.618   0.719   4.019 -2.1077 -0.2377 -1.1650
   59MOL    C37 8273   5.803   0.671   3.920  0.5117 -0.2050 -0.4830
   59MOL    C38 8274   5.872   0.626   4.047  0.0230  0.6202  0.2522
   59MOL    C39 8275   5.787   0.625   4.166 -0.3061  0.7502  0.7289
   59MOL    N40 8276   5.724   0.629   4.261  0.1198  0.5957 -0.0058
   59MOL    H41 8277   5.755   0.584   3.875 -1.2792 -0.5041  1.8801
   59MOL    H42 8278   5.852   0.724   3.838 -1.0832 -0.3442 -1.5536
   59MOL    H43 8279   5.941   0.708   4.066  0.3974 -0.3414  3.3874
   59MOL    C44 8280   5.957   0.498   4.023  0.1966  0.5646 -0.0895
   59MOL    C45 8281   5.968   0.393   4.137 -0.1674  0.0871 -0.4669
   59MOL    C46 8282   5.995   0.459   4.262  0.1992 -0.1232 -0.5604
   59MOL    N47 8283   6.023   0.523   4.358  0.6017  0.5449 -0.4881
   59MOL    H48 8284   5.914   0.444   3.938 -0.4305  2.1537 -0.8206
   59MOL    H49 8285   6.057   0.532   3.996 -0.3093  0.0861 -2.6849
   59MOL    H50 8286   6.059   0.334   4.129 -0.1256 -0.0932  1.1534
   59MOL    C51 8287   5.848   0.295   4.142 -0.2557  0.3490 -0.4962
   59MOL    C52 8288   5.818   0.205   4.022  0.7797  0.0548 -0.1677
   59MOL    C53 8289   5.945   0.123   4.005 -0.2147  0.1145 -0.4627
   59MOL    N54 8290   6.041   0.061   3.991  0.4563 -0.7894 -0.2123
   59MOL    H55 8291   5.858   0.234   4.231  2.3784  1.1770 -0.1844
   59MOL    H56 8292   5.758   0.350   4.169 -0.9484 -0.8206 -0.3941
   59MOL    H57 8293   5.799   0.265   3.934  0.6649 -0.5244 -0.5410
   59MOL    C58 8294   5.703   0.109   4.038  0.0813  0.3457 -0.2159
   59MOL    C59 8295   5.561   0.178   4.030  0.5640 -0.4011 -0.3512
   59MOL    C60 8296   5.572   0.323   4.014  0.1892  0.2793 -0.4561
   59MOL    N61 8297   5.579   0.436   4.000  0.1465 -0.8491  0.7365
   59MOL    H62 8298   5.721   0.031   3.965  0.4967 -2.1812  2.4875
   59MOL    H63 8299   5.714   0.071   4.140 -2.1516  2.0558  0.7158
   59MOL    H64 8300   5.517   0.155   4.127  0.1943  1.6330 -0.0152
   59MOL    C65 8301   5.468   0.114   3.925 -0.3442 -0.2899  0.0416
   59MOL    C66 8302   5.395   8.289   3.962 -0.4020 -0.6415 -0.9241
   59MOL    C67 8303   5.483   8.201   4.039 -0.3693  0.7840 -0.4574
   59MOL    N68 8304   5.556   8.135   4.108 -0.0150  0.3678 -0.1673
   59MOL    H69 8305   5.392   0.187   3.896 -0.7541 -0.7728 -0.1036
   59MOL    H70 8306   5.530   0.104   3.836  2.8210 -2.8225  2.4323
   59MOL    H71 8307   5.387   8.233   3.869  0.6095  1.7411 -2.5083
   59MOL    C72 8308   5.263   0.007   4.037  0.1874 -0.1644  0.2078
   59MOL    C73 8309   5.189   8.200   4.099  0.1764  0.7507  0.9389
   59MOL    C74 8310   5.064   8.254   4.148 -0.2339  0.2522 -0.2716
   59MOL    N75 8311   4.967   8.296   4.187  0.2936  0.0045 -0.1780
   59MOL    H76 8312   5.291   0.079   4.113  0.5190 -1.9304  1.8215
   59MOL    H77 8313   5.194   0.065   3.976  2.5971 -0.1147 -2.5279
   59MOL    H78 8314   5.247   8.151   4.178 -0.2138 -0.4400  0.4958
   59MOL    C79 8315   5.156   8.094   3.992  0.6716  0.0075 -0.3399
   59MOL    C80 8316   5.110   7.954   4.039  0.3491 -0.3063  0.4130
   59MOL    C81 8317   4.992   7.964   4.121  0.0717 -0.0423  0.1354
   59MOL    N82 8318   4.895   7.962   4.181  0.0170 -0.4199  1.1141
   59MOL    H83 8319   5.095   8.138   3.914  0.7246  0.3941 -0.1673
   59MOL    H84 8320   5.245   8.078   3.932  0.3263  0.3906 -0.9594
   59MOL    H85 8321   5.178   7.918   4.116 -1.0818 -0.5134  1.6314
   59MOL    C86 8322   5.099   7.857   3.924 -0.2213 -0.2738 -0.1700
   59MOL    C87 8323   5.084   7.708   3.968 -0.6032  0.0702  0.0821
   59MOL    C88 8324   4.976   7.676   4.064  0.5066 -0.7189  0.1710
   59MOL    N89 8325   4.885   7.658   4.129 -0.8275  0.5662  0.1484
   59MOL    H90 8326   5.017   7.885   3.858 -0.9541 -0.4012  0.6751
   59MOL    H91 8327   5.189   7.870   3.864  0.0134 -1.0728  0.0006
   59MOL    H92 8328   5.175   7.689   4.024 -0.8706 -1.4449  0.0247
   59MOL    C93 8329   5.091   7.604   3.852  0.2454 -1.0699  0.2770
   59MOL    C94 8330   5.065   7.454   3.887  0.3108 -0.1896 -0.8549
   59MOL    C95 8331   5.116   7.422   4.024 -0.2033 -0.1378  1.2164
   59MOL    N96 8332   5.153   7.403   4.132 -0.0348  0.2369  0.0578
   59MOL    H97 8333   5.021   7.637   3.775  1.7295  1.5844  0.0126
   59MOL    H98 8334   5.186   7.600   3.798  0.7682  0.5922  1.0344
   59MOL    H99 8335   5.133   7.408   3.815  3.7663  6.0473 -2.0329
   59MOL   C100 8336   4.922   7.415   3.863  0.5457  0.3034 -0.1151
   59MOL   C101 8337   4.867   7.288   3.935 -0.0567  0.8919 -0.1245
   59MOL   C102 8338   4.959   7.177   3.942  0.9922  0.6048 -0.5995
   59MOL   N103 8339   5.029   7.083   3.942 -0.1774 -0.0441  0.0239
   59MOL   H104 8340   4.866   7.506   3.884  1.2905  0.5711  0.7371
   59MOL   H105 8341   4.902   7.410   3.756 -2.5780  1.4277  0.3733
   59MOL   H106 8342   4.793   7.255   3.863 -1.0679  1.4669  0.6452
   59MOL   C107 8343   4.797   7.326   4.068 -0.1196 -0.4352 -0.0594
   59MOL   C108 8344   4.764   7.201   4.161 -0.3806 -0.3137 -0.5233
   59MOL   C109 8345   4.888   7.160   4.221 -0.3555  0.8900  0.6417
   59MOL   N110 8346   4.991   7.126   4.265  0.0420  0.5179  0.2955
   59MOL   H111 8347   4.848   7.405   4.124  0.7951 -1.2250  0.2295
   59MOL   H112 8348   4.701   7.368   4.041  0.3756  0.4674 -0.4437
   59MOL   H113 8349   4.742   7.120   4.092 -1.5018 -1.0217  0.6501
   59MOL   C114 8350   4.646   7.205   4.263  0.5279 -0.3724 -0.0367
   59MOL   C115 8351   4.512   7.191   4.185  0.6770 -0.4688  0.0045
   59MOL   C116 8352   4.508   7.056   4.139 -0.2697 -0.2463 -0.0490
   59MOL   N117 8353   4.503   6.947   4.098  0.2220  0.0662  0.8949
   59MOL   H118 8354   4.644   7.129   4.340  0.8348 -2.3068 -1.8913
   59MOL   H119 8355   4.658   7.295   4.323  0.4402  0.1789 -0.8302
   59MOL   H120 8356   4.518   7.256   4.097  0.1177  0.4902  0.6576
   59MOL   C121 8357   4.394   7.228   4.277  0.1600 -0.3387 -0.2245
   59MOL   C122 8358   4.262   7.256   4.196  0.2101 -0.3301  0.1302
   59MOL   C123 8359   4.253   7.172   4.082 -0.2795 -0.0451  0.2589
   59MOL   N124 8360   4.249   7.104   3.990  0.5346 -0.2019  0.2893
   59MOL   H125 8361   4.381   7.156   4.357  2.4537  0.3946  0.8560
   59MOL   H126 8362   4.423   7.312   4.340 -0.8179  0.1016 -0.3601
   59MOL   H127 8363   4.265   7.356   4.152 -1.5261 -0.4684 -0.3127
   59MOL   C128 8364   4.137   7.270   4.286 -0.3795  0.1058 -0.3957
   59MOL   C129 8365   4.002   7.311   4.224 -0.1579 -0.6948 -0.0838
   59MOL   C130 8366   3.952   7.200   4.135 -0.5538 -0.0073 -0.7554
   59MOL   N131 8367   3.915   7.114   4.065  0.2718  0.4411  0.5655
   59MOL   H132 8368   4.140   7.180   4.347  2.8863 -0.0412 -0.6682
   59MOL   H133 8369   4.161   7.351   4.355 -0.6635 -1.8473  2.0446
   59MOL   H134 8370   4.025   7.394   4.158 -1.3717  0.4315  0.8608
   59MOL   C135 8371   3.903   7.366   4.331  0.1291 -0.1907  0.1257
   59MOL   C136 8372   3.761   7.398   4.284  0.2947 -0.2093  0.3794
   59MOL   C137 8373   3.658   7.306   4.328  0.0928 -0.8066  0.4945
   59MOL   N138 8374   3.573   7.236   4.361  0.1620  0.3023 -0.0447
   59MOL   H139 8375   3.905   7.286   4.405 -0.0550  0.2619  0.6132
   59MOL   H140 8376   3.944   7.457   4.375  2.7818 -2.1489  1.8711
   59MOL   H141 8377   3.769   7.383   4.177  2.1425  1.6467  0.2284
   59MOL   H142 8378   3.733   7.500   4.308 -2.6200 -1.0094  0.6194
   60MOL     C1 8379   2.304   0.402   6.706  0.5720  0.3013 -0.2825
   60MOL     C2 8380   2.196   0.516   6.729 -0.8529 -0.1425 -0.0017
   60MOL     C3 8381   2.162   0.598   6.610  0.3914  0.8070  0.3629
   60MOL     N4 8382   2.141   0.661   6.513 -0.6628 -1.2131 -0.3809
   60MOL     H5 8383   2.322   0.360   6.805  2.9364 -2.8861 -1.9670
   60MOL     H6 8384   2.395   0.440   6.661 -0.3024  2.1121 -0.5659
   60MOL     H7 8385   2.245   0.591   6.791 -0.0594 -0.1636 -0.5991
   60MOL     H8 8386   2.276   0.311   6.653 -0.1196  0.9069 -0.9651
   60MOL     C9 8387   2.066   0.445   6.792 -0.2592  0.0420  0.2281
   60MOL    C10 8388   1.962   0.372   6.690 -0.1457 -0.5772 -0.3173
   60MOL    C11 8389   2.012   0.239   6.659 -0.3849 -0.2603 -0.1886
   60MOL    N12 8390   2.052   0.134   6.636  0.1245 -0.6245  0.0115
   60MOL    H13 8391   2.099   0.366   6.859  2.8932  1.3420  0.2926
   60MOL    H14 8392   2.006   0.514   6.852 -0.2886 -0.3625  0.6684
   60MOL    H15 8393   1.958   0.424   6.595 -0.8465 -0.1658 -0.0707
   60MOL    C16 8394   1.819   0.368   6.752  0.5408 -0.1057  0.3934
   60MOL    C17 8395   1.751   0.507   6.730 -0.1760  0.3128 -0.3449
   60MOL    C18 8396   1.714   0.544   6.595 -0.2700 -0.4857  0.5436
   60MOL    N19 8397   1.677   0.567   6.488  0.3520  0.2626 -1.1248
   60MOL    H20 8398   1.765   0.290   6.698  2.2502 -1.7328  0.9624
   60MOL    H21 8399   1.836   0.333   6.854 -1.3525 -0.1405  0.7141
   60MOL    H22 8400   1.829   0.579   6.756  0.8819 -1.4017  1.3520
   60MOL    C23 8401   1.630   0.544   6.823 -0.6265 -0.3340  0.1731
   60MOL    C24 8402   1.506   0.467   6.779  0.1036 -0.0129 -0.3625
   60MOL    C25 8403   1.534   0.329   6.812 -0.5011  0.7404 -0.3048
   60MOL    N26 8404   1.563   0.222   6.847  0.4873  0.1344  0.2156
   60MOL    H27 8405   1.651   0.516   6.927 -0.9424  0.8467  0.5600
   60MOL    H28 8406   1.616   0.652   6.821 -1.8934 -0.5129 -1.4296
   60MOL    H29 8407   1.502   0.462   6.670  0.4037  0.3123 -0.3905
   60MOL    C30 8408   1.372   0.520   6.819  0.2572  0.8616 -0.1681
   60MOL    C31 8409   1.334   0.460   6.955  0.5956  0.2874  0.2224
   60MOL    C32 8410   1.418   0.504   7.068  0.5762 -0.3298  0.0721
   60MOL    N33 8411   1.474   0.538   7.159 -0.2333  0.0249  0.0737
   60MOL    H34 8412   1.371   0.629   6.825 -1.7197  0.9979 -2.0356
   60MOL    H35 8413   1.299   0.503   6.739  2.0068  0.0802 -1.6238
   60MOL    H36 8414   1.370   0.357   6.952  1.1522  0.4857  0.0694
   60MOL    C37 8415   1.185   0.462   6.985  0.4460  0.1522  0.8744
   60MOL    C38 8416   1.102   0.368   6.900 -0.4124  0.1723  0.0505
   60MOL    C39 8417   1.153   0.238   6.933  0.3991 -0.4378 -0.1133
   60MOL    N40 8418   1.202   0.138   6.962  0.2939 -0.6094 -0.3552
   60MOL    H41 8419   1.159   0.439   7.089  0.1644  0.7719  0.9467
   60MOL    H42 8420   1.157   0.564   6.960  1.5792  0.5698  1.2921
   60MOL    H43 8421   1.129   0.383   6.795 -0.4421 -1.0929 -0.1532
   60MOL    C44 8422   0.953   0.383   6.927 -0.4115 -0.6983 -0.1418
   60MOL    C45 8423   0.867   0.317   6.809  0.4499 -0.5762  0.0566
   60MOL    C46 8424   0.867   0.175   6.799 -0.0744  0.4573 -0.6251
   60MOL    N47 8425   0.864   0.061   6.788  0.4188  0.1288  0.0903
   60MOL    H48 8426   0.922   0.340   7.023  0.5738 -0.2727  0.3723
   60MOL    H49 8427   0.908   0.481   6.942  0.1095 -0.4896  0.0617
   60MOL    H50 8428   0.926   0.340   6.721  0.8656 -0.7264  0.2938
   60MOL    C51 8429   0.719   0.365   6.815 -0.0092 -0.2191 -0.0825
   60MOL    C52 8430   0.702   0.523   6.801  0.6945  0.5100 -0.1197
   60MOL    C53 8431   0.795   0.584   6.708 -0.5104  0.7557 -0.1397
   60MOL    N54 8432   0.869   0.632   6.633  0.8549  0.5244 -0.2963
   60MOL    H55 8433   0.677   0.326   6.722  1.1153  0.8102 -1.0178
   60MOL    H56 8434   0.660   0.317   6.894 -0.1220 -1.4058 -0.8706
   60MOL    H57 8435   0.733   0.566   6.895  0.3890  0.0391  0.2012
   60MOL    C58 8436   0.556   0.579   6.785 -0.4999 -0.0662 -0.5290
   60MOL    C59 8437   0.509   0.682   6.889  0.2845  0.7375 -0.0433
   60MOL    C60 8438   0.585   0.800   6.878 -0.2986 -0.2375  0.2017
   60MOL    N61 8439   0.646   0.900   6.858 -0.0843 -0.2444 -0.5692
   60MOL    H62 8440   0.533   0.613   6.684  0.1382  1.4450 -0.1811
   60MOL    H63 8441   0.490   0.495   6.802 -1.3172  0.3343 -1.6764
   60MOL    H64 8442   0.515   0.644   6.991  0.5419  1.3687  0.1791
   60MOL    C65 8443   0.358   0.709   6.860  0.2118 -0.3439 -0.0744
   60MOL    C66 8444   0.281   0.806   6.951 -0.5774  0.4612 -0.0491
   60MOL    C67 8445   0.326   0.945   6.930 -1.0162 -0.2536  0.0924
   60MOL    N68 8446   0.351   1.059   6.919 -0.2516  0.2277  0.2463
   60MOL    H69 8447   0.331   0.734   6.758  0.4152 -1.6552 -0.4557
   60MOL    H70 8448   0.299   0.620   6.879  0.0871  0.0670  1.5192
   60MOL    H71 8449   0.306   0.776   7.052  0.4258 -1.3533 -0.8208
   60MOL    C72 8450   0.126   0.789   6.941 -0.2926  0.0278  0.2683
   60MOL    C73 8451   0.033   0.895   6.995  0.0946  0.4600 -0.3821
   60MOL    C74 8452   8.207   0.851   6.960  0.3365 -0.4319 -0.1185
   60MOL    N75 8453   8.096   0.819   6.930  0.4721 -0.1927  0.3175
   60MOL    H76 8454   0.106   0.767   6.836  0.7464  0.0649  0.0582
   60MOL    H77 8455   0.105   0.690   6.979 -0.9073  0.2758  0.5833
   60MOL    H78 8456   0.057   0.995   6.958 -0.6505 -0.0261 -2.2300
   60MOL    C79 8457   0.047   0.913   7.152 -0.1636  1.0824 -0.2134
   60MOL    C80 8458   0.146   1.016   7.200 -0.2216  0.0322 -0.7417
   60MOL    C81 8459   0.108   1.144   7.134  0.2553  0.8661 -0.1358
   60MOL    N82 8460   0.081   1.237   7.072 -0.3589  0.1507  0.2819
   60MOL    H83 8461   8.259   0.923   7.192  0.1162 -0.1273  0.8512
   60MOL    H84 8462   0.071   0.818   7.200 -1.6133  0.0426 -1.5062
   60MOL    H85 8463   0.240   0.990   7.150  0.8428  0.9627  0.7269
   60MOL    C86 8464   0.180   1.029   7.351 -0.0330 -0.0987  0.3079
   60MOL    C87 8465   0.247   0.907   7.420  0.5372 -0.2284  0.9339
   60MOL    C88 8466   0.359   0.864   7.339 -0.2293 -0.0799  0.6467
   60MOL    N89 8467   0.450   0.827   7.272 -0.0941  0.9467  0.0857
   60MOL    H90 8468   0.228   1.125   7.370 -1.5814  0.8374 -0.4300
   60MOL    H91 8469   0.086   1.036   7.406 -1.3646  0.6861 -1.9966
   60MOL    H92 8470   0.176   0.824   7.421 -2.0541  1.9064  1.6105
   60MOL    C93 8471   0.276   0.950   7.565 -0.3961  0.3672 -1.0838
   60MOL    C94 8472   0.266   0.826   7.660 -0.4566 -0.2696 -0.5948
   60MOL    C95 8473   0.363   0.720   7.616  0.5104 -0.3799  0.0207
   60MOL    N96 8474   0.436   0.643   7.576 -0.2239 -0.5859 -0.4933
   60MOL    H97 8475   0.372   1.002   7.562 -0.1978 -0.0446 -2.4393
   60MOL    H98 8476   0.196   1.016   7.599  0.4752  0.1089  1.5458
   60MOL    H99 8477   0.163   0.793   7.651 -0.2064 -1.4907  0.6976
   60MOL   C100 8478   0.307   0.863   7.807  0.6802 -0.2823  0.1520
   60MOL   C101 8479   0.255   0.756   7.903  1.0262 -0.8974  0.9114
   60MOL   C102 8480   0.343   0.638   7.904 -0.3331  0.2881  0.4073
   60MOL   N103 8481   0.409   0.543   7.908 -0.0974  0.0282 -0.3202
   60MOL   H104 8482   0.414   0.878   7.822  0.6326  0.8946 -0.6530
   60MOL   H105 8483   0.264   0.958   7.838  0.9706  0.9107 -2.9350
   60MOL   H106 8484   0.155   0.730   7.870 -0.0340  2.7256  1.0462
   60MOL   C107 8485   0.224   0.803   8.046 -0.5086 -0.3228 -0.1482
   60MOL   C108 8486   0.344   0.855   8.138 -0.0703 -0.2501 -0.4667
   60MOL   C109 8487   0.388   0.986   8.084 -1.0209  0.2099 -0.6279
   60MOL   N110 8488   0.425   1.087   8.039 -0.2248 -0.1581  0.1343
   60MOL   H111 8489   0.139   0.869   8.060  1.1716  1.9587 -0.2946
   60MOL   H112 8490   0.181   0.708   8.078  0.1650 -0.6199 -0.1063
   60MOL   H113 8491   0.432   0.793   8.148  0.2880 -0.0250 -2.0890
   60MOL   C114 8492   0.287   0.882   8.279  0.3813 -0.4152 -0.2469
   60MOL   C115 8493   0.254   0.761   0.047 -0.7704 -0.3370 -0.2873
   60MOL   C116 8494   0.335   0.758   0.174 -0.5987 -0.5038  0.0251
   60MOL   N117 8495   0.399   0.757   0.273  0.0775 -0.2682 -0.6102
   60MOL   H118 8496   0.351   0.961   0.005 -0.5458  0.2797 -0.0980
   60MOL   H119 8497   0.192   0.933   8.260 -0.1170 -0.6781  1.4330
   60MOL   H120 8498   0.290   0.675   8.302  1.7393  0.5997 -0.1864
   60MOL   C121 8499   0.099   0.752   0.064 -0.4720 -0.1998  0.6108
   60MOL   C122 8500   0.057   0.636   0.146  0.0100 -0.4351 -0.4168
   60MOL   C123 8501   0.031   0.680   0.291 -0.0735 -0.1419  0.1343
   60MOL   N124 8502   0.018   0.719   0.396  0.2978  0.3843  0.7651
   60MOL   H125 8503   0.071   0.843   0.116  1.7686  1.7019 -1.4098
   60MOL   H126 8504   0.057   0.756   8.276  0.8584 -1.5270 -0.0313
   60MOL   H127 8505   0.135   0.565   0.173  0.6831  1.4245  2.8297
   60MOL   C128 8506   8.254   0.558   0.081 -0.3197  0.2400 -0.2062
   60MOL   C129 8507   8.181   0.457   0.180 -0.4989 -0.0140 -0.7327
   60MOL   C130 8508   8.092   0.524   0.271  0.4974 -0.6523 -0.3596
   60MOL   N131 8509   8.021   0.576   0.347 -0.0064 -0.1129 -0.0335
   60MOL   H132 8510   8.173   0.618   0.041 -0.5896  1.1242  1.5933
   60MOL   H133 8511   8.299   0.498   0.002  0.5499  0.7863 -0.1371
   60MOL   H134 8512   8.255   0.410   0.246 -0.0986 -0.3192 -1.3969
   60MOL   C135 8513   8.093   0.361   0.096  0.0285 -0.6674  0.3029
   60MOL   C136 8514   8.166   0.252   0.018  0.0411  0.4050  0.4684
   60MOL   C137 8515   8.240   0.152   0.093 -0.0429 -0.1947 -0.4010
   60MOL   N138 8516   8.297   0.076   0.153  0.8859  0.0020 -0.0077
   60MOL   H139 8517   8.015   0.322   0.161  0.7150 -1.9155  0.4047
   60MOL   H140 8518   8.031   0.420   0.028 -1.3973 -2.2060  0.2302
   60MOL   H141 8519   8.230   0.292   8.252  2.5887 -0.0212  2.2961
   60MOL   H142 8520   8.094   0.197   8.268  1.5703 -0.8673 -0.2194
   61MOL     C1 8521   5.252   4.735   7.368  0.4240 -0.0369 -0.3771
   61MOL     C2 8522   5.175   4.604   7.424 -1.4467  0.1305 -0.4397
   61MOL     C3 8523   5.168   4.605   7.574  0.6804  0.8607  0.0173
   61MOL     N4 8524   5.159   4.599   7.688 -0.3560  0.1937 -0.4499
   61MOL     H5 8525   5.313   4.789   7.440 -0.1001  0.9072 -0.6300
   61MOL     H6 8526   5.184   4.799   7.311 -0.0979 -0.1815  0.0798
   61MOL     H7 8527   5.248   4.526   7.408 -0.4789  0.5776  1.5900
   61MOL     H8 8528   5.328   4.705   7.295 -0.4033 -1.1836 -0.7808
   61MOL     C9 8529   5.039   4.574   7.352 -0.8054  0.0208  0.2725
   61MOL    C10 8530   4.923   4.659   7.397 -0.1636  0.2222  0.1490
   61MOL    C11 8531   4.924   4.789   7.331 -0.1712 -0.3430 -0.0259
   61MOL    N12 8532   4.921   4.893   7.274 -0.6807 -0.3510  0.3806
   61MOL    H13 8533   5.044   4.562   7.243  2.7430  2.5877  0.0919
   61MOL    H14 8534   5.008   4.483   7.403  1.6845  0.3472  2.4738
   61MOL    H15 8535   4.919   4.674   7.505 -1.3341  0.6013  0.0538
   61MOL    C16 8536   4.781   4.596   7.379  0.0303 -0.5270 -0.3140
   61MOL    C17 8537   4.713   4.625   7.248 -0.2469 -0.3305 -0.0465
   61MOL    C18 8538   4.788   4.580   7.129  0.0116  0.5429  0.0905
   61MOL    N19 8539   4.846   4.550   7.033  0.5621  0.0983  0.1270
   61MOL    H20 8540   4.773   4.487   7.383 -0.1251 -0.4834  0.7312
   61MOL    H21 8541   4.709   4.636   7.450  0.2101 -0.3244 -0.2443
   61MOL    H22 8542   4.712   4.734   7.238  2.3842 -0.3827 -1.1398
   61MOL    C23 8543   4.563   4.582   7.260 -0.1346  0.1333 -0.4360
   61MOL    C24 8544   4.469   4.641   7.153 -0.2997 -0.3069 -0.9108
   61MOL    C25 8545   4.492   4.789   7.143  0.1343  0.4233 -0.1319
   61MOL    N26 8546   4.512   4.901   7.130 -0.1275  0.1163  0.1588
   61MOL    H27 8547   4.564   4.474   7.245 -1.1630 -0.0999  1.0214
   61MOL    H28 8548   4.515   4.604   7.355  1.8812 -0.8678  0.8469
   61MOL    H29 8549   4.369   4.628   7.193  0.2349 -0.1125  0.5333
   61MOL    C30 8550   4.479   4.567   7.014 -0.4357 -0.2427 -0.5128
   61MOL    C31 8551   4.370   4.587   6.905  0.1994 -0.4746 -0.0528
   61MOL    C32 8552   4.237   4.545   6.957  0.1732  0.4975  0.7176
   61MOL    N33 8553   4.130   4.521   7.002  0.4687 -0.2123 -0.3265
   61MOL    H34 8554   4.577   4.584   6.969 -0.1010 -0.4996  0.1187
   61MOL    H35 8555   4.480   4.460   7.034 -1.8406 -0.7002 -2.7086
   61MOL    H36 8556   4.399   4.521   6.824  2.9155  1.2325 -0.5315
   61MOL    C37 8557   4.366   4.735   6.848  0.0823 -0.3244 -0.3854
   61MOL    C38 8558   4.255   4.763   6.747  0.6063  0.7025  0.2469
   61MOL    C39 8559   4.224   4.906   6.709 -0.2620  0.3429 -0.4025
   61MOL    N40 8560   4.198   5.011   6.688 -0.0377  0.8554  0.2522
   61MOL    H41 8561   4.340   4.809   6.924  0.0357 -0.1801 -0.5440
   61MOL    H42 8562   4.455   4.769   6.795  0.0138  0.0336 -0.2717
   61MOL    H43 8563   4.164   4.750   6.805 -0.1462  1.1311 -0.8490
   61MOL    C44 8564   4.247   4.659   6.633  0.4968 -0.0810  0.2006
   61MOL    C45 8565   4.370   4.635   6.546 -0.1050  0.5260 -0.3500
   61MOL    C46 8566   4.338   4.517   6.455  0.0339  0.0673  0.3450
   61MOL    N47 8567   4.318   4.425   6.386 -0.0008  0.1298  0.2459
   61MOL    H48 8568   4.221   4.558   6.664 -1.4359  0.0748 -0.8468
   61MOL    H49 8569   4.169   4.675   6.559 -0.1229 -2.1087  0.3677
   61MOL    H50 8570   4.450   4.600   6.611  0.2113  1.7906 -0.0647
   61MOL    C51 8571   4.411   4.770   6.477 -0.0147 -0.2498 -0.2776
   61MOL    C52 8572   4.527   4.761   6.376  0.8265  0.8505 -0.2235
   61MOL    C53 8573   4.553   4.899   6.326 -0.2678  0.3758  0.1001
   61MOL    N54 8574   4.569   5.011   6.285 -0.2469 -0.0446  0.5019
   61MOL    H55 8575   4.325   4.810   6.424  1.6266  0.8724 -2.1495
   61MOL    H56 8576   4.440   4.834   6.561 -1.0623 -1.0695  0.7326
   61MOL    H57 8577   4.499   4.696   6.293  0.6347  0.6796 -0.0218
   61MOL    C58 8578   4.654   4.698   6.430  0.3376 -0.2191 -0.3876
   61MOL    C59 8579   4.662   4.545   6.437 -0.4377 -0.0257 -0.0011
   61MOL    C60 8580   4.638   4.484   6.306  0.2632 -0.3664  0.2383
   61MOL    N61 8581   4.615   4.444   6.198  0.0152 -0.1656 -0.2101
   61MOL    H62 8582   4.738   4.731   6.368  1.1404 -1.6833 -0.1082
   61MOL    H63 8583   4.656   4.743   6.530  0.6235  1.3917 -1.1033
   61MOL    H64 8584   4.588   4.508   6.507 -0.9935  0.8213 -0.1244
   61MOL    C65 8585   4.793   4.497   6.495 -0.6934  0.0213 -0.6742
   61MOL    C66 8586   4.802   4.343   6.530  0.1113 -0.3022 -0.0758
   61MOL    C67 8587   4.846   4.265   6.413  0.2173  1.0717  0.2594
   61MOL    N68 8588   4.881   4.203   6.322 -0.7031 -0.4459  0.0005
   61MOL    H69 8589   4.871   4.527   6.424 -0.2742  0.7337  0.0693
   61MOL    H70 8590   4.811   4.550   6.589 -2.0074 -1.0812  0.2197
   61MOL    H71 8591   4.704   4.314   6.566  1.3134 -1.5781  2.2499
   61MOL    C72 8592   4.886   4.320   6.656  0.7835  0.3478 -0.1487
   61MOL    C73 8593   4.858   4.185   6.719 -0.7853 -0.4581 -0.5714
   61MOL    C74 8594   4.855   4.072   6.628 -0.6618 -0.1070  0.1268
   61MOL    N75 8595   4.852   3.981   6.558  0.0314 -0.6687  0.6114
   61MOL    H76 8596   4.992   4.345   6.643  0.5771  1.6595  0.5533
   61MOL    H77 8597   4.858   4.394   6.730  0.2053 -1.3399  1.3367
   61MOL    H78 8598   4.755   4.195   6.751 -0.3203  2.7513  0.0765
   61MOL    C79 8599   4.931   4.142   6.845 -0.2203  0.0090 -0.1604
   61MOL    C80 8600   4.900   4.236   6.963  0.1247 -0.6454  0.6969
   61MOL    C81 8601   4.757   4.249   7.000 -0.5649  0.2562 -0.2784
   61MOL    N82 8602   4.649   4.262   7.025 -0.4569 -0.3653 -0.7468
   61MOL    H83 8603   4.911   4.036   6.866 -1.4721  0.4368  0.9388
   61MOL    H84 8604   5.037   4.153   6.824 -0.1095 -0.8035 -0.0600
   61MOL    H85 8605   4.929   4.330   6.917  0.1541 -0.3518  1.3160
   61MOL    C86 8606   4.999   4.211   7.086  0.0495 -0.1060 -0.0207
   61MOL    C87 8607   4.934   4.144   7.209 -1.2510 -0.1776 -0.3733
   61MOL    C88 8608   4.877   4.015   7.166  0.7539 -0.2389  0.6214
   61MOL    N89 8609   4.828   3.920   7.126  0.5407  0.4079 -0.3047
   61MOL    H90 8610   5.074   4.140   7.051 -1.8799 -2.0742 -0.2148
   61MOL    H91 8611   5.051   4.305   7.107 -1.2565  0.5536  0.3304
   61MOL    H92 8612   4.850   4.205   7.241 -0.2149  1.3988 -0.6104
   61MOL    C93 8613   5.029   4.129   7.327  0.2419 -0.3503  0.2105
   61MOL    C94 8614   4.968   4.079   7.459  0.4960 -0.1714  0.1194
   61MOL    C95 8615   5.028   3.947   7.493 -0.7477 -0.1495 -0.3632
   61MOL    N96 8616   5.082   3.844   7.517 -0.2888 -0.7278 -0.3179
   61MOL    H97 8617   5.109   4.062   7.295  0.0000 -0.8166  0.5637
   61MOL    H98 8618   5.083   4.223   7.336  0.2334 -0.2309 -1.0253
   61MOL    H99 8619   4.866   4.046   7.436  0.0202 -0.1254  2.1302
   61MOL   C100 8620   4.973   4.174   7.580  0.8602  0.0015 -0.0409
   61MOL   C101 8621   5.100   4.172   7.662  0.1008  0.1275  0.0259
   61MOL   C102 8622   5.215   4.210   7.578  0.6378 -0.2691 -0.3695
   61MOL   N103 8623   5.303   4.233   7.510 -0.1703 -0.3668 -0.4049
   61MOL   H104 8624   4.944   4.276   7.555  0.7647 -0.4072 -1.6606
   61MOL   H105 8625   4.891   4.135   7.641 -0.6098  0.2153 -1.8336
   61MOL   H106 8626   5.114   4.069   7.695 -0.2668  0.3134  0.7739
   61MOL   C107 8627   5.071   4.263   7.788  0.1488 -0.0366 -0.4224
   61MOL   C108 8628   5.195   4.262   7.884 -0.3160  0.5615  0.2164
   61MOL   C109 8629   5.167   4.354   7.997 -0.0401 -0.4285 -0.2912
   61MOL   N110 8630   5.137   4.428   8.083  0.2002 -0.3961 -0.5241
   61MOL   H111 8631   5.049   4.366   7.761 -1.6084  0.0886  1.4287
   61MOL   H112 8632   4.996   4.225   7.857  0.6406 -1.1781 -0.4931
   61MOL   H113 8633   5.280   4.304   7.830  0.7599  0.1248  1.5645
   61MOL   C114 8634   5.235   4.121   7.940 -0.4944  0.0969  0.0131
   61MOL   C115 8635   5.169   4.088   8.076 -0.1831 -0.5714 -0.2025
   61MOL   C116 8636   5.019   4.080   8.060  0.4091 -0.1757 -0.0078
   61MOL   N117 8637   4.903   4.075   8.048  0.2189  0.6685  0.0296
   61MOL   H118 8638   5.227   4.046   7.861 -0.4189  0.9941 -0.8508
   61MOL   H119 8639   5.342   4.133   7.961 -0.3824  1.2408 -1.1713
   61MOL   H120 8640   5.193   4.171   8.143 -0.7571 -1.7871  1.5486
   61MOL   C121 8641   5.230   3.953   8.130  1.0738  0.6122  0.1236
   61MOL   C122 8642   5.202   3.893   8.265 -0.6196  0.3573 -0.4310
   61MOL   C123 8643   5.226   3.988   0.065  0.2994 -0.3805 -0.0121
   61MOL   N124 8644   5.248   4.056   0.157  0.3711  0.0958 -0.1736
   61MOL   H125 8645   5.216   3.881   8.049  0.5638 -0.4945  1.1818
   61MOL   H126 8646   5.336   3.972   8.118  0.5641  1.7592 -3.3522
   61MOL   H127 8647   5.278   3.817   8.284 -0.0945  0.5640 -1.5992
   61MOL   C128 8648   5.063   3.822   8.263 -0.2636  0.1057  0.5099
   61MOL   C129 8649   5.019   3.743   0.073 -0.2720 -0.6459  0.1392
   61MOL   C130 8650   4.879   3.784   0.102 -0.2110  0.1662  0.0846
   61MOL   N131 8651   4.769   3.812   0.131  0.4029  0.5353 -0.6093
   61MOL   H132 8652   4.993   3.904   8.253 -2.1994 -1.5638  0.1724
   61MOL   H133 8653   5.046   3.764   8.173  0.3745  1.4635 -0.4894
   61MOL   H134 8654   5.089   3.769   0.153  1.8204 -3.7520 -0.5748
   61MOL   C135 8655   5.042   3.595   0.068 -0.4020 -0.0303  0.3756
   61MOL   C136 8656   5.187   3.555   0.090 -0.3313 -0.0759  0.1294
   61MOL   C137 8657   5.207   3.411   0.077  0.1914  0.0328 -0.1445
   61MOL   N138 8658   5.218   3.299   0.062  0.8058 -0.2068 -0.0984
   61MOL   H139 8659   4.983   3.543   0.143  0.2469 -1.8408 -0.3421
   61MOL   H140 8660   5.002   3.554   8.287 -1.2944 -1.2852  1.3060
   61MOL   H141 8661   5.214   3.591   0.190  1.4283  0.1699 -0.4118
   61MOL   H142 8662   5.260   3.603   0.025  2.7625 -1.8126  2.1544
   62MOL     C1 8663   6.410   0.937   2.511 -0.2378  0.6200 -0.2474
   62MOL     C2 8664   6.283   0.857   2.528  0.5038 -0.3307  0.1652
   62MOL     C3 8665   6.283   0.788   2.657  0.3196  0.6642 -0.3635
   62MOL     N4 8666   6.276   0.731   2.758  0.1601 -0.3248 -0.6248
   62MOL     H5 8667   6.413   1.019   2.583 -0.3779  0.3720  0.0442
   62MOL     H6 8668   6.422   0.999   2.422  0.2248  0.1161 -0.5396
   62MOL     H7 8669   6.284   0.779   2.452 -0.1689 -1.4562  1.3009
   62MOL     H8 8670   6.504   0.883   2.520  0.1670  1.2939 -0.3464
   62MOL     C9 8671   6.148   0.938   2.502  0.1290 -0.5361  0.3980
   62MOL    C10 8672   6.021   0.853   2.508 -0.5741 -0.7735 -1.2738
   62MOL    C11 8673   5.968   0.806   2.639  0.8271 -0.0930 -0.4378
   62MOL    N12 8674   5.924   0.765   2.740 -0.2991 -0.3445  0.2803
   62MOL    H13 8675   6.149   1.019   2.576  2.5135 -0.5142  0.3874
   62MOL    H14 8676   6.169   0.974   2.402  2.4740  0.9947  1.3859
   62MOL    H15 8677   6.055   0.758   2.467  1.4695 -0.0984 -1.2369
   62MOL    C16 8678   5.910   0.906   2.428  0.1883  0.6683 -0.9830
   62MOL    C17 8679   5.944   0.936   2.279  0.8658 -0.7587 -0.6975
   62MOL    C18 8680   6.026   0.836   2.225 -0.3897  0.1585 -0.5443
   62MOL    N19 8681   6.090   0.751   2.181 -0.0929 -0.2796 -0.1753
   62MOL    H20 8682   5.829   0.835   2.442  0.0625  1.1212  0.7974
   62MOL    H21 8683   5.877   0.999   2.475 -0.1648  0.2749 -0.4562
   62MOL    H22 8684   6.003   1.027   2.273  0.7914 -0.5480  1.5598
   62MOL    C23 8685   5.810   0.960   2.197 -0.1695 -0.2979 -0.4532
   62MOL    C24 8686   5.824   1.040   2.065  0.2613  0.4917 -0.4632
   62MOL    C25 8687   5.864   1.177   2.087 -0.0621 -1.1500 -0.3341
   62MOL    N26 8688   5.893   1.288   2.107  0.5321  0.2435 -0.2621
   62MOL    H27 8689   5.772   0.862   2.168 -0.6256 -0.3042  0.1397
   62MOL    H28 8690   5.727   1.006   2.251 -0.2716 -1.2781  0.2554
   62MOL    H29 8691   5.726   1.053   2.020  0.4287  0.4269 -0.8510
   62MOL    C30 8692   5.915   0.983   1.954 -0.0545 -0.0835 -0.1311
   62MOL    C31 8693   5.882   1.029   1.812 -0.0409 -0.2479  0.9437
   62MOL    C32 8694   5.957   1.151   1.778  1.0860 -0.7481  0.1065
   62MOL    N33 8695   6.013   1.249   1.748  0.4584 -0.0024 -0.2784
   62MOL    H34 8696   6.019   0.988   1.985 -0.5828 -0.3721  1.7457
   62MOL    H35 8697   5.906   0.875   1.962 -1.8447  0.1387  0.9190
   62MOL    H36 8698   5.778   1.041   1.782  0.5274  1.7396 -0.3452
   62MOL    C37 8699   5.918   0.913   1.704  0.4161  0.0449  0.5664
   62MOL    C38 8700   5.861   0.925   1.561 -0.2951 -0.3168 -0.5077
   62MOL    C39 8701   5.874   1.054   1.498 -0.0096  0.4002 -0.1039
   62MOL    N40 8702   5.885   1.155   1.446  0.2785  1.1009  0.5011
   62MOL    H41 8703   6.025   0.907   1.685  0.8927 -0.6277  3.2251
   62MOL    H42 8704   5.882   0.822   1.752 -0.6738 -0.7235 -1.6527
   62MOL    H43 8705   5.753   0.910   1.566 -0.0164 -2.1125  0.8442
   62MOL    C44 8706   5.919   0.803   1.478  0.4728 -0.1934  0.0569
   62MOL    C45 8707   5.864   0.793   1.329 -0.4438 -0.7430  0.3639
   62MOL    C46 8708   5.950   0.694   1.254  0.6779  0.1753 -0.0189
   62MOL    N47 8709   6.017   0.619   1.187  0.5887 -0.6886 -0.1778
   62MOL    H48 8710   6.024   0.812   1.450  0.3997 -2.4526 -1.0580
   62MOL    H49 8711   5.910   0.710   1.534 -1.5531 -0.8778 -1.3581
   62MOL    H50 8712   5.869   0.891   1.281 -1.0377  0.0518  1.9050
   62MOL    C51 8713   5.720   0.736   1.330 -0.2452 -0.1019  0.0441
   62MOL    C52 8714   5.654   0.769   1.190  0.0200 -0.1669  0.0977
   62MOL    C53 8715   5.682   0.667   1.093 -0.2472  0.3287 -0.6507
   62MOL    N54 8716   5.702   0.584   1.013 -0.4315 -0.1652 -0.5708
   62MOL    H55 8717   5.715   0.629   1.351  0.4268 -0.2593 -0.6003
   62MOL    H56 8718   5.669   0.782   1.414 -2.8982 -2.4304 -0.1843
   62MOL    H57 8719   5.700   0.858   1.148 -2.5401 -0.1909 -2.9742
   62MOL    C58 8720   5.501   0.807   1.190 -0.9534 -0.5761 -0.2666
   62MOL    C59 8721   5.401   0.712   1.123  0.3873  0.4310  0.2391
   62MOL    C60 8722   5.414   0.712   0.972  0.0225  0.8481  0.5177
   62MOL    N61 8723   5.422   0.712   0.859 -0.2541 -0.3833 -0.1707
   62MOL    H62 8724   5.473   0.817   1.295  0.7024 -0.4270  0.1712
   62MOL    H63 8725   5.500   0.909   1.150  1.8985 -0.7522 -0.8792
   62MOL    H64 8726   5.306   0.761   1.144 -0.0498  0.3521 -1.4793
   62MOL    C65 8727   5.395   0.575   1.179  0.3535 -1.2483 -0.5091
   62MOL    C66 8728   5.319   0.574   1.317 -0.7260 -0.1470  0.1012
   62MOL    C67 8729   5.184   0.613   1.308 -0.6469 -0.4224 -0.3877
   62MOL    N68 8730   5.074   0.641   1.296 -0.0374  0.2352  0.3997
   62MOL    H69 8731   5.335   0.510   1.116 -0.4778 -1.8070  0.8327
   62MOL    H70 8732   5.500   0.551   1.197  0.8004  0.9297 -0.0419
   62MOL    H71 8733   5.350   0.652   1.386 -1.8529 -0.1564  0.6238
   62MOL    C72 8734   5.337   0.435   1.388 -0.1377  0.0142 -0.0968
   62MOL    C73 8735   5.252   0.404   1.507  0.6718  0.2000 -0.3853
   62MOL    C74 8736   5.270   0.267   1.562 -0.4679 -0.1688  0.3949
   62MOL    N75 8737   5.286   0.165   1.610  0.4880 -0.0866  0.1302
   62MOL    H76 8738   5.330   0.356   1.313  2.4807  0.0176 -0.4184
   62MOL    H77 8739   5.439   0.426   1.428  0.1388 -2.0151 -1.1770
   62MOL    H78 8740   5.147   0.401   1.477  1.2730 -1.8305 -2.3604
   62MOL    C79 8741   5.252   0.504   1.630  0.3873 -0.4640 -0.0442
   62MOL    C80 8742   5.375   0.505   1.731  0.4645  0.8809  0.7885
   62MOL    C81 8743   5.497   0.542   1.667 -0.2530 -0.3578  0.5768
   62MOL    N82 8744   5.592   0.568   1.607 -0.3277  0.0015 -0.0867
   62MOL    H83 8745   5.225   0.604   1.597 -0.4998 -0.3561  0.9624
   62MOL    H84 8746   5.173   0.473   1.698  1.2763 -0.1290  1.1484
   62MOL    H85 8747   5.395   0.402   1.762  2.5687  1.4016  1.2413
   62MOL    C86 8748   5.346   0.594   1.856 -0.2004 -0.3308 -0.1925
   62MOL    C87 8749   5.452   0.573   1.973 -0.1898  0.5702  0.1656
   62MOL    C88 8750   5.590   0.615   1.942  0.4929  0.1330 -0.1739
   62MOL    N89 8751   5.699   0.652   1.925  0.1266  0.0270  0.1130
   62MOL    H90 8752   5.316   0.695   1.829  1.1573  0.0464 -0.3402
   62MOL    H91 8753   5.249   0.567   1.897 -0.3021  2.3435  1.4307
   62MOL    H92 8754   5.450   0.467   1.999  0.2574  0.8879  1.5887
   62MOL    C93 8755   5.417   0.666   2.096  0.2168  0.1481 -0.2185
   62MOL    C94 8756   5.434   0.823   2.086 -0.9145  0.2666 -0.4256
   62MOL    C95 8757   5.343   0.886   1.991 -0.2982 -0.4913 -0.7845
   62MOL    N96 8758   5.271   0.937   1.919  0.4755 -0.6818  0.5277
   62MOL    H97 8759   5.318   0.650   2.139 -0.8223  0.3542 -2.4767
   62MOL    H98 8760   5.482   0.632   2.177 -3.0670 -0.2855  2.3446
   62MOL    H99 8761   5.536   0.845   2.057 -0.5616 -0.7327  0.0335
   62MOL   C100 8762   5.422   0.882   2.225  0.0797  0.9504  0.5286
   62MOL   C101 8763   5.271   0.928   2.258 -0.4428  0.3946 -0.2132
   62MOL   C102 8764   5.161   0.825   2.246 -0.4349  0.0424  0.0398
   62MOL   N103 8765   5.087   0.742   2.234  0.4983 -0.0866  0.4490
   62MOL   H104 8766   5.455   0.820   2.309 -1.3069  1.3239  1.3608
   62MOL   H105 8767   5.487   0.970   2.233 -1.3453  1.8815  2.0997
   62MOL   H106 8768   5.239   1.006   2.189  0.6248  1.6161  0.6446
   62MOL   C107 8769   5.263   0.998   2.401 -0.2715 -0.0818  0.3796
   62MOL   C108 8770   5.144   1.093   2.414  0.7560  0.9222 -0.2874
   62MOL   C109 8771   5.138   1.131   2.552 -0.0688 -0.1666  0.3263
   62MOL   N110 8772   5.136   1.167   2.662  0.2956  0.4098 -0.6796
   62MOL   H111 8773   5.265   0.921   2.477 -1.7680 -2.4343 -1.9026
   62MOL   H112 8774   5.350   1.052   2.441 -1.3195  1.3985  0.7134
   62MOL   H113 8775   5.056   1.040   2.378  0.2128  1.4752  0.1962
   62MOL   C114 8776   5.141   1.219   2.329  0.5068 -0.0062  0.0029
   62MOL   C115 8777   5.270   1.303   2.326  0.2206  0.3024 -0.3685
   62MOL   C116 8778   5.274   1.383   2.207  0.0160  0.7998  0.5643
   62MOL   N117 8779   5.277   1.442   2.107  0.2297 -0.3403 -0.1468
   62MOL   H118 8780   5.141   1.183   2.227 -0.3788 -1.4958  0.5184
   62MOL   H119 8781   5.046   1.272   2.344  0.1927 -0.0311 -1.8200
   62MOL   H120 8782   5.357   1.239   2.317 -0.2786 -0.3137 -0.8120
   62MOL   C121 8783   5.293   1.388   2.455 -0.3742 -0.1303 -0.5872
   62MOL   C122 8784   5.387   1.506   2.437 -0.0094 -0.7949  0.6101
   62MOL   C123 8785   5.396   1.587   2.557 -0.4820  0.2024  0.2036
   62MOL   N124 8786   5.401   1.650   2.655  0.2359 -0.5366 -0.1402
   62MOL   H125 8787   5.198   1.418   2.500 -0.6077 -1.0613 -0.4451
   62MOL   H126 8788   5.338   1.330   2.535 -0.7277 -0.8073 -0.8655
   62MOL   H127 8789   5.337   1.579   2.373  0.7888 -1.6710 -1.0417
   62MOL   C128 8790   5.529   1.479   2.376  0.3988 -0.4608  1.5646
   62MOL   C129 8791   5.633   1.394   2.460 -0.4371 -1.0031 -0.2536
   62MOL   C130 8792   5.616   1.248   2.456 -0.0102  0.5290 -0.1347
   62MOL   N131 8793   5.594   1.137   2.449 -0.4537 -0.4922 -0.8267
   62MOL   H132 8794   5.513   1.422   2.285  0.9814 -1.0600  1.8239
   62MOL   H133 8795   5.572   1.576   2.354 -0.3242 -0.3722  0.5342
   62MOL   H134 8796   5.646   1.437   2.560  1.6704  1.4717 -1.5316
   62MOL   C135 8797   5.778   1.411   2.419  0.1303  0.2528 -1.0220
   62MOL   C136 8798   5.883   1.339   2.518 -0.0294 -0.5631 -1.2255
   62MOL   C137 8799   5.879   1.396   2.658 -0.6600  0.2811  0.2405
   62MOL   N138 8800   5.871   1.439   2.763  0.0915 -0.2334 -0.0893
   62MOL   H139 8801   5.807   1.385   2.317 -1.3470 -0.0897 -1.3590
   62MOL   H140 8802   5.805   1.517   2.424 -0.6587  0.4370 -0.5983
   62MOL   H141 8803   5.985   1.355   2.484  0.4894  2.2108  1.4762
   62MOL   H142 8804   5.853   1.234   2.527  0.4907 -0.5874  0.3123
   63MOL     C1 8805   2.354   3.045   3.031  0.2155  0.3360  0.3139
   63MOL     C2 8806   2.274   2.922   3.011  0.2216  0.3971  0.5495
   63MOL     C3 8807   2.172   2.941   2.906  0.4738  0.2331 -0.0823
   63MOL     N4 8808   2.088   2.966   2.831 -0.3344  0.0057 -0.1689
   63MOL     H5 8809   2.436   3.056   2.959  0.9349  1.0170  1.2132
   63MOL     H6 8810   2.404   3.036   3.128 -1.5162  0.9970  1.2914
   63MOL     H7 8811   2.219   2.902   3.103  1.3413 -1.0200  0.9306
   63MOL     H8 8812   2.291   3.134   3.025 -0.2995 -0.1908 -2.6839
   63MOL     C9 8813   2.356   2.801   2.980 -0.3179  0.6487  0.3852
   63MOL    C10 8814   2.435   2.743   3.099 -0.7447 -0.1628 -0.1267
   63MOL    C11 8815   2.344   2.694   3.210  0.4491 -0.4475  1.1925
   63MOL    N12 8816   2.270   2.655   3.289  0.8972 -0.2262  0.4250
   63MOL    H13 8817   2.294   2.716   2.955  0.1726  0.2354  0.5629
   63MOL    H14 8818   2.410   2.824   2.889 -1.7491  0.6471 -0.4722
   63MOL    H15 8819   2.500   2.826   3.128  2.5738 -2.5289 -0.5705
   63MOL    C16 8820   2.533   2.632   3.043  0.7564  0.3502  0.0282
   63MOL    C17 8821   2.655   2.675   2.959  0.3890  0.1635 -0.3769
   63MOL    C18 8822   2.759   2.719   3.057  0.4443 -0.7677  0.5234
   63MOL    N19 8823   2.845   2.752   3.130  0.1153 -0.3293 -0.2235
   63MOL    H20 8824   2.572   2.580   3.130 -1.6970  0.7415  1.4162
   63MOL    H21 8825   2.474   2.554   2.994 -1.7633  0.4939  2.6712
   63MOL    H22 8826   2.606   2.760   2.913 -1.4158 -0.7554 -0.1678
   63MOL    C23 8827   2.706   2.569   2.865 -0.4360 -0.3838  0.2482
   63MOL    C24 8828   2.729   2.630   2.727  0.4177  0.1127 -0.3702
   63MOL    C25 8829   2.818   2.742   2.731  0.3792  0.1980  0.3910
   63MOL    N26 8830   2.888   2.835   2.734 -0.2564  0.1648 -0.0939
   63MOL    H27 8831   2.802   2.533   2.902  1.2664  1.9965 -1.7104
   63MOL    H28 8832   2.641   2.481   2.864 -0.0035 -0.7028  0.2544
   63MOL    H29 8833   2.639   2.687   2.704 -1.5658 -2.0630  1.7307
   63MOL    C30 8834   2.746   2.524   2.612 -0.3858 -0.0610 -0.3211
   63MOL    C31 8835   2.773   2.573   2.467  0.4023  0.0115 -0.1506
   63MOL    C32 8836   2.842   2.478   2.383  0.6090 -0.6776 -0.6607
   63MOL    N33 8837   2.891   2.399   2.315  0.3815  0.0651  0.3855
   63MOL    H34 8838   2.834   2.464   2.634 -0.4243 -0.3380 -0.9237
   63MOL    H35 8839   2.662   2.454   2.615 -0.5535  0.1712  4.9287
   63MOL    H36 8840   2.846   2.655   2.463  1.9625 -1.4034 -1.1690
   63MOL    C37 8841   2.631   2.629   2.410  0.0895 -0.0916  0.4070
   63MOL    C38 8842   2.626   2.630   2.255  0.0218 -0.1058 -0.7876
   63MOL    C39 8843   2.486   2.606   2.210 -0.2199 -0.2155 -0.1039
   63MOL    N40 8844   2.377   2.597   2.176  0.1989 -0.0696  0.1569
   63MOL    H41 8845   2.554   2.555   2.435  1.5769 -1.4052  1.2103
   63MOL    H42 8846   2.606   2.722   2.460  0.4269  0.6013 -0.7071
   63MOL    H43 8847   2.678   2.544   2.212  0.1083 -0.2105 -0.4770
   63MOL    C44 8848   2.696   2.762   2.204 -0.1510  0.4119  0.3273
   63MOL    C45 8849   2.676   2.790   2.053  1.0370 -0.1128 -0.0962
   63MOL    C46 8850   2.727   2.919   2.003 -0.7701  0.3429  0.3571
   63MOL    N47 8851   2.776   3.019   1.973  0.0420  0.5486  0.2670
   63MOL    H48 8852   2.649   2.853   2.242 -0.8180  0.4838 -0.6483
   63MOL    H49 8853   2.800   2.758   2.237  0.3301  1.6885 -0.9939
   63MOL    H50 8854   2.569   2.807   2.041  0.9187 -1.3599 -0.8461
   63MOL    C51 8855   2.705   2.671   1.965 -0.3882 -0.2690 -0.2019
   63MOL    C52 8856   2.850   2.649   1.919  1.0043 -0.2506  0.8664
   63MOL    C53 8857   2.942   2.676   2.029  0.4362  0.2235 -0.0926
   63MOL    N54 8858   3.014   2.698   2.121 -1.0486  0.1931  0.3338
   63MOL    H55 8859   2.674   2.579   2.013 -1.1817 -0.2161 -0.6226
   63MOL    H56 8860   2.641   2.675   1.877  0.1683 -2.1934 -0.7091
   63MOL    H57 8861   2.879   2.727   1.848  2.3958 -0.5839  1.0573
   63MOL    C58 8862   2.878   2.513   1.849  0.3596  0.3334  0.4329
   63MOL    C59 8863   3.003   2.505   1.758 -0.5218  0.1080 -0.2859
   63MOL    C60 8864   3.135   2.533   1.821  0.3937 -0.2239 -0.2478
   63MOL    N61 8865   3.239   2.557   1.867 -0.2872 -0.2200 -0.4086
   63MOL    H62 8866   2.893   2.433   1.922 -0.4664  0.6094  0.9195
   63MOL    H63 8867   2.788   2.480   1.796  0.3905 -1.1185  1.2509
   63MOL    H64 8868   2.997   2.586   1.685 -1.1249  1.2959  1.0605
   63MOL    C65 8869   3.008   2.377   1.681 -0.1923  0.2635 -0.2119
   63MOL    C66 8870   2.942   2.382   1.542  0.8694  0.0075  0.2513
   63MOL    C67 8871   3.006   2.289   1.446 -0.0846  0.2876  0.9960
   63MOL    N68 8872   3.054   2.225   1.361  0.2694 -0.4749  0.2405
   63MOL    H69 8873   3.113   2.357   1.660  0.0620  1.4840 -0.1613
   63MOL    H70 8874   2.981   2.283   1.729 -1.0756  0.0147 -1.1821
   63MOL    H71 8875   2.967   2.481   1.505  1.0732  0.0327  0.4592
   63MOL    C72 8876   2.788   2.390   1.545  0.0966  0.0642  0.5905
   63MOL    C73 8877   2.722   2.400   1.406 -0.1609 -0.0810  0.9721
   63MOL    C74 8878   2.745   2.283   1.317 -0.8389  0.1644 -0.9963
   63MOL    N75 8879   2.759   2.198   1.237  0.6510  0.4107  0.5228
   63MOL    H76 8880   2.747   2.311   1.607 -1.1485 -1.2909 -1.8758
   63MOL    H77 8881   2.748   2.484   1.583 -0.3650 -0.5122  1.5396
   63MOL    H78 8882   2.777   2.479   1.356 -0.8697  0.4225  0.9874
   63MOL    C79 8883   2.572   2.439   1.406 -0.3958 -0.2336  0.2243
   63MOL    C80 8884   2.505   2.492   1.279  0.0828  0.2576 -0.5039
   63MOL    C81 8885   2.467   2.383   1.188 -0.0683 -0.4060 -0.8742
   63MOL    N82 8886   2.436   2.293   1.129 -0.1637  0.8791  0.1656
   63MOL    H83 8887   2.525   2.346   1.440  0.3033 -0.9335 -0.7132
   63MOL    H84 8888   2.555   2.520   1.478 -1.9530 -0.7839  0.5023
   63MOL    H85 8889   2.580   2.542   1.217  0.4070  0.0311 -0.2979
   63MOL    C86 8890   2.390   2.588   1.309  0.1614  0.1968 -0.2427
   63MOL    C87 8891   2.300   2.641   1.193  0.8141  0.9610  0.1652
   63MOL    C88 8892   2.373   2.674   1.069  1.0615 -0.8623  0.6426
   63MOL    N89 8893   2.428   2.705   0.974 -0.2050  0.4765  0.3760
   63MOL    H90 8894   2.321   2.563   1.389  0.4081  0.1685 -0.0391
   63MOL    H91 8895   2.446   2.667   1.359  1.0885 -0.8359  0.3810
   63MOL    H92 8896   2.264   2.740   1.219  0.9961  0.8000  1.0419
   63MOL    C93 8897   2.183   2.556   1.173  0.1014 -0.2239  0.2704
   63MOL    C94 8898   2.066   2.616   1.081  0.1752 -0.7068  0.3456
   63MOL    C95 8899   2.012   2.748   1.124 -0.2101  0.1656 -0.3682
   63MOL    N96 8900   1.974   2.854   1.155 -0.4244 -0.7763 -0.1670
   63MOL    H97 8901   2.224   2.460   1.141 -0.6668 -1.1148  1.8718
   63MOL    H98 8902   2.133   2.538   1.268 -0.0756  1.3207  0.4693
   63MOL    H99 8903   1.977   2.554   1.076  0.1463 -0.6212 -0.3135
   63MOL   C100 8904   2.111   2.625   0.935 -0.7834  0.0353 -0.9791
   63MOL   C101 8905   1.992   2.627   0.832 -0.1447  0.6344  0.0557
   63MOL   C102 8906   1.969   2.765   0.795  0.5266 -0.0288 -0.3623
   63MOL   N103 8907   1.944   2.873   0.765  0.4963  0.3905 -0.1645
   63MOL   H104 8908   2.172   2.712   0.911 -0.7583  1.1101  2.6898
   63MOL   H105 8909   2.163   2.531   0.913  2.0247  1.1930  0.4504
   63MOL   H106 8910   1.903   2.580   0.875 -0.4139 -3.1814 -4.2761
   63MOL   C107 8911   2.025   2.555   0.698  0.2927 -0.9056  0.2593
   63MOL   C108 8912   1.929   2.435   0.674  0.3133  0.1907  0.4360
   63MOL   C109 8913   1.934   2.404   0.527 -0.1417 -0.3599  0.0572
   63MOL   N110 8914   1.938   2.370   0.414 -0.2477  0.4734  0.4248
   63MOL   H111 8915   1.998   2.624   0.618  0.9531 -2.1068 -1.0163
   63MOL   H112 8916   2.131   2.531   0.692  0.0677 -1.7356 -0.4720
   63MOL   H113 8917   1.831   2.474   0.698  0.1442 -0.0384  0.1196
   63MOL   C114 8918   1.962   2.314   0.766 -0.5810 -0.5495 -0.0864
   63MOL   C115 8919   1.843   2.251   0.837  0.2170  0.2091  0.1089
   63MOL   C116 8920   1.775   2.342   0.932  0.7880 -0.4778  0.6701
   63MOL   N117 8921   1.724   2.414   1.013  0.3102 -0.2775  0.3911
   63MOL   H118 8922   2.015   2.238   0.710  1.3199  0.4174  0.3500
   63MOL   H119 8923   2.031   2.348   0.844 -1.5536 -0.6223  0.8074
   63MOL   H120 8924   1.892   2.171   0.893  0.5950  0.2424 -0.1726
   63MOL   C121 8925   1.745   2.184   0.741  0.3607  0.0641  0.3358
   63MOL   C122 8926   1.796   2.077   0.641 -0.5611  0.1107  0.5196
   63MOL   C123 8927   1.875   1.974   0.708 -0.1513  0.0615 -0.2230
   63MOL   N124 8928   1.932   1.882   0.757  0.6732  0.2526 -0.3155
   63MOL   H125 8929   1.668   2.142   0.806  0.5783  1.0280  1.2260
   63MOL   H126 8930   1.694   2.259   0.681 -0.0293 -0.5108 -0.0606
   63MOL   H127 8931   1.869   2.126   0.576 -0.4957  0.8352  1.1272
   63MOL   C128 8932   1.677   2.000   0.568 -0.6376  0.2232  1.2016
   63MOL   C129 8933   1.612   2.066   0.446 -0.1674  0.2662  0.2354
   63MOL   C130 8934   1.561   1.963   0.351 -0.0496 -0.3745 -0.1722
   63MOL   N131 8935   1.517   1.890   0.279  0.6267 -0.8422  0.1276
   63MOL   H132 8936   1.716   1.906   0.529 -1.7680  0.4648 -0.5914
   63MOL   H133 8937   1.600   1.975   0.640 -2.0839  1.6838  0.2043
   63MOL   H134 8938   1.697   2.116   0.399 -0.8718  0.7036 -0.5922
   63MOL   C135 8939   1.494   2.172   0.475 -0.0484  0.5176  0.2672
   63MOL   C136 8940   1.363   2.122   0.549 -0.0834  0.3013  1.1213
   63MOL   C137 8941   1.285   2.223   0.619 -0.5541  0.0401 -0.3339
   63MOL   N138 8942   1.226   2.308   0.673 -0.3155  0.0557 -0.5642
   63MOL   H139 8943   1.538   2.249   0.538  0.2378 -1.0367  1.9876
   63MOL   H140 8944   1.457   2.219   0.384 -0.9836 -1.0136 -0.1714
   63MOL   H141 8945   1.393   2.050   0.625 -0.3690  0.4918  1.4163
   63MOL   H142 8946   1.303   2.074   0.472 -1.1131 -0.2881  2.2784
   64MOL     C1 8947   0.799   0.744   6.294  0.4059  0.0883  0.1233
   64MOL     C2 8948   0.704   0.630   6.274 -0.0078 -0.8752  0.0223
   64MOL     C3 8949   0.782   0.513   6.240 -0.2001  0.3451  0.0959
   64MOL     N4 8950   0.838   0.419   6.209  0.0442  0.4834  0.0490
   64MOL     H5 8951   0.883   0.720   6.360  1.7925  2.1408 -0.8262
   64MOL     H6 8952   0.749   0.829   6.341  0.6056 -0.2521  0.9721
   64MOL     H7 8953   0.644   0.659   6.188  1.7458  0.6008 -0.7371
   64MOL     H8 8954   0.829   0.775   6.194  0.9125  0.3839  0.3606
   64MOL     C9 8955   0.608   0.586   6.396  0.2587 -0.3321  0.5228
   64MOL    C10 8956   0.519   0.467   6.362 -0.1029  0.1798  0.0061
   64MOL    C11 8957   0.426   0.439   6.475  0.2044 -0.5259  0.5906
   64MOL    N12 8958   0.355   0.419   6.564  0.1647  0.3874 -0.2275
   64MOL    H13 8959   0.669   0.560   6.482  2.7250 -1.1980 -1.3985
   64MOL    H14 8960   0.541   0.664   6.433 -0.1932  0.3386 -1.6137
   64MOL    H15 8961   0.576   0.374   6.355  0.6474  0.7506 -1.4882
   64MOL    C16 8962   0.439   0.474   6.225  0.1136 -0.1452  0.4221
   64MOL    C17 8963   0.335   0.589   6.206 -0.3594  0.0508  0.5445
   64MOL    C18 8964   0.384   0.726   6.201 -0.0766  0.4918 -0.3078
   64MOL    N19 8965   0.425   0.834   6.196  0.0199 -0.7602  0.7215
   64MOL    H20 8966   0.515   0.486   6.147  0.4388 -2.3133  0.3872
   64MOL    H21 8967   0.388   0.381   6.201 -0.2091 -0.3468  1.8813
   64MOL    H22 8968   0.278   0.591   6.299  1.0790 -0.5146  1.4455
   64MOL    C23 8969   0.247   0.563   6.079 -0.5669 -0.3008  0.0756
   64MOL    C24 8970   0.170   0.429   6.067 -0.4591 -0.5854 -0.4075
   64MOL    C25 8971   0.115   0.391   6.195 -0.4191  0.2308 -0.1950
   64MOL    N26 8972   0.067   0.363   6.298  0.0452 -0.6081  0.7908
   64MOL    H27 8973   0.182   0.650   6.077  1.8388  1.5691  1.0827
   64MOL    H28 8974   0.311   0.575   5.992  0.4829 -1.7458  0.6277
   64MOL    H29 8975   0.242   0.347   6.063 -1.6602 -1.6736  0.1904
   64MOL    C30 8976   0.075   0.406   5.946  0.0639 -0.7036 -0.5169
   64MOL    C31 8977   8.252   0.477   5.950 -0.3833  0.2318 -0.0837
   64MOL    C32 8978   8.200   0.478   5.808 -0.3479  0.0845  0.1616
   64MOL    N33 8979   8.155   0.472   5.701 -0.2144 -0.1883  0.2407
   64MOL    H34 8980   0.127   0.424   5.852 -0.2915 -0.9870 -0.7676
   64MOL    H35 8981   0.066   0.298   5.941  0.4154 -0.9624  3.0245
   64MOL    H36 8982   8.258   0.584   5.971  0.8076  0.1667 -0.0644
   64MOL    C37 8983   8.149   0.436   6.062  0.5272  0.1344  0.3296
   64MOL    C38 8984   8.013   0.502   6.075  0.5617  0.1859 -0.0937
   64MOL    C39 8985   8.022   0.638   6.022  0.3378  0.7949 -0.0119
   64MOL    N40 8986   8.033   0.747   5.985 -0.0338 -0.5005  0.2289
   64MOL    H41 8987   8.132   0.330   6.047 -1.8961  0.5531 -0.0127
   64MOL    H42 8988   8.195   0.447   6.160  1.2313  0.4890 -0.0311
   64MOL    H43 8989   7.999   0.527   6.181  0.3442 -1.6173  0.3134
   64MOL    C44 8990   7.895   0.417   6.034  0.8191  0.3906 -0.1730
   64MOL    C45 8991   7.761   0.501   6.020 -0.9102 -0.2523  0.0523
   64MOL    C46 8992   7.760   0.585   5.900 -0.3601  0.0506 -0.1005
   64MOL    N47 8993   7.754   0.656   5.804 -0.8407  0.0804  0.3857
   64MOL    H48 8994   7.911   0.365   5.940  2.6181  0.5143  0.0529
   64MOL    H49 8995   7.887   0.336   6.106  0.7432  0.1092 -0.4950
   64MOL    H50 8996   7.751   0.581   6.093  1.3747 -0.6891  0.9060
   64MOL    C51 8997   7.634   0.421   6.049 -0.2685 -0.6760  0.1217
   64MOL    C52 8998   7.499   0.511   6.053  0.2291 -0.6147 -0.2999
   64MOL    C53 8999   7.525   0.644   6.120 -0.4828 -0.4877 -0.2599
   64MOL    N54 9000   7.544   0.751   6.164  0.8599 -0.0289  0.0201
   64MOL    H55 9001   7.630   0.348   5.968 -2.8839 -0.6544  0.1767
   64MOL    H56 9002   7.634   0.364   6.143 -0.2080  1.0727  1.2052
   64MOL    H57 9003   7.435   0.449   6.115  1.6755 -0.4604  1.3707
   64MOL    C58 9004   7.433   0.531   5.911 -0.1093 -0.0279  0.6291
   64MOL    C59 9005   7.391   0.408   5.833 -0.4832  0.0391 -0.1917
   64MOL    C60 9006   7.312   0.308   5.910 -0.1406 -1.3635  0.5624
   64MOL    N61 9007   7.250   0.231   5.970 -0.2145  0.0847 -0.2450
   64MOL    H62 9008   7.339   0.583   5.930  0.3614  1.2736 -0.5195
   64MOL    H63 9009   7.495   0.593   5.846  1.2165 -1.6776  0.2865
   64MOL    H64 9010   7.481   0.354   5.804 -0.7336 -0.2408 -0.4574
   64MOL    C65 9011   7.301   0.431   5.709  0.7895  0.0381 -0.0495
   64MOL    C66 9012   7.367   0.425   5.574 -0.2493 -0.0096 -0.6655
   64MOL    C67 9013   7.267   0.426   5.464 -0.2589 -0.2083  0.2241
   64MOL    N68 9014   7.189   0.421   5.382  0.1305  0.2260  0.4354
   64MOL    H69 9015   7.208   0.373   5.712  1.0988 -0.5014 -0.6008
   64MOL    H70 9016   7.280   0.537   5.716 -1.6991 -0.4936  1.0452
   64MOL    H71 9017   7.417   0.331   5.553  1.9527  0.8129  0.7860
   64MOL    C72 9018   7.484   0.516   5.555  0.3025 -0.4189 -0.8290
   64MOL    C73 9019   7.585   0.461   5.457  0.0399  1.0138  0.4661
   64MOL    C74 9020   7.552   0.483   5.313  0.6827 -0.7594  0.6706
   64MOL    N75 9021   7.524   0.502   5.197 -0.6183  0.7822  0.2138
   64MOL    H76 9022   7.444   0.608   5.513  0.3227 -0.8649 -1.8302
   64MOL    H77 9023   7.536   0.529   5.650  1.3468  0.6092 -1.5273
   64MOL    H78 9024   7.599   0.353   5.459 -0.8114  0.8884 -0.0313
   64MOL    C79 9025   7.724   0.524   5.476  0.0372 -0.1665 -0.4347
   64MOL    C80 9026   7.827   0.472   5.374  0.2873  0.0224 -0.1611
   64MOL    C81 9027   7.953   0.563   5.386  0.3246 -0.6120  0.0881
   64MOL    N82 9028   8.052   0.626   5.405  0.0841 -0.5122  0.2595
   64MOL    H83 9029   7.707   0.630   5.459  2.1901  0.1801 -0.6162
   64MOL    H84 9030   7.754   0.505   5.579 -0.1476  0.8466 -0.1900
   64MOL    H85 9031   7.785   0.487   5.274  0.6385 -0.1158 -0.3298
   64MOL    C86 9032   7.866   0.319   5.382  0.0232  0.1363 -0.0362
   64MOL    C87 9033   7.953   0.264   5.506  0.2031 -1.0089 -0.4948
   64MOL    C88 9034   7.878   0.269   5.637 -0.2213  1.0391  0.2557
   64MOL    N89 9035   7.813   0.280   5.735  0.6413  0.4432  0.4918
   64MOL    H90 9036   7.775   0.259   5.387  1.3955 -1.9990 -0.0314
   64MOL    H91 9037   7.927   0.305   5.293  0.2500 -0.3665  0.1984
   64MOL    H92 9038   8.040   0.327   5.528  0.9506 -1.7163 -1.3684
   64MOL    C93 9039   8.010   0.130   5.474 -0.4720 -0.1018  0.3680
   64MOL    C94 9040   8.062   0.034   5.589  0.4241  0.5785  0.4241
   64MOL    C95 9041   8.165   0.104   5.663  0.1687 -0.5794 -0.3449
   64MOL    N96 9042   8.242   0.161   5.730  0.3231  0.1741  0.0188
   64MOL    H97 9043   7.935   0.068   5.424 -1.1380 -0.1983  1.4744
   64MOL    H98 9044   8.089   0.154   5.402 -0.7148  0.0827  0.1597
   64MOL    H99 9045   8.114   8.275   5.526  0.3569  1.6277 -0.8596
   64MOL   C100 9046   7.960   8.281   5.681  0.4796  0.2436 -0.7875
   64MOL   C101 9047   7.843   8.203   5.621 -1.0108 -0.2608  0.3663
   64MOL   C102 9048   7.881   8.112   5.516  0.2173  0.1727  0.2347
   64MOL   N103 9049   7.914   8.039   5.435 -0.3647  0.6139  0.1981
   64MOL   H104 9050   8.014   8.210   5.743 -1.1656  0.1047  0.5276
   64MOL   H105 9051   7.909   0.038   5.748 -0.4620 -2.3713  1.2967
   64MOL   H106 9052   7.789   8.276   5.561  0.9837  0.9977  0.0619
   64MOL   C107 9053   7.746   8.148   5.726 -0.1885 -0.0519  0.3034
   64MOL   C108 9054   7.660   8.248   5.800  0.5605 -0.7223  0.0241
   64MOL   C109 9055   7.589   0.021   5.708 -0.8405 -0.9516  0.3266
   64MOL   N110 9056   7.535   0.096   5.643  0.0221  0.3439 -0.1627
   64MOL   H111 9057   7.679   8.084   5.668 -1.1652  1.9385 -0.7910
   64MOL   H112 9058   7.795   8.094   5.807  0.5997  0.4167  0.1430
   64MOL   H113 9059   7.723   8.309   5.865  0.8775  0.1835 -1.1183
   64MOL   C114 9060   7.561   8.195   5.901 -0.3901 -0.0304  0.2376
   64MOL   C115 9061   7.594   8.187   6.055  0.3409  0.1924  0.7930
   64MOL   C116 9062   7.671   8.307   6.089 -0.4430 -0.5016 -0.0728
   64MOL   N117 9063   7.733   0.085   6.113 -0.1772 -0.4628  0.0160
   64MOL   H118 9064   7.473   8.259   5.896 -0.1254  0.4121  1.0670
   64MOL   H119 9065   7.519   8.100   5.869 -0.7706 -0.2211  1.2868
   64MOL   H120 9066   7.656   8.098   6.070  0.9673  0.6298  0.8243
   64MOL   C121 9067   7.466   8.157   6.132  0.9805  0.9234 -1.2234
   64MOL   C122 9068   7.470   8.148   6.285  0.5869 -0.2717 -0.2795
   64MOL   C123 9069   7.338   8.128   6.348 -0.9677  0.3910 -0.3865
   64MOL   N124 9070   7.235   8.114   6.401  0.2576 -0.4070 -0.0386
   64MOL   H125 9071   7.382   8.220   6.100  0.3787  0.2376 -1.0046
   64MOL   H126 9072   7.425   8.063   6.096 -1.9632  2.5384 -2.3682
   64MOL   H127 9073   7.500   8.243   6.329  0.6325  0.5910 -2.0893
   64MOL   C128 9074   7.578   8.051   6.337 -0.6403  0.3583  0.1286
   64MOL   C129 9075   7.635   8.086   6.476  0.2515  0.4256  0.0419
   64MOL   C130 9076   7.695   7.966   6.541 -0.9699  0.7157  0.1016
   64MOL   N131 9077   7.728   7.866   6.591  0.5213 -0.3807  0.6546
   64MOL   H132 9078   7.535   7.952   6.353  1.5889 -0.4459  1.3235
   64MOL   H133 9079   7.666   8.034   6.275 -0.2184 -1.6693  1.2518
   64MOL   H134 9080   7.554   8.122   6.539  0.7762 -1.4914  1.8760
   64MOL   C135 9081   7.731   8.205   6.473 -0.4828  0.4422  0.2423
   64MOL   C136 9082   7.879   8.173   6.428 -0.3675 -0.0422  0.1432
   64MOL   C137 9083   7.905   8.124   6.293 -0.6495  0.2880 -0.0315
   64MOL   N138 9084   7.929   8.083   6.191  0.2571 -0.4932 -0.0531
   64MOL   H139 9085   7.694   8.284   6.408  2.3724  1.3188 -0.3767
   64MOL   H140 9086   7.751   8.242   6.574 -0.7326 -2.9470  1.6108
   64MOL   H141 9087   7.943   8.109   6.488  0.0270 -1.4649 -1.7371
   64MOL   H142 9088   7.931   8.268   6.433 -1.3475  0.5814 -1.0578
   65MOL     C1 9089   6.009   4.554   4.827  0.0079 -0.3893 -0.1302
   65MOL     C2 9090   6.064   4.696   4.830 -0.6123 -0.2393  0.5048
   65MOL     C3 9091   6.164   4.713   4.722 -0.1852 -0.2038  0.0695
   65MOL     N4 9092   6.246   4.731   4.641  0.0665  0.3792  0.2530
   65MOL     H5 9093   5.933   4.548   4.906 -0.9743  0.1690 -1.0206
   65MOL     H6 9094   6.085   4.480   4.850  1.0639  0.9928  0.9503
   65MOL     H7 9095   6.122   4.706   4.922 -1.1975 -1.0031  0.9685
   65MOL     H8 9096   5.966   4.527   4.731 -1.1275  0.6836  0.0581
   65MOL     C9 9097   5.959   4.816   4.827  0.2926  0.5306  0.1295
   65MOL    C10 9098   6.001   4.941   4.904  0.5765  0.0582  0.3666
   65MOL    C11 9099   6.138   4.992   4.877 -0.7234  0.8684  0.0107
   65MOL    N12 9100   6.248   5.026   4.850  0.6073 -0.4344 -0.4135
   65MOL    H13 9101   5.949   4.848   4.724  2.4096  0.0826 -0.2317
   65MOL    H14 9102   5.864   4.770   4.856 -0.0544 -0.4423 -2.4620
   65MOL    H15 9103   6.003   4.919   5.011 -2.7727  1.5631  0.7730
   65MOL    C16 9104   5.901   5.056   4.879 -0.4216  0.4849  0.4336
   65MOL    C17 9105   5.886   5.148   5.001  0.1279 -0.1434 -0.9208
   65MOL    C18 9106   6.013   5.189   5.075 -0.1104 -0.1654 -0.1615
   65MOL    N19 9107   6.109   5.216   5.134  0.0590  0.1310 -0.2703
   65MOL    H20 9108   5.938   5.122   4.800 -1.5391  1.3608  0.6379
   65MOL    H21 9109   5.803   5.018   4.850 -2.0705  3.9903  1.0668
   65MOL    H22 9110   5.827   5.094   5.075 -1.8249  1.2123 -1.4532
   65MOL    C23 9111   5.810   5.274   4.953  0.0946 -0.1885 -0.4956
   65MOL    C24 9112   5.783   5.379   5.062  0.5570  0.7061  0.3060
   65MOL    C25 9113   5.888   5.471   5.105 -0.1968 -0.5596  0.2359
   65MOL    N26 9114   5.965   5.550   5.142 -0.4625 -0.1207 -0.6139
   65MOL    H27 9115   5.871   5.316   4.873  0.8557  0.5412  0.4390
   65MOL    H28 9116   5.723   5.233   4.903 -0.8674 -0.9955  1.7527
   65MOL    H29 9117   5.753   5.309   5.140  0.4366 -0.7550 -1.0412
   65MOL    C30 9118   5.660   5.465   5.030  0.6080 -0.6519  0.4117
   65MOL    C31 9119   5.674   5.588   4.945 -0.3563 -0.6503  0.3600
   65MOL    C32 9120   5.681   5.523   4.808  0.0001 -0.7390  0.0486
   65MOL    N33 9121   5.681   5.464   4.705  0.4159 -0.1796 -0.0595
   65MOL    H34 9122   5.592   5.401   4.974  2.5586 -1.0776 -1.5134
   65MOL    H35 9123   5.605   5.481   5.123 -0.3038 -3.3799  0.4095
   65MOL    H36 9124   5.762   5.643   4.978  0.0599  0.6154 -2.6757
   65MOL    C37 9125   5.549   5.683   4.965 -1.1225 -0.6255 -0.5065
   65MOL    C38 9126   5.558   5.816   4.883  0.0869 -0.0286  0.1457
   65MOL    C39 9127   5.541   5.815   4.737 -1.0101 -0.1346  0.5481
   65MOL    N40 9128   5.530   5.817   4.623 -0.2228  0.0217  1.0955
   65MOL    H41 9129   5.460   5.631   4.930 -1.6166  0.7913 -1.4138
   65MOL    H42 9130   5.530   5.702   5.070  1.2852 -0.1752 -0.1258
   65MOL    H43 9131   5.663   5.847   4.891  0.4994 -1.6379  1.2121
   65MOL    C44 9132   5.458   5.923   4.940 -0.5740 -0.6848 -0.1489
   65MOL    C45 9133   5.533   6.022   5.038 -0.2016  0.0002  0.2163
   65MOL    C46 9134   5.631   6.093   4.950  0.8023  0.8177 -0.2161
   65MOL    N47 9135   5.705   6.144   4.882 -0.4493 -0.4296 -0.1259
   65MOL    H48 9136   5.414   5.981   4.859 -1.7400  1.2257  1.8085
   65MOL    H49 9137   5.372   5.877   4.987 -0.2590 -0.1689  0.9395
   65MOL    H50 9138   5.583   5.966   5.116  0.7639  0.1370 -0.2968
   65MOL    C51 9139   5.441   6.127   5.107 -0.1364  0.1193 -0.4767
   65MOL    C52 9140   5.349   6.219   5.020  0.1717 -0.0225  0.5305
   65MOL    C53 9141   5.254   6.157   4.924  0.4669 -0.1593  0.2850
   65MOL    N54 9142   5.177   6.107   4.856  0.2025 -0.1746  0.1401
   65MOL    H55 9143   5.370   6.068   5.165 -0.3994  1.2321  0.3519
   65MOL    H56 9144   5.495   6.195   5.173 -1.9725  3.3391 -2.1278
   65MOL    H57 9145   5.413   6.281   4.957 -2.4185  3.0175  0.7972
   65MOL    C58 9146   5.270   6.307   5.128 -0.3644  0.5677  0.2995
   65MOL    C59 9147   5.157   6.391   5.067  0.6785 -1.4839  0.0405
   65MOL    C60 9148   5.050   6.420   5.168  0.5680 -0.2137  0.0910
   65MOL    N61 9149   4.970   6.432   5.251  0.7345 -0.0673  0.1976
   65MOL    H62 9150   5.232   6.239   5.204  0.6079  0.1770  0.4486
   65MOL    H63 9151   5.334   6.372   5.187  0.7420 -0.5965  0.4009
   65MOL    H64 9152   5.090   6.347   4.993 -2.5269 -1.8188  2.9700
   65MOL    C65 9153   5.211   6.521   5.004  0.2158  0.2106 -0.5977
   65MOL    C66 9154   5.108   6.630   4.982  0.2192  0.2679 -0.1319
   65MOL    C67 9155   5.098   6.727   5.100  0.9114  0.8217  0.3324
   65MOL    N68 9156   5.085   6.801   5.188 -0.0144 -0.5886 -0.5434
   65MOL    H69 9157   5.285   6.563   5.072 -0.4308  0.2142  0.1129
   65MOL    H70 9158   5.258   6.487   4.912  0.6088  1.1413 -0.7391
   65MOL    H71 9159   5.003   6.599   4.976  1.1280 -2.7991 -0.8228
   65MOL    C72 9160   5.122   6.698   4.841 -0.2246 -0.0512 -0.1944
   65MOL    C73 9161   5.030   6.815   4.807 -0.7781 -0.1764  0.2143
   65MOL    C74 9162   5.082   6.944   4.858  0.2197 -0.9119 -0.9110
   65MOL    N75 9163   5.126   7.043   4.894  0.2692  0.8079 -0.3625
   65MOL    H76 9164   5.222   6.737   4.824  0.4517 -2.7794 -2.7764
   65MOL    H77 9165   5.106   6.616   4.772 -0.2417 -1.4456  1.4337
   65MOL    H78 9166   4.935   6.790   4.856 -0.5620 -1.1542  0.1576
   65MOL    C79 9167   5.014   6.822   4.663  0.1039  1.1076 -0.1359
   65MOL    C80 9168   4.885   6.887   4.622  1.0776 -0.7252 -0.9879
   65MOL    C81 9169   4.877   7.034   4.646 -0.3119 -0.5073  0.2626
   65MOL    N82 9170   4.878   7.146   4.666 -0.0159  0.3231 -0.2094
   65MOL    H83 9171   5.095   6.868   4.605  0.1001  0.9159 -0.2932
   65MOL    H84 9172   5.005   6.719   4.627 -1.0613  1.2037 -0.1330
   65MOL    H85 9173   4.801   6.840   4.674 -0.8118  1.3538 -2.0803
   65MOL    C86 9174   4.832   6.865   4.481 -0.0456 -0.7073 -0.5211
   65MOL    C87 9175   4.803   6.720   4.439  0.3869 -0.0034  0.0328
   65MOL    C88 9176   4.705   6.670   4.534  0.8871  0.6109  0.0820
   65MOL    N89 9177   4.623   6.637   4.616 -0.4456 -0.1439  0.0579
   65MOL    H90 9178   4.741   6.922   4.461  0.2673  0.2570  0.7638
   65MOL    H91 9179   4.900   6.911   4.408 -0.9192 -2.7060 -2.6652
   65MOL    H92 9180   4.889   6.655   4.451  1.1970  0.8276 -1.1987
   65MOL    C93 9181   4.754   6.710   4.299  0.2897  0.0179  0.5658
   65MOL    C94 9182   4.803   6.582   4.225 -0.4978  0.3184  0.1565
   65MOL    C95 9183   4.773   6.454   4.296 -0.2016 -0.0517 -0.0522
   65MOL    N96 9184   4.740   6.355   4.347 -0.1995 -0.3293  0.7570
   65MOL    H97 9185   4.646   6.724   4.293 -0.1495 -2.8256  1.2388
   65MOL    H98 9186   4.798   6.800   4.257  0.1799  0.1905  0.8257
   65MOL    H99 9187   4.911   6.590   4.223 -0.4545 -0.3066  0.0375
   65MOL   C100 9188   4.757   6.570   4.079  0.5867  0.5942 -0.6025
   65MOL   C101 9189   4.821   6.671   3.985  0.4573  0.1057 -0.1396
   65MOL   C102 9190   4.972   6.666   3.995  0.0866  0.4361 -0.0693
   65MOL   N103 9191   5.087   6.657   4.000  0.3216 -0.3353  0.1947
   65MOL   H104 9192   4.778   6.467   4.053  1.7771  0.8108 -0.5482
   65MOL   H105 9193   4.649   6.577   4.071  0.7212  2.0895 -1.3637
   65MOL   H106 9194   4.785   6.763   4.032  1.4884  0.8185 -0.7248
   65MOL   C107 9195   4.767   6.651   3.840 -0.1976  0.1728  0.6097
   65MOL   C108 9196   4.645   6.743   3.818 -0.3359 -0.0890 -0.1995
   65MOL   C109 9197   4.686   6.885   3.804 -0.0103  0.3249  0.4322
   65MOL   N110 9198   4.717   6.999   3.785 -0.4935 -0.2562  0.0607
   65MOL   H111 9199   4.849   6.688   3.779 -2.0893  0.3707 -1.9143
   65MOL   H112 9200   4.743   6.548   3.811 -0.5506  0.7214 -1.0868
   65MOL   H113 9201   4.600   6.733   3.917  2.0243  0.7438  0.9846
   65MOL   C114 9202   4.535   6.698   3.718  0.2132  0.1321 -0.2964
   65MOL   C115 9203   4.402   6.774   3.744  0.3339  0.1429 -1.0585
   65MOL   C116 9204   4.394   6.905   3.669  0.3030  0.5687  0.1361
   65MOL   N117 9205   4.398   7.002   3.607  0.0368  0.2631  0.3810
   65MOL   H118 9206   4.565   6.719   3.615  1.2205 -0.0317 -0.0389
   65MOL   H119 9207   4.510   6.592   3.727 -1.0366  0.3833 -0.6306
   65MOL   H120 9208   4.415   6.810   3.846 -0.1244  0.9371 -1.2808
   65MOL   C121 9209   4.274   6.684   3.717 -0.4615 -0.3181 -0.1120
   65MOL   C122 9210   4.153   6.712   3.812  0.3018  0.0068  0.2708
   65MOL   C123 9211   4.049   6.616   3.782 -0.6463  0.7179  0.0515
   65MOL   N124 9212   3.963   6.542   3.752  0.3467  0.1572  0.2722
   65MOL   H125 9213   4.240   6.693   3.614  0.2202  0.9572 -0.2370
   65MOL   H126 9214   4.302   6.582   3.743  1.4247 -0.2845 -1.8984
   65MOL   H127 9215   4.113   6.809   3.781  0.3490  0.9454  3.0038
   65MOL   C128 9216   4.198   6.722   3.958 -0.3171 -0.0218  0.3189
   65MOL   C129 9217   4.082   6.781   4.047 -0.1000 -0.5981  0.0716
   65MOL   C130 9218   3.960   6.701   4.072  0.2778 -0.0613  0.3142
   65MOL   N131 9219   3.866   6.631   4.087  0.4563 -0.3285 -0.5904
   65MOL   H132 9220   4.216   6.619   3.991  0.5025  0.3220  0.9556
   65MOL   H133 9221   4.284   6.785   3.982  1.5524 -1.4766 -2.1921
   65MOL   H134 9222   4.052   6.869   3.991 -0.7515  0.8448  2.6075
   65MOL   C135 9223   4.129   6.856   4.170  0.1951  0.8299  0.1072
   65MOL   C136 9224   4.150   6.763   4.294 -0.2894  0.0763 -0.4313
   65MOL   C137 9225   4.252   6.656   4.283  0.4178 -0.5662  0.1096
   65MOL   N138 9226   4.335   6.570   4.272 -0.1361  0.3658 -0.0930
   65MOL   H139 9227   4.224   6.907   4.157  0.8523  0.4054  2.9029
   65MOL   H140 9228   4.061   6.938   4.195  2.2567  2.7170 -0.2778
   65MOL   H141 9229   4.060   6.710   4.325  0.2514 -0.2433  0.6024
   65MOL   H142 9230   4.166   6.832   4.377 -1.5832  0.8240 -0.7834
   66MOL     C1 9231   5.365   6.309   6.022 -0.2069  0.5560 -0.0654
   66MOL     C2 9232   5.373   6.155   6.039  0.3096 -0.2735 -0.6125
   66MOL     C3 9233   5.285   6.111   6.153 -0.1876 -0.0872 -0.1560
   66MOL     N4 9234   5.210   6.069   6.237  0.8752  0.2621 -0.1055
   66MOL     H5 9235   5.375   6.366   6.115  0.7480 -0.6983  0.6179
   66MOL     H6 9236   5.266   6.347   5.996 -0.7123 -1.0184 -0.4915
   66MOL     H7 9237   5.473   6.119   6.063  1.6580  3.1654 -0.7845
   66MOL     H8 9238   5.432   6.346   5.945 -1.3183 -0.9362 -1.7795
   66MOL     C9 9239   5.324   6.079   5.911  1.4001 -0.5510  0.0738
   66MOL    C10 9240   5.414   6.073   5.787  0.5188  0.0314 -0.1983
   66MOL    C11 9241   5.544   6.016   5.822 -0.2723 -0.2778 -0.4347
   66MOL    N12 9242   5.644   5.967   5.858 -0.3146 -0.5481  0.3232
   66MOL    H13 9243   5.313   5.976   5.944 -0.3488 -0.8485 -1.3825
   66MOL    H14 9244   5.223   6.111   5.885  1.4261  0.1624  0.8145
   66MOL    H15 9245   5.445   6.172   5.754  2.2486 -0.8345 -1.2561
   66MOL    C16 9246   5.345   6.011   5.663  0.5668 -0.2284 -0.6510
   66MOL    C17 9247   5.421   6.011   5.526  0.5701  0.2951  0.5493
   66MOL    C18 9248   5.442   6.147   5.476  0.2228 -0.0211 -0.3960
   66MOL    N19 9249   5.451   6.253   5.433  0.1591  0.0343 -0.2885
   66MOL    H20 9250   5.314   5.911   5.693 -0.8548  0.1312 -0.8645
   66MOL    H21 9251   5.257   6.073   5.645  0.6718 -0.2075 -1.1065
   66MOL    H22 9252   5.365   5.961   5.448 -1.1200  0.4778  1.6280
   66MOL    C23 9253   5.564   5.951   5.529  0.0733 -0.7040  0.2430
   66MOL    C24 9254   5.573   5.800   5.558 -0.2433 -0.2389 -1.0654
   66MOL    C25 9255   5.482   5.716   5.476  0.0155 -0.1779 -0.9073
   66MOL    N26 9256   5.413   5.649   5.407  0.2610 -0.0161  0.0160
   66MOL    H27 9257   5.603   5.966   5.428  1.5556 -4.0102  0.2585
   66MOL    H28 9258   5.635   6.004   5.593 -0.3569 -1.4746  1.3757
   66MOL    H29 9259   5.523   5.793   5.654 -1.5958  1.4313 -1.6175
   66MOL    C30 9260   5.717   5.743   5.542 -0.2165 -0.0699 -0.9262
   66MOL    C31 9261   5.734   5.594   5.575 -0.3147 -0.8006  0.1204
   66MOL    C32 9262   5.693   5.497   5.469  0.0844 -0.3324 -0.6768
   66MOL    N33 9263   5.657   5.422   5.385  0.2317 -0.3846 -0.0080
   66MOL    H34 9264   5.763   5.750   5.443  2.4018 -2.1990  0.0789
   66MOL    H35 9265   5.773   5.801   5.616 -0.9355 -0.7044  0.1316
   66MOL    H36 9266   5.665   5.567   5.655 -0.1847  0.0236  0.5116
   66MOL    C37 9267   5.873   5.555   5.634 -0.2112  0.1632 -0.3773
   66MOL    C38 9268   5.994   5.525   5.538 -0.2303  0.0825  0.7121
   66MOL    C39 9269   6.023   5.640   5.452  0.4442  0.6919 -0.0619
   66MOL    N40 9270   6.039   5.735   5.389 -0.6387  0.2165 -0.1026
   66MOL    H41 9271   5.903   5.632   5.705  0.6550 -0.2232 -0.3146
   66MOL    H42 9272   5.862   5.461   5.689  2.3212 -0.7979 -1.4581
   66MOL    H43 9273   5.963   5.454   5.461 -1.7284  2.1480 -0.6292
   66MOL    C44 9274   6.120   5.486   5.611  0.0573 -0.0994  0.2725
   66MOL    C45 9275   6.247   5.513   5.524 -0.8504 -0.4319 -0.6603
   66MOL    C46 9276   6.361   5.507   5.609  0.3684  0.2554 -0.3742
   66MOL    N47 9277   6.457   5.500   5.677  0.0100  0.3127 -0.3365
   66MOL    H48 9278   6.135   5.540   5.705  0.9438 -1.3010  0.8357
   66MOL    H49 9279   6.121   5.383   5.647 -2.3454 -0.3805 -0.3611
   66MOL    H50 9280   6.254   5.618   5.495 -1.7681 -0.6400 -1.6994
   66MOL    C51 9281   6.264   5.432   5.395  0.0202 -0.1254  0.0947
   66MOL    C52 9282   6.386   5.472   5.318 -0.6566  0.5803 -0.1418
   66MOL    C53 9283   6.401   5.620   5.286  0.1347  0.3749 -0.6660
   66MOL    N54 9284   6.413   5.736   5.272 -0.0087  0.3991  0.9317
   66MOL    H55 9285   6.246   5.326   5.415 -2.8437  0.5380  1.3175
   66MOL    H56 9286   6.182   5.465   5.331 -0.4263  2.4596  1.9190
   66MOL    H57 9287   6.375   5.428   5.219  0.6684 -0.7854  0.3031
   66MOL    C58 9288   6.512   5.406   5.374  0.1552 -0.4502  0.5946
   66MOL    C59 9289   6.609   5.340   5.267  1.2861 -0.8028 -0.2939
   66MOL    C60 9290   6.632   5.426   5.148 -0.2037 -0.5564 -0.8070
   66MOL    N61 9291   6.645   5.489   5.051  0.0632  0.3326  0.6236
   66MOL    H62 9292   6.561   5.478   5.439  0.8664 -1.1058  0.7974
   66MOL    H63 9293   6.479   5.326   5.440  0.9987 -2.2255 -1.0729
   66MOL    H64 9294   6.560   5.254   5.223  0.4665  0.2468 -1.4734
   66MOL    C65 9295   6.746   5.313   5.335  0.4861  0.5811 -0.1181
   66MOL    C66 9296   6.745   5.206   5.452 -0.5274 -0.2438  0.2448
   66MOL    C67 9297   6.710   5.073   5.399 -0.6732  0.3833 -0.0399
   66MOL    N68 9298   6.687   4.971   5.357 -0.3659 -0.8203  0.4806
   66MOL    H69 9299   6.814   5.271   5.261 -0.3289 -2.0614  0.5859
   66MOL    H70 9300   6.779   5.411   5.370  0.0331  0.5690  0.3607
   66MOL    H71 9301   6.663   5.232   5.518 -0.1312  2.6247 -0.3334
   66MOL    C72 9302   6.881   5.184   5.520  0.0755 -0.0299 -0.8301
   66MOL    C73 9303   6.944   5.304   5.591  0.6814  0.1799 -0.2716
   66MOL    C74 9304   6.845   5.363   5.682 -0.4345 -0.3790 -0.6272
   66MOL    N75 9305   6.771   5.411   5.758  0.0640  0.6612 -0.2601
   66MOL    H76 9306   6.860   5.110   5.597 -0.4010  0.0773 -0.8581
   66MOL    H77 9307   6.948   5.139   5.447  2.1904 -0.1738  1.1577
   66MOL    H78 9308   6.950   5.381   5.514  0.1313  0.0602 -0.4326
   66MOL    C79 9309   7.082   5.287   5.656 -0.3357 -0.1323 -0.9703
   66MOL    C80 9310   7.183   5.193   5.591 -0.2014  0.2526 -0.0580
   66MOL    C81 9311   7.219   5.240   5.452 -0.3110 -0.5366 -0.0361
   66MOL    N82 9312   7.248   5.286   5.348 -0.0746  0.6816 -0.2029
   66MOL    H83 9313   7.129   5.385   5.663 -0.6112  0.0928 -2.0497
   66MOL    H84 9314   7.079   5.264   5.762  0.7297 -1.5553 -1.2275
   66MOL    H85 9315   7.126   5.101   5.583 -0.1010 -0.2696  3.8668
   66MOL    C86 9316   7.320   5.156   5.674  0.1719  0.2103  0.0891
   66MOL    C87 9317   7.441   5.251   5.675 -0.5896 -0.0946 -0.3970
   66MOL    C88 9318   7.415   5.384   5.730  0.0968 -0.1058 -0.4779
   66MOL    N89 9319   7.392   5.487   5.778 -0.4326  0.6051  0.4110
   66MOL    H90 9320   7.287   5.134   5.776 -1.7430  0.6510 -0.4132
   66MOL    H91 9321   7.356   5.058   5.641 -3.4316 -0.6880 -1.4210
   66MOL    H92 9322   7.466   5.265   5.570 -3.6914  1.1162 -1.0169
   66MOL    C93 9323   7.570   5.197   5.741 -0.4286  0.6781 -0.5480
   66MOL    C94 9324   7.635   5.068   5.687 -0.6137 -0.2718  0.1875
   66MOL    C95 9325   7.700   5.085   5.556 -0.5862  0.5577  0.4038
   66MOL    N96 9326   7.760   5.092   5.457 -0.0485  0.7718 -0.0552
   66MOL    H97 9327   7.645   5.275   5.733  1.0047 -0.5754  0.5675
   66MOL    H98 9328   7.542   5.185   5.845 -0.5720 -1.0825 -0.7785
   66MOL    H99 9329   7.564   4.987   5.670  1.7272 -2.2362 -0.5428
   66MOL   C100 9330   7.747   5.020   5.779 -0.5356  0.1458 -0.4295
   66MOL   C101 9331   7.891   5.073   5.773 -0.0861 -0.0309  0.3475
   66MOL   C102 9332   7.889   5.218   5.810 -0.4170 -0.1577  0.5770
   66MOL   N103 9333   7.882   5.332   5.837 -0.7966 -0.0234  0.0024
   66MOL   H104 9334   7.720   5.039   5.883  0.8974 -2.0745  0.3776
   66MOL   H105 9335   7.748   4.911   5.773  2.5038  0.1808 -1.0584
   66MOL   H106 9336   7.939   5.069   5.675 -1.0711 -0.6419 -0.1117
   66MOL   C107 9337   7.992   4.995   5.856 -0.0886  0.2620 -0.0839
   66MOL   C108 9338   8.144   5.031   5.827 -0.6526  0.1825 -0.0812
   66MOL   C109 9339   8.193   5.160   5.872 -0.0475  0.5409 -0.6218
   66MOL   N110 9340   8.229   5.259   5.907  0.1174  0.4396  0.2031
   66MOL   H111 9341   7.968   4.998   5.962  0.2567 -2.5038  0.1037
   66MOL   H112 9342   7.972   4.893   5.822 -1.2559  0.7225 -0.8169
   66MOL   H113 9343   8.170   5.018   5.722  0.9906  2.0913  0.0621
   66MOL   C114 9344   8.232   4.917   5.900  0.3241 -0.2725  0.0130
   66MOL   C115 9345   8.215   4.778   5.822  0.5676  0.6450 -0.3477
   66MOL   C116 9346   8.305   4.767   5.708  0.5283  0.0903 -0.0403
   66MOL   N117 9347   0.067   4.760   5.616  0.2665 -0.6957  0.5658
   66MOL   H118 9348   0.025   4.946   5.904  1.0012 -2.6055 -0.4742
   66MOL   H119 9349   8.198   4.918   6.004 -0.7275  0.7010 -0.3242
   66MOL   H120 9350   8.119   4.770   5.769 -0.2130  1.1465  0.9693
   66MOL   C121 9351   8.231   4.656   5.915 -0.8997 -0.3957 -0.1435
   66MOL   C122 9352   8.096   4.632   5.991  0.1730  0.5447  0.0786
   66MOL   C123 9353   7.997   4.576   5.895  0.5212 -0.3856  0.5737
   66MOL   N124 9354   7.922   4.529   5.819  0.6881  0.0342 -0.1967
   66MOL   H125 9355   8.248   4.578   5.841  0.7538  1.1815 -1.4484
   66MOL   H126 9356   0.006   4.659   5.980 -0.4600 -0.3217 -0.7392
   66MOL   H127 9357   8.050   4.728   6.015  1.4909  1.3077 -0.4107
   66MOL   C128 9358   8.111   4.532   6.113 -0.3910 -0.8997 -0.6465
   66MOL   C129 9359   8.123   4.381   6.080  0.3824 -0.0226  0.2305
   66MOL   C130 9360   8.233   4.342   5.989  0.2301  0.1969 -0.0579
   66MOL   N131 9361   0.003   4.311   5.922 -0.8644 -0.1123  0.2870
   66MOL   H132 9362   8.193   4.562   6.179  1.8990 -1.4558 -3.1810
   66MOL   H133 9363   8.024   4.554   6.176  0.9254  0.2460  0.8127
   66MOL   H134 9364   8.033   4.345   6.030  0.1783 -0.9417  1.2247
   66MOL   C135 9365   8.136   4.312   6.214  0.3705  0.2601 -0.5428
   66MOL   C136 9366   8.164   4.162   6.208  0.4959  0.0953 -0.3897
   66MOL   C137 9367   8.230   4.095   6.319  0.0952  0.7259  0.6198
   66MOL   N138 9368   8.276   4.045   6.412  0.0611 -0.2497 -0.4920
   66MOL   H139 9369   8.203   4.368   6.280  3.4249 -1.6191 -1.9796
   66MOL   H140 9370   8.046   4.325   6.275  1.0160  2.0888  0.0748
   66MOL   H141 9371   8.214   4.136   6.115  1.0684 -0.2991  0.0289
   66MOL   H142 9372   8.070   4.108   6.195  1.4626 -1.7317  0.0607
   67MOL     C1 9373   3.564   3.692   7.263  0.3715  0.1462  0.4304
   67MOL     C2 9374   3.582   3.804   7.365 -0.1029  0.2784  0.4386
   67MOL     C3 9375   3.540   3.929   7.300  0.7131  0.0120  0.0523
   67MOL     N4 9376   3.505   4.028   7.246 -0.4241  0.2398  0.7650
   67MOL     H5 9377   3.645   3.706   7.192  1.2890  2.1275  1.8199
   67MOL     H6 9378   3.471   3.702   7.208  0.7502 -0.0701 -0.2561
   67MOL     H7 9379   3.689   3.820   7.374  0.0672 -1.8445  2.4962
   67MOL     H8 9380   3.584   3.592   7.302  0.9492 -0.5238 -1.5150
   67MOL     C9 9381   3.499   3.777   7.489  0.3282 -0.2340  0.1151
   67MOL    C10 9382   3.566   3.688   7.587  0.5573  0.3069 -0.3674
   67MOL    C11 9383   3.686   3.750   7.644  0.2256 -0.1638 -0.1981
   67MOL    N12 9384   3.780   3.803   7.687 -0.5184 -0.5212  0.0884
   67MOL    H13 9385   3.476   3.869   7.544  0.5467  1.0181 -1.8302
   67MOL    H14 9386   3.403   3.735   7.458  0.6288 -2.3228  1.8818
   67MOL    H15 9387   3.598   3.603   7.527  1.8632  0.3852  0.2090
   67MOL    C16 9388   3.477   3.633   7.698 -0.3548 -0.1373  0.2916
   67MOL    C17 9389   3.352   3.562   7.648  0.2732 -0.1997  0.3998
   67MOL    C18 9390   3.397   3.460   7.547 -0.5898  0.4159  0.1784
   67MOL    N19 9391   3.429   3.374   7.473 -0.1011 -0.2043  0.6495
   67MOL    H20 9392   3.538   3.567   7.760 -0.2664 -0.0578  0.2906
   67MOL    H21 9393   3.447   3.716   7.762  2.0815  0.2371  1.0175
   67MOL    H22 9394   3.277   3.628   7.605  0.1878 -2.1105 -2.5046
   67MOL    C23 9395   3.280   3.491   7.765 -0.0744  0.0996  0.0520
   67MOL    C24 9396   3.220   3.580   7.883 -0.4802 -0.2159 -0.0035
   67MOL    C25 9397   3.095   3.643   7.848 -0.3315 -0.3205  0.2371
   67MOL    N26 9398   2.996   3.697   7.826  0.5173  0.0235 -0.0973
   67MOL    H27 9399   3.197   3.435   7.722 -0.0081  0.4294 -0.4977
   67MOL    H28 9400   3.357   3.428   7.812 -0.3734 -0.0745  0.3111
   67MOL    H29 9401   3.290   3.660   7.906 -1.2928  0.3210  0.6151
   67MOL    C30 9402   3.197   3.504   8.006 -0.1929 -0.4077  0.2017
   67MOL    C31 9403   3.316   3.419   8.055 -0.0223  0.3410  0.0081
   67MOL    C32 9404   3.443   3.506   8.062 -0.4137  0.1186 -0.0299
   67MOL    N33 9405   3.535   3.572   8.065 -0.5391 -0.5117  0.0552
   67MOL    H34 9406   3.152   3.563   8.086  2.4432 -0.8764  2.1062
   67MOL    H35 9407   3.122   3.428   7.988 -0.1112 -0.2718 -0.7656
   67MOL    H36 9408   3.321   3.330   7.993 -2.1168 -0.8994  1.5103
   67MOL    C37 9409   3.275   3.353   8.189 -0.0533 -0.1918 -0.2278
   67MOL    C38 9410   3.384   3.262   8.255 -0.0709  0.0334 -0.3864
   67MOL    C39 9411   3.340   3.216   0.084 -0.2789 -0.8305 -0.2457
   67MOL    N40 9412   3.306   3.171   0.187 -0.4138 -0.5026 -0.1949
   67MOL    H41 9413   3.255   3.429   8.264 -1.6459 -1.3596  0.5600
   67MOL    H42 9414   3.182   3.299   8.173 -0.4271  1.0670 -2.5568
   67MOL    H43 9415   3.473   3.322   8.275 -2.1893  2.5401  1.9496
   67MOL    C44 9416   3.418   3.137   8.174 -0.3000  0.3901 -0.2754
   67MOL    C45 9417   3.542   3.052   8.221 -0.1322  0.5416 -0.1653
   67MOL    C46 9418   3.640   3.140   8.283  0.4815 -0.2272 -0.1457
   67MOL    N47 9419   3.711   3.214   0.017 -0.0810 -0.0994  0.0928
   67MOL    H48 9420   3.333   3.070   8.165  0.3630 -0.6465  1.0816
   67MOL    H49 9421   3.436   3.179   8.075 -0.5468 -0.8057 -0.8384
   67MOL    H50 9422   3.588   3.011   8.131 -3.0088  0.7073 -1.7583
   67MOL    C51 9423   3.499   2.932   8.310  1.0956  0.4082  0.9548
   67MOL    C52 9424   3.602   2.823   0.030 -0.1575 -0.2242 -0.9708
   67MOL    C53 9425   3.719   2.859   0.110 -0.2244 -0.1086  0.2694
   67MOL    N54 9426   3.811   2.886   0.169  0.3058 -0.7556 -0.3591
   67MOL    H55 9427   3.450   2.966   0.089 -1.1092  3.2310 -1.1728
   67MOL    H56 9428   3.431   2.879   8.243  1.2383 -0.1874  1.2748
   67MOL    H57 9429   3.650   2.789   8.251 -0.0432  1.7391 -1.6757
   67MOL    C58 9430   3.533   2.711   0.118 -0.3275 -0.0579  0.5957
   67MOL    C59 9431   3.416   2.632   0.064  0.1754  0.5982 -0.5176
   67MOL    C60 9432   3.423   2.603   8.234 -0.2843  0.2880 -0.1191
   67MOL    N61 9433   3.421   2.579   8.120 -0.2155  0.6249 -0.1692
   67MOL    H62 9434   3.607   2.635   0.144 -0.4499 -0.8412 -1.2207
   67MOL    H63 9435   3.509   2.762   0.211  0.3162  0.3654  0.5281
   67MOL    H64 9436   3.332   2.701   0.061 -0.8918 -0.7295 -2.1846
   67MOL    C65 9437   3.384   2.506   0.153  0.0463  0.0966  0.1136
   67MOL    C66 9438   3.232   2.479   0.162  0.3322 -0.2144  0.1488
   67MOL    C67 9439   3.181   2.418   0.036 -1.0532 -0.7308 -0.4691
   67MOL    N68 9440   3.141   2.372   8.252 -0.3021  0.4041 -0.8684
   67MOL    H69 9441   3.424   2.418   0.103 -2.3645 -1.3135  0.5755
   67MOL    H70 9442   3.429   2.520   0.251 -2.1899  0.2452  1.1576
   67MOL    H71 9443   3.185   2.576   0.180  0.0400 -0.4684  0.7539
   67MOL    C72 9444   3.206   2.379   0.275 -0.7074  0.5420 -0.6495
   67MOL    C73 9445   3.066   2.337   0.301 -0.5062 -0.2523  0.1106
   67MOL    C74 9446   2.975   2.446   0.264  1.0558  0.0584 -0.0487
   67MOL    N75 9447   2.911   2.535   0.233  0.1411 -0.0445  0.4901
   67MOL    H76 9448   3.281   2.301   0.269 -0.1868  1.0434 -0.8095
   67MOL    H77 9449   3.239   2.435   0.363 -0.2242 -1.1266  0.2352
   67MOL    H78 9450   3.052   2.331   0.409  0.8729 -0.7481  0.2694
   67MOL    C79 9451   3.029   2.198   0.249 -0.1750 -0.3327 -0.2917
   67MOL    C80 9452   2.889   2.145   0.276  0.5720  0.0540 -0.3325
   67MOL    C81 9453   2.793   2.207   0.186  0.3656  0.1722  0.8177
   67MOL    N82 9454   2.719   2.255   0.115 -0.1098 -0.1159  0.2514
   67MOL    H83 9455   3.042   2.200   0.141 -3.1037  0.8961 -0.6808
   67MOL    H84 9456   3.109   2.138   0.291 -0.4787 -3.1864 -3.5522
   67MOL    H85 9457   2.846   2.172   0.372  0.4767  1.4613 -0.7525
   67MOL    C86 9458   2.871   1.991   0.245  0.1274  0.0284 -0.4764
   67MOL    C87 9459   2.949   1.887   0.335  0.1481 -0.7535  1.2951
   67MOL    C88 9460   2.953   1.918   0.476 -1.0604 -0.0572 -0.1501
   67MOL    N89 9461   2.954   1.944   0.589 -0.6095 -0.2530 -0.0368
   67MOL    H90 9462   2.763   1.977   0.251  0.4789 -1.8156  2.4360
   67MOL    H91 9463   2.885   1.977   0.137 -0.0295 -0.1592 -0.4729
   67MOL    H92 9464   3.056   1.895   0.317 -0.1407 -1.2516 -0.7191
   67MOL    C93 9465   2.901   1.740   0.314 -0.4167 -0.5697 -0.3539
   67MOL    C94 9466   2.922   1.695   0.165 -0.0872  0.0361  0.3326
   67MOL    C95 9467   3.043   1.753   0.102  0.3314 -0.0403  0.1258
   67MOL    N96 9468   3.136   1.789   0.055  0.0988  0.8631  0.0065
   67MOL    H97 9469   2.960   1.676   0.380  0.5713  1.5658  0.9228
   67MOL    H98 9470   2.793   1.732   0.326 -0.7001 -0.2061 -2.4076
   67MOL    H99 9471   2.849   1.741   0.099  0.6496 -2.4946 -2.3620
   67MOL   C100 9472   2.914   1.535   0.154 -0.1932  0.6450  0.4597
   67MOL   C101 9473   3.058   1.466   0.154 -0.1701  0.0688 -0.0114
   67MOL   C102 9474   3.131   1.509   0.274  0.3067  0.6599  0.2265
   67MOL   N103 9475   3.188   1.553   0.370  0.0409 -0.0353 -0.1029
   67MOL   H104 9476   2.844   1.502   0.231 -1.8915  0.5673 -1.0855
   67MOL   H105 9477   2.874   1.515   0.054 -0.2183  4.6036 -0.4012
   67MOL   H106 9478   3.107   1.505   0.065 -1.5667  0.5014 -0.6120
   67MOL   C107 9479   3.058   1.318   0.148  0.0594  0.1657  0.0210
   67MOL   C108 9480   3.197   1.245   0.146 -0.0819  0.5944  0.2266
   67MOL   C109 9481   3.295   1.289   0.048 -0.3061 -0.1139  0.2559
   67MOL   N110 9482   3.374   1.332   8.291 -0.4141  0.1935  0.4412
   67MOL   H111 9483   2.999   1.284   0.233 -1.7102  1.7867 -0.5348
   67MOL   H112 9484   3.000   1.290   0.060 -1.1581 -1.7823  1.4123
   67MOL   H113 9485   3.173   1.143   0.119 -1.2669  0.7357  0.7106
   67MOL   C114 9486   3.248   1.227   0.283  0.1820  0.5905 -0.2963
   67MOL   C115 9487   3.322   1.092   0.299  0.0967 -0.0385 -0.1834
   67MOL   C116 9488   3.420   1.063   0.196 -0.2500  0.2530 -0.1622
   67MOL   N117 9489   3.496   1.034   0.114 -0.5747 -0.2687 -0.8186
   67MOL   H118 9490   3.321   1.305   0.304  1.2406 -0.6762  0.8617
   67MOL   H119 9491   3.171   1.250   0.356  1.6811  2.6325  0.7029
   67MOL   H120 9492   3.238   1.022   0.292  1.4747 -1.5769 -1.8434
   67MOL   C121 9493   3.375   1.079   0.446 -0.1350  0.2009  0.1916
   67MOL   C122 9494   3.440   0.944   0.471 -0.5100  0.2242 -0.1854
   67MOL   C123 9495   3.512   0.925   0.600  0.9992  0.4563  0.0543
   67MOL   N124 9496   3.569   0.909   0.702 -0.0820  0.8496 -0.4051
   67MOL   H125 9497   3.438   1.164   0.475  0.9481 -0.7110  0.5290
   67MOL   H126 9498   3.284   1.088   0.507 -0.4858 -1.5102 -0.0804
   67MOL   H127 9499   3.510   0.916   0.393  0.3224  0.2355  0.5542
   67MOL   C128 9500   3.333   0.837   0.471 -0.9157  0.3535  0.5205
   67MOL   C129 9501   3.226   0.836   0.586 -0.0637  0.2061 -0.1074
   67MOL   C130 9502   3.105   0.770   0.528  0.0497 -0.1341  0.1873
   67MOL   N131 9503   3.012   0.718   0.480  0.0516  0.2978 -0.1515
   67MOL   H132 9504   3.283   0.854   0.376 -1.2783  2.7420  1.1022
   67MOL   H133 9505   3.373   0.735   0.471  1.3272  1.1872  1.0075
   67MOL   H134 9506   3.197   0.934   0.623 -1.4228 -1.1410  2.5929
   67MOL   C135 9507   3.272   0.753   0.709 -0.7108  0.2834  0.0394
   67MOL   C136 9508   3.147   0.735   0.802 -0.2234  0.0510  0.0816
   67MOL   C137 9509   3.182   0.704   0.937 -0.3086  0.0301  0.2211
   67MOL   N138 9510   3.212   0.679   1.050  0.2813 -0.4477 -0.0608
   67MOL   H139 9511   3.319   0.658   0.687  0.1404  0.6008  0.4909
   67MOL   H140 9512   3.340   0.805   0.776 -0.9799  0.7516 -0.0481
   67MOL   H141 9513   3.075   0.655   0.783  0.1456 -0.0637 -0.8424
   67MOL   H142 9514   3.099   0.833   0.803 -0.7011 -0.1743  2.1236
   68MOL     C1 9515   7.875   4.590   4.730  0.2125 -0.2849  0.3100
   68MOL     C2 9516   7.857   4.658   4.598 -0.0286 -1.1031 -0.2374
   68MOL     C3 9517   7.984   4.721   4.554  0.1994 -0.2086  0.1216
   68MOL     N4 9518   8.085   4.769   4.521 -0.6157  0.5125 -0.3646
   68MOL     H5 9519   7.774   4.561   4.759  0.5369 -0.9568  0.7718
   68MOL     H6 9520   7.898   4.671   4.799 -0.4451 -0.2996  0.5511
   68MOL     H7 9521   7.783   4.736   4.613 -1.1969 -2.0584 -0.9088
   68MOL     H8 9522   7.946   4.507   4.736  0.3247 -0.2658 -0.7684
   68MOL     C9 9523   7.796   4.579   4.483 -0.1599 -0.8776  0.3534
   68MOL    C10 9524   7.809   4.645   4.342 -0.8075 -0.1503 -0.3027
   68MOL    C11 9525   7.935   4.603   4.275  0.3659  0.4280 -0.0619
   68MOL    N12 9526   8.032   4.572   4.228  0.2894  0.5605  0.3549
   68MOL    H13 9527   7.850   4.485   4.483  0.6283 -0.4250 -0.4215
   68MOL    H14 9528   7.691   4.554   4.503 -0.5846 -0.1205 -0.8886
   68MOL    H15 9529   7.829   4.753   4.347  2.1772 -0.6906  0.7841
   68MOL    C16 9530   7.701   4.604   4.250 -0.0785 -0.6796 -0.1039
   68MOL    C17 9531   7.554   4.664   4.270 -0.0212  0.4263 -0.4297
   68MOL    C18 9532   7.524   4.730   4.400  0.3860 -0.5362 -0.4634
   68MOL    N19 9533   7.502   4.785   4.501  0.3789 -0.0627 -0.7843
   68MOL    H20 9534   7.736   4.639   4.152  0.8891 -0.0138  0.4635
   68MOL    H21 9535   7.698   4.495   4.244 -0.9199 -0.6832  0.4652
   68MOL    H22 9536   7.494   4.575   4.290 -0.5216  0.5375 -1.4261
   68MOL    C23 9537   7.498   4.733   4.150 -0.4783 -0.4426  0.4320
   68MOL    C24 9538   7.545   4.883   4.146  0.0122  0.1730  0.0944
   68MOL    C25 9539   7.689   4.895   4.131  0.3314  0.3704  0.8286
   68MOL    N26 9540   7.804   4.897   4.115  0.4011  0.4026 -0.2713
   68MOL    H27 9541   7.530   4.674   4.064 -1.0144  0.4844 -0.4022
   68MOL    H28 9542   7.390   4.725   4.146 -0.7177  1.8116  1.8098
   68MOL    H29 9543   7.525   4.941   4.236  1.2472 -0.3067  0.6916
   68MOL    C30 9544   7.472   4.948   4.029  0.0855 -0.5531  0.4872
   68MOL    C31 9545   7.497   5.096   4.025 -0.3428 -0.0958  0.0721
   68MOL    C32 9546   7.495   5.164   4.157  0.3880 -0.4017  0.6708
   68MOL    N33 9547   7.492   5.216   4.262 -0.5655  0.2379 -0.3235
   68MOL    H34 9548   7.489   4.901   3.932 -0.8016  0.4211 -0.1527
   68MOL    H35 9549   7.366   4.931   4.050 -0.8854  3.5855 -0.6196
   68MOL    H36 9550   7.407   5.132   3.975  0.2505  0.4991 -0.5705
   68MOL    C37 9551   7.619   5.144   3.943 -0.4747  0.2458  0.0077
   68MOL    C38 9552   7.608   5.290   3.909 -0.3135  0.2899 -0.7185
   68MOL    C39 9553   7.739   5.363   3.945 -0.0953  0.6262  0.4873
   68MOL    N40 9554   7.843   5.417   3.958 -0.3253  0.4536  0.2726
   68MOL    H41 9555   7.714   5.131   3.994 -0.6106 -2.3936 -0.3484
   68MOL    H42 9556   7.628   5.083   3.853  0.0830 -0.7800  0.7466
   68MOL    H43 9557   7.543   5.351   3.973  0.9529  1.5159 -0.5536
   68MOL    C44 9558   7.552   5.310   3.768 -0.0143  0.7725  0.5357
   68MOL    C45 9559   7.557   5.458   3.717 -0.4094 -1.1707  0.2445
   68MOL    C46 9560   7.506   5.462   3.577  0.0752  0.3948  0.1810
   68MOL    N47 9561   7.468   5.458   3.465 -0.3798  0.0832  0.1852
   68MOL    H48 9562   7.613   5.251   3.700  0.6306  0.3210  1.4911
   68MOL    H49 9563   7.452   5.270   3.751 -0.1758  2.4953 -2.9254
   68MOL    H50 9564   7.655   5.502   3.701  0.1947 -1.9162  1.7933
   68MOL    C51 9565   7.477   5.559   3.806 -0.4932  0.4297  0.5802
   68MOL    C52 9566   7.458   5.705   3.760 -0.0814  0.0517  0.1530
   68MOL    C53 9567   7.339   5.728   3.683  0.4680  0.2797  0.6166
   68MOL    N54 9568   7.245   5.744   3.616 -0.2607 -0.6100 -0.5854
   68MOL    H55 9569   7.383   5.502   3.806  0.4470 -1.2639 -2.2196
   68MOL    H56 9570   7.526   5.559   3.903  0.6134 -0.1779  0.0318
   68MOL    H57 9571   7.547   5.721   3.700  0.9862 -1.4132  1.3289
   68MOL    C58 9572   7.478   5.814   3.874  0.8355 -0.5860  0.3108
   68MOL    C59 9573   7.374   5.820   3.992 -0.1654  0.0807  0.2845
   68MOL    C60 9574   7.348   5.686   4.055 -0.3083  0.6634 -0.3877
   68MOL    N61 9575   7.324   5.585   4.108 -0.4283  0.1355 -0.6967
   68MOL    H62 9576   7.577   5.822   3.918  0.5762  0.2310  0.7523
   68MOL    H63 9577   7.473   5.914   3.831 -1.7932 -0.0035  1.8413
   68MOL    H64 9578   7.272   5.831   3.956  0.4447 -0.7236 -1.7534
   68MOL    C65 9579   7.391   5.940   4.094 -0.3529  0.0639 -0.0774
   68MOL    C66 9580   7.321   5.922   4.235  0.6525 -0.4578 -0.1455
   68MOL    C67 9581   7.374   6.033   4.319  0.5542  0.1380 -0.4925
   68MOL    N68 9582   7.410   6.119   4.388  0.0931 -0.4387 -0.9933
   68MOL    H69 9583   7.498   5.950   4.116 -0.4261  1.4952 -0.3043
   68MOL    H70 9584   7.361   6.031   4.042  0.0261  0.7977  0.9719
   68MOL    H71 9585   7.359   5.841   4.298  0.8294  1.1628  1.8782
   68MOL    C72 9586   7.171   5.926   4.211 -0.1235 -0.2062  0.0259
   68MOL    C73 9587   7.090   5.878   4.334  0.3465  0.1740 -0.3544
   68MOL    C74 9588   7.146   5.745   4.379 -0.2642  0.4589  1.3552
   68MOL    N75 9589   7.186   5.636   4.412 -0.6790  0.0127  0.6109
   68MOL    H76 9590   7.142   6.022   4.168  1.3270  0.2764  0.0863
   68MOL    H77 9591   7.144   5.844   4.145 -2.5200 -0.8577  1.7723
   68MOL    H78 9592   6.986   5.857   4.307  0.7589 -0.3248 -1.5613
   68MOL    C79 9593   7.080   5.987   4.440 -0.2229  0.0797  0.3822
   68MOL    C80 9594   6.989   6.103   4.402  0.8962  0.0352 -0.4554
   68MOL    C81 9595   6.843   6.061   4.394 -0.0562  0.1661  0.4796
   68MOL    N82 9596   6.736   6.025   4.392  0.8013 -0.3329  0.0965
   68MOL    H83 9597   7.031   5.951   4.530 -0.2490 -2.4057 -0.5705
   68MOL    H84 9598   7.174   6.030   4.473 -2.4473  5.3065  0.3812
   68MOL    H85 9599   7.010   6.133   4.299  2.0340 -0.5171 -0.3922
   68MOL    C86 9600   7.010   6.223   4.494  0.0062 -0.1035 -0.7291
   68MOL    C87 9601   6.968   6.366   4.445 -0.3636  0.4237 -0.1830
   68MOL    C88 9602   6.835   6.365   4.386  0.1779  0.2572 -0.7514
   68MOL    N89 9603   6.739   6.368   4.327  0.0386  0.7918  0.0112
   68MOL    H90 9604   6.951   6.203   4.583  0.3608 -2.5715 -0.9906
   68MOL    H91 9605   7.114   6.225   4.527  0.1952 -0.8312 -1.2633
   68MOL    H92 9606   7.024   6.393   4.355 -0.3685  1.6582  0.1716
   68MOL    C93 9607   6.987   6.478   4.550  0.3110 -0.2241  0.9837
   68MOL    C94 9608   7.118   6.488   4.610  0.1736  0.6681 -0.5174
   68MOL    C95 9609   7.219   6.511   4.505  1.3694  1.0000  0.3779
   68MOL    N96 9610   7.298   6.529   4.427 -0.5388 -0.5950 -0.3312
   68MOL    H97 9611   6.966   6.572   4.499  0.2865 -0.5508  0.3845
   68MOL    H98 9612   6.899   6.478   4.613  0.1607  1.3120  0.8058
   68MOL    H99 9613   7.134   6.392   4.660 -0.1085  0.3579 -1.0129
   68MOL   C100 9614   7.136   6.603   4.717  0.6531 -0.0804 -0.6868
   68MOL   C101 9615   7.040   6.584   4.838  0.2072 -0.0908 -0.0534
   68MOL   C102 9616   7.021   6.444   4.893  0.1049 -0.3003 -0.0646
   68MOL   N103 9617   7.008   6.339   4.935  1.7046  0.0991 -0.5582
   68MOL   H104 9618   7.236   6.583   4.756  1.0026  0.4374 -1.2953
   68MOL   H105 9619   7.125   6.703   4.675  4.3185  0.7850  0.2345
   68MOL   H106 9620   6.946   6.615   4.793 -0.3679  1.2463  2.0061
   68MOL   C107 9621   7.078   6.675   4.957 -0.6286  0.5601 -0.0301
   68MOL   C108 9622   7.078   6.828   4.926 -0.0769 -0.1997  0.7095
   68MOL   C109 9623   6.969   6.877   4.838 -0.1418  0.0890  0.6798
   68MOL   N110 9624   6.880   6.903   4.767  1.0944 -0.2930  0.2141
   68MOL   H111 9625   7.002   6.657   5.032 -0.4095 -0.3994 -0.0241
   68MOL   H112 9626   7.174   6.640   4.996 -0.3203 -0.3414 -1.5167
   68MOL   H113 9627   7.174   6.858   4.885 -0.7416  0.5281 -0.3417
   68MOL   C114 9628   7.085   6.897   5.068 -0.4091  0.0588  0.0152
   68MOL   C115 9629   7.116   7.049   5.068  0.4576  0.3909  0.7427
   68MOL   C116 9630   7.000   7.134   5.111 -0.0030 -0.4450  0.6540
   68MOL   N117 9631   6.907   7.195   5.145 -0.2750 -0.5400 -0.9139
   68MOL   H118 9632   6.996   6.869   5.124 -0.9155  2.1713  0.2845
   68MOL   H119 9633   7.159   6.834   5.117  1.2020  0.5694 -1.6756
   68MOL   H120 9634   7.127   7.079   4.964  1.8460 -2.5114 -0.0099
   68MOL   C121 9635   7.247   7.082   5.139  0.9223  0.0310 -0.6613
   68MOL   C122 9636   7.275   7.232   5.156 -0.2396  0.1421 -0.3641
   68MOL   C123 9637   7.237   7.297   5.283 -0.1026  0.5637 -0.1946
   68MOL   N124 9638   7.207   7.359   5.377  0.0119 -0.0643 -0.5165
   68MOL   H125 9639   7.256   7.037   5.238  0.9328  1.4320 -0.0142
   68MOL   H126 9640   7.331   7.047   5.079  1.5067  2.4069 -1.2736
   68MOL   H127 9641   7.219   7.291   5.084 -1.7017  0.0599  0.6886
   68MOL   C128 9642   7.423   7.261   5.124  0.2115  0.2823 -0.6362
   68MOL   C129 9643   7.528   7.217   5.232  0.2532 -0.6117 -0.0023
   68MOL   C130 9644   7.524   7.070   5.256 -0.2127 -0.0275  0.6972
   68MOL   N131 9645   7.517   6.956   5.281  0.0333 -0.8785  0.9136
   68MOL   H132 9646   7.436   7.211   5.028 -1.1716  0.6366 -1.0264
   68MOL   H133 9647   7.418   7.369   5.113  0.9286  0.3952  0.1168
   68MOL   H134 9648   7.498   7.274   5.320 -2.4175 -2.4023  0.2790
   68MOL   C135 9649   7.670   7.256   5.188 -0.1614 -0.4569  0.1547
   68MOL   C136 9650   7.771   7.210   5.295 -0.2477  0.3549  0.5335
   68MOL   C137 9651   7.912   7.254   5.275 -0.4641 -0.2543  0.6463
   68MOL   N138 9652   8.017   7.296   5.256 -0.3634  0.1273  0.2131
   68MOL   H139 9653   7.694   7.196   5.100 -0.5257  0.4360 -0.5609
   68MOL   H140 9654   7.683   7.364   5.180 -0.0973 -0.3905  1.1111
   68MOL   H141 9655   7.787   7.102   5.291 -0.8985  0.2749  0.0091
   68MOL   H142 9656   7.755   7.236   5.399  1.9082 -0.8692  1.1959
   69MOL     C1 9657   5.551   5.206   4.092  0.1425 -0.5362 -0.2416
   69MOL     C2 9658   5.588   5.135   3.971 -0.4443 -0.7033  0.2061
   69MOL     C3 9659   5.470   5.052   3.931 -0.6788 -0.2602 -0.1044
   69MOL     N4 9660   5.383   4.983   3.896  0.1057 -0.4874 -0.6341
   69MOL     H5 9661   5.481   5.290   4.084 -1.8878 -2.1704 -0.2132
   69MOL     H6 9662   5.640   5.246   4.139  1.4635  1.1835 -4.0728
   69MOL     H7 9663   5.669   5.066   3.996  0.5238  0.5528  0.5839
   69MOL     H8 9664   5.529   5.127   4.165 -0.0867 -1.5932 -1.4392
   69MOL     C9 9665   5.620   5.243   3.865 -0.0549  0.2614  0.0674
   69MOL    C10 9666   5.767   5.298   3.868  0.4989 -0.9800  0.6104
   69MOL    C11 9667   5.866   5.206   3.916  0.0553 -0.3712  0.7795
   69MOL    N12 9668   5.947   5.126   3.948  0.3284 -0.5042  0.1293
   69MOL    H13 9669   5.606   5.190   3.770 -1.6625  1.9615 -0.6752
   69MOL    H14 9670   5.544   5.321   3.859  0.9817  1.2953  0.3227
   69MOL    H15 9671   5.766   5.373   3.947  0.7448  0.7371 -0.9845
   69MOL    C16 9672   5.813   5.363   3.739  0.3224  0.6577  0.0230
   69MOL    C17 9673   5.957   5.424   3.744 -0.4177  0.0462  0.3115
   69MOL    C18 9674   6.023   5.439   3.612  0.0291  0.1601 -0.4815
   69MOL    N19 9675   6.076   5.458   3.513  0.5914  0.0854  0.4932
   69MOL    H20 9676   5.826   5.291   3.657  0.2559 -0.4629  0.9824
   69MOL    H21 9677   5.747   5.437   3.695  1.8434  2.0986  0.1219
   69MOL    H22 9678   6.022   5.347   3.784  1.9355  1.4436 -0.7042
   69MOL    C23 9679   5.963   5.549   3.829 -0.8673 -0.1778  0.4881
   69MOL    C24 9680   6.110   5.596   3.840 -0.0467  0.1655  0.0947
   69MOL    C25 9681   6.109   5.737   3.881  0.2267  0.4691 -0.2106
   69MOL    N26 9682   6.112   5.847   3.912  0.1790 -0.3891 -0.2505
   69MOL    H27 9683   5.905   5.629   3.782 -0.7127 -0.0991  0.4303
   69MOL    H28 9684   5.933   5.538   3.933  2.7968  2.1626  1.9048
   69MOL    H29 9685   6.158   5.605   3.742  2.0696 -1.4546  0.9437
   69MOL    C30 9686   6.199   5.493   3.925 -0.3877 -0.3801 -0.0464
   69MOL    C31 9687   6.336   5.539   3.972 -0.4361 -0.3383 -0.0212
   69MOL    C32 9688   6.406   5.601   3.856  0.2125  1.0777 -0.7797
   69MOL    N33 9689   6.456   5.638   3.762  0.1910 -0.0718  0.0402
   69MOL    H34 9690   6.138   5.455   4.007  0.0338 -1.1327 -0.0740
   69MOL    H35 9691   6.213   5.407   3.858  1.0258 -0.0704 -0.1630
   69MOL    H36 9692   6.400   5.454   3.997  0.5133  0.3150 -0.1638
   69MOL    C37 9693   6.327   5.633   4.095  0.8841 -0.2385 -0.2975
   69MOL    C38 9694   6.459   5.660   4.170 -0.1580  0.2102  0.2610
   69MOL    C39 9695   6.545   5.754   4.100 -0.3532  0.2726  0.1482
   69MOL    N40 9696   6.604   5.834   4.035  0.0864  0.2512  0.0979
   69MOL    H41 9697   6.283   5.732   4.084  0.9334 -0.2190 -0.3242
   69MOL    H42 9698   6.263   5.584   4.168  1.4260 -0.5627 -0.0392
   69MOL    H43 9699   6.513   5.566   4.162  0.1171  0.3190  0.8555
   69MOL    C44 9700   6.430   5.702   4.314 -0.0842 -0.0411 -0.0683
   69MOL    C45 9701   6.536   5.651   4.409 -0.5502  0.1667  0.0741
   69MOL    C46 9702   6.667   5.678   4.358 -0.0581 -0.1279 -0.3076
   69MOL    N47 9703   6.776   5.703   4.324 -0.1790  0.4359  0.2042
   69MOL    H48 9704   6.440   5.811   4.314  1.2251 -0.1341  1.7641
   69MOL    H49 9705   6.335   5.672   4.357  0.8878 -0.7214  1.6930
   69MOL    H50 9706   6.532   5.542   4.408 -0.1779  0.1565 -0.7733
   69MOL    C51 9707   6.504   5.710   4.558 -0.3361 -0.3303 -0.1198
   69MOL    C52 9708   6.616   5.677   4.659  0.2533 -0.2196  0.1435
   69MOL    C53 9709   6.686   5.544   4.632  0.5702  0.3833 -0.4994
   69MOL    N54 9710   6.745   5.447   4.607  0.2115  0.3634  0.2280
   69MOL    H55 9711   6.497   5.819   4.555  0.1138 -0.2802  0.3938
   69MOL    H56 9712   6.406   5.678   4.594 -0.9131  1.8465  0.3520
   69MOL    H57 9713   6.557   5.664   4.750 -1.1335  1.1956 -0.5291
   69MOL    C58 9714   6.717   5.793   4.672 -0.0335 -0.2623 -0.0553
   69MOL    C59 9715   6.814   5.765   4.788 -0.0629 -0.4142  0.1257
   69MOL    C60 9716   6.947   5.835   4.771  0.4309 -0.3557 -0.4121
   69MOL    N61 9717   7.050   5.891   4.765  0.4797  0.1801  0.1936
   69MOL    H62 9718   6.769   5.809   4.578  1.8929 -1.3633  0.8085
   69MOL    H63 9719   6.654   5.880   4.692 -0.5901 -0.5643 -0.4659
   69MOL    H64 9720   6.850   5.663   4.777 -1.4703 -1.2300  2.5485
   69MOL    C65 9721   6.753   5.795   4.928 -0.4406 -0.7704  0.0492
   69MOL    C66 9722   6.747   5.943   4.969 -0.1365  0.1575  0.5244
   69MOL    C67 9723   6.758   6.047   4.865  0.0067 -0.1699 -0.1844
   69MOL    N68 9724   6.765   6.136   4.790 -0.1125  0.4790  0.2992
   69MOL    H69 9725   6.651   5.756   4.919 -0.3869 -0.7895 -0.5266
   69MOL    H70 9726   6.807   5.739   5.004  2.7574  3.0445  0.7554
   69MOL    H71 9727   6.848   5.950   5.009 -0.6668  0.8708  1.7695
   69MOL    C72 9728   6.632   5.970   5.069  0.7995 -0.0664  0.6190
   69MOL    C73 9729   6.605   6.117   5.111 -0.8514  0.2697  0.4003
   69MOL    C74 9730   6.475   6.138   5.187 -0.0227 -0.2834  0.0097
   69MOL    N75 9731   6.382   6.152   5.251  0.0362  0.6141  0.4271
   69MOL    H76 9732   6.541   5.927   5.027 -0.3603  1.6521  1.3080
   69MOL    H77 9733   6.646   5.916   5.162 -0.9334  0.3862  1.1580
   69MOL    H78 9734   6.595   6.164   5.013 -1.3579  0.2320  0.4322
   69MOL    C79 9735   6.725   6.177   5.190  0.1585  0.4045  0.2237
   69MOL    C80 9736   6.694   6.310   5.266 -0.0508  0.0764  0.0890
   69MOL    C81 9737   6.801   6.345   5.355  0.3697 -0.2472 -0.0843
   69MOL    N82 9738   6.892   6.373   5.427  0.4829 -0.1227 -0.0326
   69MOL    H83 9739   6.754   6.107   5.268  0.7514  0.4540  0.0547
   69MOL    H84 9740   6.815   6.197   5.132 -0.8917  0.4169 -1.4287
   69MOL    H85 9741   6.610   6.296   5.335  0.0548  0.1982  0.2421
   69MOL    C86 9742   6.646   6.409   5.160 -0.1045 -0.0844 -0.4421
   69MOL    C87 9743   6.573   6.528   5.233 -0.0350  0.2330 -0.4306
   69MOL    C88 9744   6.663   6.604   5.327  0.0485  0.9466  0.5112
   69MOL    N89 9745   6.736   6.659   5.402  0.1824  0.1884 -0.6034
   69MOL    H90 9746   6.729   6.442   5.097  1.3022 -0.7129  1.0433
   69MOL    H91 9747   6.580   6.370   5.082 -0.6054  2.6335 -1.4355
   69MOL    H92 9748   6.511   6.466   5.297 -3.1938  3.6526 -0.0182
   69MOL    C93 9749   6.474   6.614   5.156 -0.4799  0.4394  0.0679
   69MOL    C94 9750   6.521   6.737   5.071 -0.2364  0.3033  0.0658
   69MOL    C95 9751   6.653   6.700   5.008  0.8263 -0.1409 -0.1272
   69MOL    N96 9752   6.756   6.671   4.964  0.6257 -0.1695 -0.0855
   69MOL    H97 9753   6.424   6.549   5.085  2.2133  0.6767 -2.1245
   69MOL    H98 9754   6.396   6.653   5.222 -1.1871  0.2232 -0.6318
   69MOL    H99 9755   6.554   6.808   5.147 -0.6035  1.3262 -0.7217
   69MOL   C100 9756   6.415   6.798   4.978  0.6220  0.4368 -0.8500
   69MOL   C101 9757   6.466   6.928   4.897 -0.1997  0.3685  0.2641
   69MOL   C102 9758   6.364   6.982   4.805  0.0999 -0.0898  0.6045
   69MOL   N103 9759   6.283   7.032   4.739 -0.0904 -0.0331  0.7362
   69MOL   H104 9760   6.390   6.725   4.901 -0.4494  0.4636 -0.5412
   69MOL   H105 9761   6.325   6.817   5.036  0.5731 -1.2642 -0.3558
   69MOL   H106 9762   6.555   6.910   4.836 -0.1169 -1.5437  0.9265
   69MOL   C107 9763   6.512   7.038   4.994  0.5030 -0.0374 -0.5535
   69MOL   C108 9764   6.552   7.177   4.938 -0.7277 -0.0985  0.5580
   69MOL   C109 9765   6.567   7.269   5.057 -0.0824 -0.4114  0.3883
   69MOL   N110 9766   6.581   7.346   5.140  0.1295 -0.3263  0.3372
   69MOL   H111 9767   6.432   7.045   5.068  0.2101  1.5566 -0.9888
   69MOL   H112 9768   6.595   7.002   5.055  0.2142  0.9596  0.4623
   69MOL   H113 9769   6.464   7.221   4.891 -0.5001 -1.3716 -1.0655
   69MOL   C114 9770   6.677   7.168   4.842 -0.1584 -0.7274  0.3518
   69MOL   C115 9771   6.747   7.303   4.795  0.0441 -0.0179 -0.5355
   69MOL   C116 9772   6.875   7.264   4.737 -0.1441  0.1225  0.0602
   69MOL   N117 9773   6.979   7.224   4.696 -0.4064 -0.1838 -0.2568
   69MOL   H118 9774   6.753   7.115   4.899 -0.2943 -2.8829 -1.4204
   69MOL   H119 9775   6.658   7.114   4.750 -0.9606 -0.8413  0.5808
   69MOL   H120 9776   6.773   7.368   4.878  0.5656 -1.2183  0.2341
   69MOL   C121 9777   6.661   7.381   4.689 -0.4201  0.9435 -0.4727
   69MOL   C122 9778   6.702   7.525   4.655  0.1121 -0.4733  0.3173
   69MOL   C123 9779   6.845   7.560   4.645 -0.0958  0.0641  0.6709
   69MOL   N124 9780   6.959   7.593   4.633  0.5323  0.1868 -0.0003
   69MOL   H125 9781   6.673   7.317   4.602 -0.5264 -0.4637  0.5155
   69MOL   H126 9782   6.555   7.374   4.715  0.1032 -1.3665  1.2677
   69MOL   H127 9783   6.673   7.574   4.748  2.5924  0.7472  0.4897
   69MOL   C128 9784   6.616   7.575   4.531 -0.1436 -0.6724 -0.0518
   69MOL   C129 9785   6.635   7.716   4.476 -0.4170 -0.2937  0.4382
   69MOL   C130 9786   6.625   7.826   4.576  0.5328 -0.2354  0.8118
   69MOL   N131 9787   6.628   7.918   4.656 -0.3734 -0.2442 -0.3734
   69MOL   H132 9788   6.609   7.497   4.455  0.7604  0.9344 -1.8241
   69MOL   H133 9789   6.523   7.581   4.587  0.6015  1.3596  1.0412
   69MOL   H134 9790   6.552   7.740   4.409  0.6415  0.0188 -0.7999
   69MOL   C135 9791   6.759   7.740   4.388  0.0993  0.6092 -0.0798
   69MOL   C136 9792   6.758   7.860   4.290 -0.1228  0.1662 -0.0920
   69MOL   C137 9793   6.634   7.860   4.203 -0.3979  0.1999 -0.0717
   69MOL   N138 9794   6.543   7.873   4.131 -1.0070  0.1054  0.1470
   69MOL   H139 9795   6.849   7.738   4.449 -0.0150 -0.3868  0.0627
   69MOL   H140 9796   6.774   7.653   4.325  1.0753 -0.0914  1.1044
   69MOL   H141 9797   6.853   7.878   4.239  0.1054 -0.6971  0.0195
   69MOL   H142 9798   6.751   7.950   4.352 -1.4806 -0.4088  0.6100
   70MOL     C1 9799   1.908   2.663   2.392  0.4500 -0.2591 -0.7246
   70MOL     C2 9800   2.033   2.711   2.315 -0.0180  0.1483 -0.4001
   70MOL     C3 9801   2.029   2.658   2.178 -0.0658  0.1652  0.0531
   70MOL     N4 9802   2.024   2.613   2.071  0.6544  0.6087  0.3210
   70MOL     H5 9803   1.884   2.557   2.386  2.4660 -0.9255  1.8246
   70MOL     H6 9804   1.826   2.718   2.344  1.2383  1.5790 -0.0350
   70MOL     H7 9805   2.114   2.657   2.364  0.4507  0.6203 -0.6617
   70MOL     H8 9806   1.907   2.699   2.495  0.7421 -2.4089  0.0514
   70MOL     C9 9807   2.055   2.869   2.322  0.1399  0.8961  0.3957
   70MOL    C10 9808   2.127   2.906   2.450 -0.2040 -0.1695  0.3418
   70MOL    C11 9809   2.201   2.797   2.521  0.1668 -0.5365  0.0395
   70MOL    N12 9810   2.263   2.713   2.577 -0.5228 -0.3575 -0.3721
   70MOL    H13 9811   2.130   2.880   2.243 -0.1736 -1.9225 -0.3428
   70MOL    H14 9812   1.968   2.926   2.291  1.7447  1.7877 -2.7456
   70MOL    H15 9813   2.043   2.928   2.517 -0.7336 -1.3774  0.0979
   70MOL    C16 9814   2.209   3.040   2.438 -0.5132  0.1876  0.3940
   70MOL    C17 9815   2.237   3.116   2.574  0.7917 -0.2548 -0.1837
   70MOL    C18 9816   2.345   3.053   2.644  0.4115  0.4297  0.0816
   70MOL    N19 9817   2.433   3.005   2.699 -0.3401 -0.3712 -0.1192
   70MOL    H20 9818   2.305   3.021   2.392 -0.9702  0.6159 -0.7406
   70MOL    H21 9819   2.148   3.104   2.374 -1.1477  0.7632  1.5561
   70MOL    H22 9820   2.146   3.109   2.634 -0.9882  2.1139 -2.4472
   70MOL    C23 9821   2.279   3.258   2.553 -0.3140 -0.1144  0.8811
   70MOL    C24 9822   2.151   3.358   2.553 -0.1802  0.5261 -0.0767
   70MOL    C25 9823   2.064   3.337   2.432  0.6421  0.5560 -1.0606
   70MOL    N26 9824   1.995   3.318   2.343  0.2441 -0.0262 -0.5781
   70MOL    H27 9825   2.355   3.293   2.623  0.6825 -1.3480  0.4354
   70MOL    H28 9826   2.330   3.256   2.456  1.7765  1.4506  1.8931
   70MOL    H29 9827   2.190   3.459   2.548 -0.5686  0.5230 -4.8829
   70MOL    C30 9828   2.050   3.335   2.667  0.2882 -0.5981 -0.2716
   70MOL    C31 9829   1.964   3.449   2.702  0.3463  0.1585  0.1367
   70MOL    C32 9830   1.821   3.414   2.736  0.1201 -0.9998 -0.2357
   70MOL    N33 9831   1.709   3.388   2.765 -0.2117  0.5043  0.5274
   70MOL    H34 9832   1.983   3.256   2.636  1.4914 -1.6436 -0.2446
   70MOL    H35 9833   2.113   3.302   2.750  1.7130  2.0225 -0.2487
   70MOL    H36 9834   1.956   3.492   2.602  2.8536  1.4692  0.4550
   70MOL    C37 9835   2.011   3.558   2.807 -0.2643 -0.1516  1.0370
   70MOL    C38 9836   2.013   3.513   2.950  0.0540 -0.5913  0.5586
   70MOL    C39 9837   2.035   3.369   2.965  0.8600 -0.0127  0.8330
   70MOL    N40 9838   2.049   3.250   2.985  0.2875 -0.1051  0.0627
   70MOL    H41 9839   2.112   3.595   2.789 -0.4548 -0.1617 -0.0823
   70MOL    H42 9840   1.937   3.637   2.797 -1.3615 -1.4287 -1.2605
   70MOL    H43 9841   1.915   3.524   2.996 -0.0118 -3.1734  1.0785
   70MOL    C44 9842   2.093   3.611   3.043 -1.0034  0.5177 -0.4677
   70MOL    C45 9843   2.115   3.560   3.190 -0.1118 -1.2254  0.6876
   70MOL    C46 9844   1.989   3.525   3.248  0.1014  0.0306  0.4708
   70MOL    N47 9845   1.889   3.505   3.288 -0.0991 -0.6387 -0.3325
   70MOL    H48 9846   2.195   3.634   3.013 -0.6621  0.9924  1.0432
   70MOL    H49 9847   2.047   3.710   3.044 -1.7213  0.2091 -1.4569
   70MOL    H50 9848   2.154   3.639   3.255 -0.8756  0.3023 -0.6603
   70MOL    C51 9849   2.217   3.446   3.205  0.3222 -0.0796  0.3804
   70MOL    C52 9850   2.280   3.429   3.344  0.0494  0.8481  0.4191
   70MOL    C53 9851   2.180   3.390   3.445 -0.1066  0.0696 -0.1112
   70MOL    N54 9852   2.099   3.360   3.523  0.3276  0.5994 -0.1214
   70MOL    H55 9853   2.166   3.351   3.189 -2.4614  1.6142 -1.3712
   70MOL    H56 9854   2.291   3.458   3.127 -0.2047  0.9072  0.0181
   70MOL    H57 9855   2.327   3.525   3.364  1.0493  0.9313 -2.1403
   70MOL    C58 9856   2.391   3.323   3.345  0.2984 -0.7526 -0.4258
   70MOL    C59 9857   2.483   3.344   3.466 -0.9861  0.5773 -1.0738
   70MOL    C60 9858   2.568   3.465   3.443 -0.6413  0.3027 -0.7449
   70MOL    N61 9859   2.630   3.560   3.415 -0.2750  0.5564  0.2350
   70MOL    H62 9860   2.345   3.227   3.325 -1.9204  0.2954 -0.5094
   70MOL    H63 9861   2.453   3.354   3.260 -0.0286 -1.0708 -0.7804
   70MOL    H64 9862   2.563   3.271   3.457 -0.5067  0.9222  0.3129
   70MOL    C65 9863   2.423   3.329   3.607 -0.1067 -0.0595  0.1851
   70MOL    C66 9864   2.515   3.312   3.724 -0.3198 -0.1763 -0.5890
   70MOL    C67 9865   2.627   3.411   3.724  0.4035  1.2861 -0.5981
   70MOL    N68 9866   2.713   3.495   3.725  0.5205  0.3242  0.7399
   70MOL    H69 9867   2.371   3.424   3.622  0.3147 -0.0166  1.4713
   70MOL    H70 9868   2.343   3.256   3.601 -2.0105  1.9958 -0.1458
   70MOL    H71 9869   2.571   3.218   3.725  1.0164  0.5952 -1.1274
   70MOL    C72 9870   2.424   3.313   3.855 -0.1952 -0.3895  0.5311
   70MOL    C73 9871   2.495   3.320   3.993  0.4283  0.4040  0.4217
   70MOL    C74 9872   2.596   3.217   3.991  0.2667  0.3433  0.6284
   70MOL    N75 9873   2.677   3.136   3.995  0.0343  0.0140 -0.6554
   70MOL    H76 9874   2.359   3.401   3.862 -0.4861 -0.5941  0.4340
   70MOL    H77 9875   2.360   3.225   3.850  0.1604 -0.5570 -1.8604
   70MOL    H78 9876   2.426   3.289   4.072 -0.1930  1.1254  0.1649
   70MOL    C79 9877   2.543   3.456   4.034 -0.0234  0.4130  0.2008
   70MOL    C80 9878   2.606   3.462   4.174 -0.2195 -0.4241 -0.4153
   70MOL    C81 9879   2.727   3.545   4.174 -0.3059 -0.4531 -0.3985
   70MOL    N82 9880   2.824   3.617   4.173 -0.5068 -0.3852 -0.0176
   70MOL    H83 9881   2.615   3.484   3.957  0.7923  0.2207  0.8809
   70MOL    H84 9882   2.454   3.519   4.027  0.2855  0.6982 -1.2469
   70MOL    H85 9883   2.640   3.360   4.193 -1.3080 -0.1637  3.1481
   70MOL    C86 9884   2.504   3.485   4.287  0.0574  0.4586  0.2475
   70MOL    C87 9885   2.567   3.519   4.429  0.2625  0.0862 -0.2773
   70MOL    C88 9886   2.677   3.422   4.458  0.0158 -0.6568 -0.2976
   70MOL    N89 9887   2.759   3.342   4.467 -0.0650 -0.3912 -1.1820
   70MOL    H90 9888   2.444   3.572   4.261  0.5504  0.5282 -0.6479
   70MOL    H91 9889   2.444   3.393   4.289  1.5046 -0.4979  0.3332
   70MOL    H92 9890   2.487   3.494   4.498 -0.6278  2.0845 -0.5572
   70MOL    C93 9891   2.609   3.673   4.445  1.3336  0.0711  0.6049
   70MOL    C94 9892   2.697   3.704   4.567 -0.6793  0.4479  0.0732
   70MOL    C95 9893   2.748   3.840   4.549 -0.7349 -0.8177  0.2399
   70MOL    N96 9894   2.790   3.945   4.537 -0.2018 -0.0259 -0.4282
   70MOL    H97 9895   2.655   3.710   4.354 -1.2347  1.4317 -0.1765
   70MOL    H98 9896   2.513   3.723   4.440  0.0990 -2.3405 -0.9060
   70MOL    H99 9897   2.778   3.632   4.576  0.2212  1.4603  0.0582
   70MOL   C100 9898   2.609   3.697   4.693 -0.0361 -0.3459 -0.7259
   70MOL   C101 9899   2.684   3.729   4.828  0.0042  0.5252 -0.0875
   70MOL   C102 9900   2.694   3.874   4.853  0.0972 -0.0832 -0.4098
   70MOL   N103 9901   2.709   3.985   4.877  0.1240 -0.5160  0.2649
   70MOL   H104 9902   2.529   3.770   4.684 -1.5023 -1.3585  3.0951
   70MOL   H105 9903   2.569   3.595   4.690 -2.9895  0.8076 -3.4525
   70MOL   H106 9904   2.788   3.699   4.823  0.8615  2.9802  1.7831
   70MOL   C107 9905   2.614   3.655   4.943  0.1714  0.2908  0.3763
   70MOL   C108 9906   2.691   3.662   5.077  0.3772 -0.0440  0.1964
   70MOL   C109 9907   2.649   3.780   5.163  0.3890 -0.4669  0.6131
   70MOL   N110 9908   2.629   3.863   5.240 -0.1620  0.1345 -0.8370
   70MOL   H111 9909   2.519   3.706   4.963  0.5096  1.1604 -0.2272
   70MOL   H112 9910   2.582   3.553   4.919 -0.5441  0.8432 -1.1163
   70MOL   H113 9911   2.793   3.683   5.046 -0.0878  1.2954 -0.4871
   70MOL   C114 9912   2.681   3.532   5.158 -0.0166 -0.2702 -0.3411
   70MOL   C115 9913   2.779   3.503   5.276 -0.6041  0.1100 -1.2076
   70MOL   C116 9914   2.748   3.370   5.335  0.4055  0.1224 -0.8737
   70MOL   N117 9915   2.718   3.262   5.381  0.0748 -0.1910 -0.0974
   70MOL   H118 9916   2.581   3.534   5.200 -0.2156  0.2212 -0.8390
   70MOL   H119 9917   2.679   3.458   5.077 -1.6755 -1.7552  1.0304
   70MOL   H120 9918   2.763   3.578   5.353 -2.1520  0.7207 -2.1003
   70MOL   C121 9919   2.918   3.497   5.218  0.1284  0.4476 -0.1798
   70MOL   C122 9920   3.028   3.492   5.331 -0.4754 -0.5229  0.2526
   70MOL   C123 9921   3.164   3.470   5.284 -0.1937 -0.0128  0.1887
   70MOL   N124 9922   3.268   3.448   5.240  0.0125 -0.4092 -0.1725
   70MOL   H125 9923   2.921   3.403   5.161 -0.9347  0.6250 -0.5377
   70MOL   H126 9924   2.942   3.574   5.145 -0.5698 -0.4048 -1.3321
   70MOL   H127 9925   2.997   3.411   5.398 -1.2185 -2.2409 -2.0955
   70MOL   C128 9926   3.009   3.608   5.430  0.0383 -0.1377 -0.0665
   70MOL   C129 9927   3.132   3.630   5.523  0.5198 -0.1702  0.5430
   70MOL   C130 9928   3.172   3.509   5.580 -0.3607  0.1054 -0.5048
   70MOL   N131 9929   3.208   3.406   5.618  0.0869 -0.0947 -0.3757
   70MOL   H132 9930   3.003   3.696   5.365 -1.7032 -1.1136 -1.2678
   70MOL   H133 9931   2.919   3.605   5.490  0.6724  0.8880  0.9576
   70MOL   H134 9932   3.099   3.688   5.609 -3.5952 -0.1304 -0.9101
   70MOL   C135 9933   3.235   3.728   5.460 -0.3424 -0.8736  0.1049
   70MOL   C136 9934   3.181   3.869   5.424  0.2108 -0.8104 -0.9858
   70MOL   C137 9935   3.276   3.932   5.331 -0.4511  0.3934  0.0184
   70MOL   N138 9936   3.351   3.981   5.251  0.1650  0.9023 -0.3180
   70MOL   H139 9937   3.316   3.740   5.531 -0.0793 -0.5443 -0.2466
   70MOL   H140 9938   3.283   3.680   5.375  0.2911 -1.4518  0.7887
   70MOL   H141 9939   3.168   3.936   5.509  1.3870  0.0643 -1.4632
   70MOL   H142 9940   3.084   3.873   5.374  0.7820  0.3905 -2.0501
   71MOL     C1 9941   2.808   3.689   6.556  0.5312  0.0339 -0.3131
   71MOL     C2 9942   2.726   3.726   6.431 -0.7553 -0.2374  0.3458
   71MOL     C3 9943   2.680   3.600   6.378  0.4257 -0.5937 -0.4060
   71MOL     N4 9944   2.646   3.504   6.331  0.1845 -0.3776 -0.0056
   71MOL     H5 9945   2.745   3.636   6.627 -0.2780  3.2075  1.3899
   71MOL     H6 9946   2.833   3.785   6.600 -0.1105 -0.8784  2.1090
   71MOL     H7 9947   2.807   3.768   6.372 -2.0381  2.1144  0.2169
   71MOL     H8 9948   2.905   3.640   6.550 -0.1700 -1.4651  0.4656
   71MOL     C9 9949   2.613   3.831   6.454  0.2087  0.4684  0.2976
   71MOL    C10 9950   2.555   3.901   6.331 -0.5111 -0.0465  0.3568
   71MOL    C11 9951   2.530   3.810   6.217 -0.9556  0.6946  0.3524
   71MOL    N12 9952   2.502   3.746   6.128 -0.8151 -0.0563 -1.2887
   71MOL    H13 9953   2.524   3.779   6.491 -0.7973  1.3739 -0.7949
   71MOL    H14 9954   2.660   3.902   6.522 -0.6388 -0.2480  1.6536
   71MOL    H15 9955   2.634   3.971   6.308  0.5634 -0.9681  1.1665
   71MOL    C16 9956   2.429   3.976   6.361 -0.7645 -0.0251 -0.0658
   71MOL    C17 9957   2.392   4.084   6.259  0.1880 -0.0040  0.0088
   71MOL    C18 9958   2.364   4.037   6.120 -0.3355 -0.3476 -0.2459
   71MOL    N19 9959   2.341   3.999   6.010 -0.3546 -0.4252 -0.7447
   71MOL    H20 9960   2.343   3.910   6.375  0.4462 -1.7385 -0.5876
   71MOL    H21 9961   2.439   4.024   6.459  2.8664 -0.2230 -0.2750
   71MOL    H22 9962   2.489   4.133   6.249 -0.0639  0.6579  0.7379
   71MOL    C23 9963   2.285   4.179   6.308  0.2074 -0.1062 -0.2024
   71MOL    C24 9964   2.135   4.162   6.266 -0.6454  0.8382  0.1614
   71MOL    C25 9965   2.105   4.017   6.269 -0.1698 -0.5180 -0.5152
   71MOL    N26 9966   2.079   3.902   6.274 -0.9077  0.5206  0.1458
   71MOL    H27 9967   2.282   4.163   6.415 -2.6902 -4.0844 -0.7961
   71MOL    H28 9968   2.309   4.284   6.291 -0.4461 -0.0746 -0.9624
   71MOL    H29 9969   2.124   4.187   6.161  0.2566 -0.0568 -0.1572
   71MOL    C30 9970   2.044   4.245   6.356  0.4100  0.0576 -0.9115
   71MOL    C31 9971   2.059   4.400   6.340  0.2939 -0.1931 -0.5123
   71MOL    C32 9972   1.990   4.452   6.218  0.2367  0.2601 -0.6461
   71MOL    N33 9973   1.937   4.499   6.127 -0.4119  0.4373  0.0459
   71MOL    H34 9974   1.938   4.222   6.340  0.3202 -0.1318 -0.0843
   71MOL    H35 9975   2.052   4.217   6.461  1.0770 -1.0241 -1.2455
   71MOL    H36 9976   2.160   4.434   6.317  0.3892  0.7226  1.2010
   71MOL    C37 9977   2.014   4.488   6.460  0.6899  0.5990  0.5093
   71MOL    C38 9978   2.076   4.458   6.598 -0.4800 -0.0216 -0.2901
   71MOL    C39 9979   2.210   4.399   6.592  0.2601  0.1909  0.3960
   71MOL    N40 9980   2.321   4.358   6.584  0.4010 -0.5614 -0.8531
   71MOL    H41 9981   2.030   4.589   6.423 -0.3132  0.9620  1.0398
   71MOL    H42 9982   1.905   4.486   6.458  0.7146 -1.8997 -0.5861
   71MOL    H43 9983   2.011   4.389   6.652  0.4531 -0.4594  0.2966
   71MOL    C44 9984   2.081   4.585   6.680 -0.1097 -0.0935 -0.0997
   71MOL    C45 9985   2.088   4.566   6.835  0.1377 -0.0698  0.7197
   71MOL    C46 9986   2.214   4.511   6.865 -0.3478 -0.8235  0.5185
   71MOL    N47 9987   2.317   4.463   6.893  0.1562 -0.6633  0.1914
   71MOL    H48 9988   2.162   4.651   6.652 -0.3493  0.2468  0.0116
   71MOL    H49 9989   1.986   4.635   6.659 -1.3865 -1.7170  1.6432
   71MOL    H50 9990   2.006   4.496   6.851 -0.9056  1.0174  0.2349
   71MOL    C51 9991   2.075   4.700   6.908 -0.3192 -0.6420 -0.7801
   71MOL    C52 9992   2.072   4.675   7.065 -0.4809 -0.4856 -0.2161
   71MOL    C53 9993   1.969   4.578   7.099 -0.4959 -0.6485 -0.5338
   71MOL    N54 9994   1.887   4.496   7.125  0.0392  0.0300 -0.0727
   71MOL    H55 9995   2.161   4.766   6.893 -1.0301  0.1708 -1.3743
   71MOL    H56 9996   1.984   4.748   6.874 -1.0013 -0.8220  0.7421
   71MOL    H57 9997   2.040   4.776   7.091  0.5104 -0.3006  0.3084
   71MOL    C58 9998   2.200   4.662   7.136  0.0989 -0.2513 -0.4173
   71MOL    C59 9999   2.183   4.696   7.294  0.2686  1.5025  0.6872
   71MOL    C6010000   2.281   4.619   7.371  0.2718 -0.1420  0.2789
   71MOL    N6110001   2.359   4.558   7.432 -0.7925  0.0253 -0.5357
   71MOL    H6210002   2.231   4.558   7.131 -0.5954 -0.5617  1.6036
   71MOL    H6310003   2.279   4.724   7.094 -0.1612 -0.5710 -1.4010
   71MOL    H6410004   2.095   4.644   7.332  1.0302 -0.2166  0.1514
   71MOL    C6510005   2.181   4.847   7.330  0.0305  0.2175 -0.6654
   71MOL    C6610006   2.092   4.871   7.458  0.6859 -0.2874  0.0686
   71MOL    C6710007   1.952   4.830   7.440 -0.0547 -0.0941  0.3315
   71MOL    N6810008   1.844   4.795   7.416  0.2754  0.0768  0.5648
   71MOL    H6910009   2.283   4.884   7.343 -1.0233  3.1326 -0.3600
   71MOL    H7010010   2.151   4.904   7.242 -1.1098  0.2664 -0.2456
   71MOL    H7110011   2.103   4.980   7.462 -0.0452 -0.2534  2.3424
   71MOL    C7210012   2.154   4.823   7.598 -0.4228  0.6740  0.2500
   71MOL    C7310013   2.118   4.905   7.723  0.5875  0.1514 -0.2319
   71MOL    C7410014   2.188   5.029   7.728  0.3781  0.0508 -0.0125
   71MOL    N7510015   2.249   5.131   7.729 -0.4140  0.1224  0.2899
   71MOL    H7610016   2.127   4.719   7.619  0.4332  0.2495 -0.6816
   71MOL    H7710017   2.263   4.820   7.596 -0.4195  1.1752 -0.2485
   71MOL    H7810018   2.152   4.851   7.811 -0.0259  0.5540  0.2573
   71MOL    C7910019   1.959   4.915   7.728 -0.3856 -0.1507  0.3332
   71MOL    C8010020   1.914   4.974   7.865 -0.1196  0.2580 -0.1095
   71MOL    C8110021   1.770   5.000   7.848 -0.0076  0.2535 -0.5589
   71MOL    N8210022   1.660   5.016   7.822 -0.2019  0.2320  0.0443
   71MOL    H8310023   1.921   4.982   7.651  1.6423 -0.0863 -0.6369
   71MOL    H8410024   1.908   4.819   7.718  0.6411 -0.9442  2.3295
   71MOL    H8510025   1.964   5.071   7.872  2.0485 -0.8730  0.6242
   71MOL    C8610026   1.945   4.878   7.992 -0.1225 -0.5638  0.5157
   71MOL    C8710027   1.882   4.913   8.129  0.3905 -0.4578 -0.2821
   71MOL    C8810028   1.857   4.785   8.200 -0.9503 -0.6871 -0.6003
   71MOL    N8910029   1.843   4.683   8.261 -0.0659  0.2532  0.0163
   71MOL    H9010030   1.923   4.775   7.962 -2.4731 -0.5803  2.2047
   71MOL    H9110031   2.054   4.878   7.999 -0.1195  2.1228  0.7217
   71MOL    H9210032   1.780   4.950   8.117  0.0546 -1.4015 -0.3176
   71MOL    C9310033   1.977   5.012   8.204  0.6473  0.2831 -0.1975
   71MOL    C9410034   1.990   5.153   8.141 -0.2526 -0.3750  0.0116
   71MOL    C9510035   1.956   5.259   8.236 -0.2003  0.2588  0.4210
   71MOL    N9610036   1.939   5.338   0.009  0.1400  0.5320 -0.0029
   71MOL    H9710037   1.916   5.016   8.295  1.3573 -0.5010  0.3131
   71MOL    H9810038   2.071   4.967   8.234  1.6042  1.1728 -1.8095
   71MOL    H9910039   1.915   5.164   8.063  0.5336 -0.1005 -0.7155
   71MOL   C10010040   2.126   5.164   8.067 -0.2694 -0.1295  0.1419
   71MOL   C10110041   2.233   5.236   8.141 -0.5450 -0.4303 -0.6858
   71MOL   C10210042   2.274   5.160   8.263 -0.5612 -0.2031 -0.1024
   71MOL   N10310043   2.298   5.094   0.045  0.2315  0.3792  0.8364
   71MOL   H10410044   2.169   5.070   8.033 -0.9018  0.5126 -2.5322
   71MOL   H10510045   2.093   5.216   7.977  0.5468 -1.1496 -0.7548
   71MOL   H10610046   2.207   5.332   8.185  3.9527 -0.2094  1.7996
   71MOL   C10710047   2.352   5.258   8.046  0.0383  0.3751 -0.1509
   71MOL   C10810048   2.475   5.341   8.096  0.0057  0.2472 -0.3774
   71MOL   C10910049   2.489   5.345   8.243  1.2573  0.4263 -0.1826
   71MOL   N11010050   2.496   5.348   0.047 -0.3006  0.2746  0.1388
   71MOL   H11110051   2.385   5.163   8.005  0.3306 -0.0906  1.1689
   71MOL   H11210052   2.310   5.298   7.953 -1.1639 -0.2425  0.1091
   71MOL   H11310053   2.461   5.443   8.062 -0.2557 -0.1364 -1.4381
   71MOL   C11410054   2.602   5.287   8.022 -0.4699 -0.2101  0.1104
   71MOL   C11510055   2.728   5.369   8.035 -0.1212  0.3174  0.3765
   71MOL   C11610056   2.792   5.357   8.169  0.0031 -0.0496  0.9532
   71MOL   N11710057   2.841   5.349   8.272 -0.2108  0.2106 -0.1310
   71MOL   H11810058   2.623   5.190   8.065 -2.1533 -0.5118  0.3128
   71MOL   H11910059   2.577   5.284   7.916  0.4637 -0.4717 -0.1054
   71MOL   H12010060   2.708   5.475   8.020  0.4750 -0.0317 -3.5908
   71MOL   C12110061   2.829   5.331   7.921  0.0679 -0.4771  1.3174
   71MOL   C12210062   2.966   5.399   7.919  0.1490 -0.5329  0.1228
   71MOL   C12310063   3.065   5.352   7.822 -0.0563  0.4621 -0.3672
   71MOL   N12410064   3.142   5.314   7.744  0.0446  0.1871 -0.5344
   71MOL   H12510065   2.841   5.223   7.926 -1.2043 -0.7849 -1.3578
   71MOL   H12610066   2.781   5.354   7.826  2.1090  4.6704  1.3755
   71MOL   H12710067   3.010   5.369   8.014 -0.0498 -2.5494 -0.3988
   71MOL   C12810068   2.970   5.553   7.933  0.0444 -0.1913  0.2447
   71MOL   C12910069   2.910   5.618   7.804 -0.0424 -0.7919 -0.2399
   71MOL   C13010070   2.760   5.621   7.818  0.2566  0.0956  0.6943
   71MOL   N13110071   2.648   5.620   7.826 -0.1349  0.6706 -0.1292
   71MOL   H13210072   2.911   5.587   8.018  2.6387  0.2815  1.8920
   71MOL   H13310073   3.070   5.595   7.947  0.2260 -1.6543  3.5218
   71MOL   H13410074   2.931   5.556   7.717  1.2418 -3.1943  1.7241
   71MOL   C13510075   2.969   5.755   7.769 -0.0868 -0.3038  0.1721
   71MOL   C13610076   2.918   5.826   7.643 -0.0842  0.3950  0.7338
   71MOL   C13710077   2.831   5.754   7.548  0.1787 -0.1257  0.0231
   71MOL   N13810078   2.769   5.692   7.475  0.3223  0.5947 -0.3230
   71MOL   H13910079   2.952   5.824   7.851  1.4500 -0.4062  0.6042
   71MOL   H14010080   3.078   5.749   7.771 -0.1210 -1.0493 -0.1625
   71MOL   H14110081   3.000   5.862   7.580 -0.8874 -0.2466 -0.6980
   71MOL   H14210082   2.857   5.912   7.670  0.8003  1.4036 -0.4395
   72MOL     C110083   1.734   6.937   4.984  0.3248 -0.2331  0.4498
   72MOL     C210084   1.887   6.947   5.000 -0.3860  0.3999 -0.0790
   72MOL     C310085   1.931   6.832   5.077 -0.3636 -0.3877  0.6183
   72MOL     N410086   1.972   6.740   5.135 -0.3123 -0.1029 -0.3491
   72MOL     H510087   1.694   6.852   4.928  0.8039  0.8820 -1.6331
   72MOL     H610088   1.698   7.019   4.922 -0.5618 -0.3970  0.7324
   72MOL     H710089   1.912   7.038   5.055 -0.7719  0.3034  0.2580
   72MOL     H810090   1.690   6.955   5.083  0.1361 -0.4086  0.3977
   72MOL     C910091   1.961   6.944   4.864 -0.1462  0.0182  0.0431
   72MOL    C1010092   1.916   7.040   4.753 -0.1115  0.8007 -0.1780
   72MOL    C1110093   1.905   7.174   4.804  0.0196  0.1899 -0.5857
   72MOL    N1210094   1.892   7.282   4.845  0.9891  0.1465  0.3569
   72MOL    H1310095   2.066   6.955   4.890 -0.5264  0.1857  1.5283
   72MOL    H1410096   1.946   6.843   4.824  4.6710 -0.6823 -0.2528
   72MOL    H1510097   1.813   7.024   4.722  0.0887 -1.4387  0.1928
   72MOL    C1610098   1.997   7.022   4.631  0.5496  1.1424  0.6215
   72MOL    C1710099   1.935   7.061   4.494  0.4404 -0.0565  0.3320
   72MOL    C1810100   2.047   7.089   4.401  0.0851 -0.8619  0.5728
   72MOL    N1910101   2.134   7.109   4.328  0.3061  0.8858 -0.0613
   72MOL    H2010102   2.088   7.081   4.642  0.6211  1.5463 -1.8414
   72MOL    H2110103   2.035   6.921   4.624  0.4576  1.1407  0.1235
   72MOL    H2210104   1.884   7.155   4.516  1.6548  0.2661  1.8138
   72MOL    C2310105   1.828   6.961   4.446  0.7422  0.1875  0.1284
   72MOL    C2410106   1.774   6.999   4.308 -0.4574 -0.2350 -0.1105
   72MOL    C2510107   1.701   6.887   4.241 -0.4459 -0.5384 -0.3603
   72MOL    N2610108   1.641   6.799   4.194 -0.1447 -0.1551 -0.0642
   72MOL    H2710109   1.865   6.859   4.438 -0.0813 -0.1253  0.2428
   72MOL    H2810110   1.755   6.950   4.526  1.8274 -0.8911  0.9726
   72MOL    H2910111   1.861   7.007   4.243  0.0188 -0.0411  0.5399
   72MOL    C3010112   1.693   7.126   4.292  0.8089 -0.3139  0.0975
   72MOL    C3110113   1.552   7.125   4.357 -0.1550  0.3867  0.4907
   72MOL    C3210114   1.560   7.102   4.507  0.3721  0.5314  0.8847
   72MOL    N3310115   1.566   7.086   4.621  0.2080 -0.6557 -0.4104
   72MOL    H3410116   1.757   7.204   4.332  1.8524 -0.0980 -1.9179
   72MOL    H3510117   1.677   7.147   4.186 -1.0915 -0.3732  0.3529
   72MOL    H3610118   1.488   7.049   4.312 -0.2659 -0.3313  1.8356
   72MOL    C3710119   1.475   7.253   4.338  0.1975 -0.3067  0.6251
   72MOL    C3810120   1.447   7.282   4.193 -0.6350  0.2117  0.1601
   72MOL    C3910121   1.416   7.163   4.110 -0.0467 -0.0270  0.0682
   72MOL    N4010122   1.385   7.074   4.044  0.4128 -0.0683  0.6786
   72MOL    H4110123   1.382   7.237   4.392 -1.1233 -0.8094 -1.7523
   72MOL    H4210124   1.527   7.339   4.381  1.7584 -1.0400  0.2555
   72MOL    H4310125   1.535   7.318   4.138 -1.3608 -1.1681 -1.9642
   72MOL    C4410126   1.333   7.387   4.181 -0.0238  0.0530  0.5767
   72MOL    C4510127   1.356   7.530   4.225 -0.3972 -0.2387 -0.4411
   72MOL    C4610128   1.470   7.598   4.160  0.1823  0.3577 -0.1846
   72MOL    N4710129   1.557   7.652   4.109 -0.3636  0.2303  0.2783
   72MOL    H4810130   1.278   7.382   4.087 -1.7461  2.1391  1.4388
   72MOL    H4910131   1.250   7.342   4.236  0.8882 -0.6103  1.4251
   72MOL    H5010132   1.379   7.523   4.331  0.7978  0.0563 -0.6777
   72MOL    C5110133   1.230   7.614   4.210 -0.8499  0.2594 -0.6056
   72MOL    C5210134   1.247   7.765   4.240  0.4419  0.1989  0.2585
   72MOL    C5310135   1.133   7.842   4.194 -0.5718 -0.5351  0.0611
   72MOL    N5410136   1.041   7.904   4.165  0.2535 -0.3504 -0.2286
   72MOL    H5510137   1.189   7.603   4.110  1.2604  1.0597 -1.6034
   72MOL    H5610138   1.164   7.572   4.286  0.5990 -2.5998 -0.8885
   72MOL    H5710139   1.328   7.810   4.183  0.0143 -0.2149 -0.6918
   72MOL    C5810140   1.280   7.804   4.385 -0.9638 -0.1188 -0.3453
   72MOL    C5910141   1.383   7.914   4.417 -0.0092  0.0856  0.0802
   72MOL    C6010142   1.361   8.030   4.331  0.1767 -0.2671  0.5851
   72MOL    N6110143   1.343   8.126   4.258  0.0459  0.2675  0.1973
   72MOL    H6210144   1.184   7.830   4.431 -1.5963 -0.1089 -1.6463
   72MOL    H6310145   1.312   7.714   4.438  0.0891  1.1272  1.1870
   72MOL    H6410146   1.475   7.872   4.376 -0.9622 -1.0045 -0.9974
   72MOL    C6510147   1.392   7.937   4.563  0.1057  1.0381 -0.4039
   72MOL    C6610148   1.477   8.056   4.610 -0.0562 -0.5332  0.0600
   72MOL    C6710149   1.413   8.191   4.601  0.0709 -0.1114  0.1028
   72MOL    N6810150   1.358   8.291   4.601  0.3392 -0.6848  0.0157
   72MOL    H6910151   1.291   7.940   4.605  0.7976 -1.9978  1.6383
   72MOL    H7010152   1.436   7.847   4.608 -1.6070  1.0424  1.3859
   72MOL    H7110153   1.545   8.065   4.525 -0.0842 -2.9200 -0.2318
   72MOL    C7210154   1.552   8.037   4.744 -0.2102  0.1445 -0.4657
   72MOL    C7310155   1.467   8.105   4.866 -0.6045 -0.0367 -0.0439
   72MOL    C7410156   1.323   8.059   4.865 -0.4349  0.3167  0.1136
   72MOL    N7510157   1.213   8.018   4.861  0.8579 -0.1045 -0.1945
   72MOL    H7610158   1.564   7.929   4.755 -0.5184 -0.0568 -1.9809
   72MOL    H7710159   1.654   8.074   4.731 -0.0960 -1.0093 -3.1312
   72MOL    H7810160   1.476   8.212   4.847  0.9248 -0.1854 -0.2390
   72MOL    C7910161   1.517   8.076   5.010 -0.5555  0.7658  0.2067
   72MOL    C8010162   1.666   8.099   5.035  0.6442  0.1548 -0.1048
   72MOL    C8110163   1.713   8.227   4.978  0.1946 -0.2674 -0.0568
   72MOL    N8210164   1.751   0.014   4.934  0.3731 -0.0403  0.1603
   72MOL    H8310165   1.462   8.135   5.083  1.1821  1.3410  1.0713
   72MOL    H8410166   1.490   7.973   5.033  1.0343 -0.0440 -1.4058
   72MOL    H8510167   1.733   8.028   4.986 -2.2083 -2.8074  0.0560
   72MOL    C8610168   1.696   8.100   5.189  0.0052 -0.3385 -0.4175
   72MOL    C8710169   1.680   7.966   5.258  0.0579 -0.2656 -0.2392
   72MOL    C8810170   1.734   7.859   5.170  0.5801  1.0540 -0.1769
   72MOL    N8910171   1.773   7.776   5.101  0.1292 -0.3034  0.1362
   72MOL    H9010172   1.797   8.136   5.206  0.3193 -1.4541  0.1455
   72MOL    H9110173   1.635   8.170   5.247  0.4657 -1.1216  1.0345
   72MOL    H9210174   1.572   7.950   5.258 -0.3530  2.3009  1.1302
   72MOL    C9310175   1.732   7.951   5.403  0.1926 -0.0164  0.0932
   72MOL    C9410176   1.721   8.075   5.489  0.3851 -0.0768 -1.2077
   72MOL    C9510177   1.583   8.113   5.485  0.5628 -0.0904 -0.2363
   72MOL    N9610178   1.473   8.142   5.483  0.2724 -0.0187  0.0440
   72MOL    H9710179   1.677   7.877   5.461  1.5351 -1.7934 -0.8762
   72MOL    H9810180   1.840   7.933   5.405  0.3689  0.9333 -0.5952
   72MOL    H9910181   1.777   8.153   5.438  0.0736  0.1854 -1.1497
   72MOL   C10010182   1.796   8.045   5.624  0.7203  0.7599  0.0287
   72MOL   C10110183   1.810   8.171   5.712  0.0222 -0.1548 -0.1977
   72MOL   C10210184   1.689   8.180   5.795  0.0635 -0.4538 -0.2838
   72MOL   N10310185   1.596   8.185   5.863  0.0056 -0.6814  0.0087
   72MOL   H10410186   1.728   7.982   5.681  3.3108 -0.0806  2.2969
   72MOL   H10510187   1.877   7.975   5.607 -0.2285 -0.2060 -0.5440
   72MOL   H10610188   1.800   8.252   5.640 -2.0992 -1.0689 -0.9650
   72MOL   C10710189   1.956   8.193   5.771  0.5739  0.0030 -0.2054
   72MOL   C10810190   1.978   0.016   5.849 -0.1454  0.2891  0.2338
   72MOL   C10910191   1.925   0.134   5.773 -0.4491  0.7357  0.3051
   72MOL   N11010192   1.878   0.224   5.715 -0.2870  0.2715  0.8105
   72MOL   H11110193   1.982   8.112   5.838 -1.0954 -1.0852 -0.8472
   72MOL   H11210194   2.026   8.179   5.689  1.8070 -2.0938  1.1683
   72MOL   H11310195   2.085   0.034   5.849  0.0589 -0.8375  2.1399
   72MOL   C11410196   1.932   0.013   5.996  0.5259 -0.2642 -0.0053
   72MOL   C11510197   2.017   0.104   6.089  0.3275 -0.7079  0.1316
   72MOL   C11610198   2.050   0.227   6.024  0.1259  0.2691 -0.0278
   72MOL   N11710199   2.079   0.327   5.967  0.1818  0.0068  0.2395
   72MOL   H11810200   1.827   0.040   5.997  0.3333 -0.8391 -2.1801
   72MOL   H11910201   1.935   8.226   6.040  2.0224 -0.1244  0.2589
   72MOL   H12010202   2.117   0.064   6.103  1.8314  2.7451 -0.2316
   72MOL   C12110203   1.956   0.135   6.228  0.0872 -0.1785  0.0228
   72MOL   C12210204   1.910   0.007   6.303  0.1514  1.1203  0.2781
   72MOL   C12310205   1.793   8.256   6.243  0.0222 -0.4614 -0.0745
   72MOL   N12410206   1.707   8.204   6.183 -0.1019 -0.0252 -0.6805
   72MOL   H12510207   2.032   0.179   6.292  0.5398 -1.4496  0.3865
   72MOL   H12610208   1.868   0.199   6.219 -0.2933 -0.0325  3.8191
   72MOL   H12710209   1.886   0.044   6.403 -1.3949 -1.2311  0.8237
   72MOL   C12810210   2.025   8.222   6.341  0.1125  0.8371  0.0130
   72MOL   C12910211   1.985   8.084   6.408 -0.0552 -0.1685  0.1914
   72MOL   C13010212   2.106   8.005   6.407  1.3652  0.1678 -0.4874
   72MOL   N13110213   2.201   7.938   6.401 -0.3497  0.2573 -0.8029
   72MOL   H13210214   2.078   8.203   6.248 -0.3176 -1.8453  0.2685
   72MOL   H13310215   2.087   8.286   6.403  1.3939  0.8615 -1.2848
   72MOL   H13410216   1.921   8.032   6.337 -1.6177  0.5605  1.0213
   72MOL   C13510217   1.932   8.099   6.554 -0.1150 -0.0939  1.1253
   72MOL   C13610218   1.934   7.977   6.652  0.1343  0.0303  0.2719
   72MOL   C13710219   2.064   7.946   6.719 -0.5729  0.6546 -0.0652
   72MOL   N13810220   2.163   7.931   6.770 -0.0237  0.5614 -0.4399
   72MOL   H13910221   1.982   8.178   6.610 -0.7513  1.8361 -0.9258
   72MOL   H14010222   1.826   8.121   6.543  0.3919  1.5527 -0.7352
   72MOL   H14110223   1.896   7.896   6.590  1.3090 -0.8005  0.6272
   72MOL   H14210224   1.864   8.000   6.732  1.2461  1.4029  0.8604
   73MOL     C110225   5.246   1.928   0.990 -0.0295  0.4144  0.5569
   73MOL     C210226   5.206   1.786   1.034  0.3371 -0.0083 -0.6712
   73MOL     C310227   5.308   1.682   1.024 -0.0941  0.9653  0.2403
   73MOL     N410228   5.383   1.595   1.009 -0.1567 -0.8087 -0.1992
   73MOL     H510229   5.346   1.956   1.023  0.0355 -1.1261  1.7481
   73MOL     H610230   5.169   2.003   1.006 -2.0613 -2.1231  3.1812
   73MOL     H710231   5.139   1.753   0.955 -0.1674 -0.4292 -0.0795
   73MOL     H810232   5.246   1.925   0.881  1.3129  0.8395  0.5301
   73MOL     C910233   5.143   1.783   1.174  0.3850  0.1312  0.3450
   73MOL    C1010234   5.239   1.784   1.292  0.4490 -0.0398  0.3247
   73MOL    C1110235   5.320   1.904   1.311  0.0581 -0.2306  0.1148
   73MOL    N1210236   5.389   1.993   1.325  0.6402 -0.0672  0.1652
   73MOL    H1310237   5.060   1.851   1.189  0.9501  0.8053  0.4080
   73MOL    H1410238   5.107   1.680   1.172 -0.6316  0.4872 -2.2568
   73MOL    H1510239   5.319   1.714   1.269  0.7369  1.2904 -2.8691
   73MOL    C1610240   5.174   1.754   1.432  0.6443  1.0959 -0.0573
   73MOL    C1710241   5.085   1.632   1.441 -0.1044 -0.3545 -0.5290
   73MOL    C1810242   5.166   1.519   1.381  0.5241  0.2780  0.1346
   73MOL    N1910243   5.225   1.432   1.332  0.9120 -0.4761  0.3252
   73MOL    H2010244   5.250   1.741   1.509 -2.4261 -3.0174  2.4663
   73MOL    H2110245   5.124   1.845   1.464  0.3561  0.5794  0.9795
   73MOL    H2210246   4.997   1.643   1.378 -0.1993  1.7778 -0.0830
   73MOL    C2310247   5.047   1.593   1.577 -0.4032 -0.4831 -0.8418
   73MOL    C2410248   4.944   1.692   1.637  0.3733  0.1219 -0.3390
   73MOL    C2510249   4.819   1.698   1.562  0.5985 -0.0575 -0.7854
   73MOL    N2610250   4.715   1.702   1.509  0.6110 -0.1194  0.1670
   73MOL    H2710251   4.998   1.496   1.573 -0.1627 -0.5429 -2.7698
   73MOL    H2810252   5.140   1.589   1.634 -1.1533 -1.6978  0.3168
   73MOL    H2910253   4.996   1.787   1.628 -0.1903  0.4574 -0.1575
   73MOL    C3010254   4.915   1.671   1.787  0.0766  0.3987  0.4913
   73MOL    C3110255   5.032   1.664   1.888  0.1976  0.1872  0.7637
   73MOL    C3210256   5.128   1.763   1.844  0.3000 -0.2410  0.3068
   73MOL    N3310257   5.208   1.840   1.809 -0.5706 -0.0513  0.2738
   73MOL    H3410258   4.856   1.757   1.817 -1.8279  0.0522 -2.0883
   73MOL    H3510259   4.857   1.580   1.800  1.5992 -0.1712  3.7957
   73MOL    H3610260   5.091   1.572   1.889  1.5588  1.0269  0.2860
   73MOL    C3710261   4.993   1.694   2.040 -0.1239 -0.3819 -0.1681
   73MOL    C3810262   4.874   1.606   2.104 -0.0968  0.0801 -0.3407
   73MOL    C3910263   4.895   1.463   2.088 -0.9187 -0.0677 -0.4507
   73MOL    N4010264   4.922   1.351   2.078 -0.0655  0.4110 -0.6009
   73MOL    H4110265   5.084   1.671   2.097 -0.2918 -0.4464  0.0726
   73MOL    H4210266   4.974   1.801   2.049 -1.0631 -0.6191  0.8002
   73MOL    H4310267   4.786   1.623   2.043  0.7341 -1.2124 -1.9544
   73MOL    C4410268   4.845   1.635   2.250 -0.0481 -0.4501  0.2095
   73MOL    C4510269   4.774   1.771   2.277  0.2686 -0.8160 -0.0434
   73MOL    C4610270   4.725   1.840   2.152 -0.0171 -0.8960 -0.7563
   73MOL    N4710271   4.689   1.892   2.054  0.1404  0.1454 -0.1750
   73MOL    H4810272   4.788   1.552   2.291  1.3975 -1.7609 -0.3932
   73MOL    H4910273   4.938   1.635   2.307 -0.8006 -0.0706  1.4619
   73MOL    H5010274   4.861   1.831   2.305  0.0490 -0.8370  0.7010
   73MOL    C5110275   4.674   1.767   2.392 -0.5090  0.0378 -0.7308
   73MOL    C5210276   4.722   1.719   2.533  0.0144 -0.1697 -0.6121
   73MOL    C5310277   4.837   1.798   2.578 -0.1922  1.4132 -0.5999
   73MOL    N5410278   4.927   1.858   2.615 -0.1241 -0.3254 -0.6956
   73MOL    H5510279   4.628   1.866   2.398  0.1441  0.4206 -2.0440
   73MOL    H5610280   4.596   1.704   2.350 -1.8819  0.1576  1.5363
   73MOL    H5710281   4.748   1.614   2.524 -0.8256 -0.4775  0.4214
   73MOL    C5810282   4.607   1.742   2.637 -0.0742  0.1777 -0.5409
   73MOL    C5910283   4.625   1.680   2.770  0.0917 -0.1776 -0.3453
   73MOL    C6010284   4.721   1.759   2.852  0.4525 -0.3332  0.3972
   73MOL    N6110285   4.794   1.825   2.912 -0.7072  0.5274 -0.4446
   73MOL    H6210286   4.586   1.849   2.644 -0.1458  0.1840 -0.8326
   73MOL    H6310287   4.513   1.707   2.595 -0.4928  2.9844 -2.1008
   73MOL    H6410288   4.683   1.588   2.770 -0.2807 -0.4429  1.3004
   73MOL    C6510289   4.487   1.659   2.850  0.2228  0.9107  0.3949
   73MOL    C6610290   4.495   1.586   2.985  0.8479 -0.2665 -0.2449
   73MOL    C6710291   4.574   1.467   2.978 -0.5935 -0.0778  0.5638
   73MOL    N6810292   4.634   1.369   2.974  0.0070  0.2267  0.1302
   73MOL    H6910293   4.449   1.760   2.863 -2.3927  0.3634 -2.3481
   73MOL    H7010294   4.423   1.606   2.778  2.2339 -1.4178  0.2249
   73MOL    H7110295   4.395   1.557   3.017  1.3028  1.6179  3.1404
   73MOL    C7210296   4.542   1.673   3.103  0.0805  0.7817  1.0783
   73MOL    C7310297   4.476   1.816   3.121  0.0458 -0.7146  0.7472
   73MOL    C7410298   4.332   1.815   3.117 -0.7971 -0.4620  0.0559
   73MOL    N7510299   4.220   1.808   3.115  0.6095 -0.1652  0.4674
   73MOL    H7610300   4.529   1.619   3.197  0.8515 -0.0941  0.6921
   73MOL    H7710301   4.651   1.676   3.106  0.1719  1.9433 -1.5804
   73MOL    H7810302   4.517   1.876   3.040  2.9212 -4.4106 -0.6861
   73MOL    C7910303   4.514   1.895   3.243 -0.5849  0.4879 -0.2962
   73MOL    C8010304   4.660   1.936   3.259 -0.2250 -0.5959  0.3055
   73MOL    C8110305   4.693   2.036   3.159 -0.0300  0.3128  0.1466
   73MOL    N8210306   4.723   2.107   3.075  0.0914  0.0276 -0.8950
   73MOL    H8310307   4.452   1.984   3.261 -0.6262  0.8234 -2.0489
   73MOL    H8410308   4.488   1.828   3.325  0.5166  0.0564 -0.2939
   73MOL    H8510309   4.720   1.853   3.222  1.0051 -0.1334  1.2034
   73MOL    C8610310   4.694   1.998   3.401 -0.1087  0.1505  0.3128
   73MOL    C8710311   4.700   1.898   3.523 -0.0110  0.6335 -0.1912
   73MOL    C8810312   4.566   1.866   3.580 -0.0697 -0.4306  0.2006
   73MOL    N8910313   4.456   1.847   3.616 -0.1631 -0.1137 -0.8876
   73MOL    H9010314   4.798   2.030   3.404  0.7489 -2.2387 -1.5186
   73MOL    H9110315   4.627   2.083   3.411 -3.3424 -2.2656  0.2017
   73MOL    H9210316   4.748   1.956   3.601 -1.3475  1.7403 -0.1781
   73MOL    C9310317   4.791   1.775   3.501  0.4729 -0.0510  0.7603
   73MOL    C9410318   4.809   1.687   3.629 -0.0377  0.1932  0.4477
   73MOL    C9510319   4.687   1.612   3.678  0.6360 -0.3275 -0.3642
   73MOL    N9610320   4.594   1.553   3.711  0.0782 -0.4689 -0.1192
   73MOL    H9710321   4.760   1.711   3.418  3.5030 -0.7226  0.0796
   73MOL    H9810322   4.879   1.827   3.463 -0.3432  1.7033  1.1773
   73MOL    H9910323   4.853   1.742   3.712  1.1091  1.0187 -0.6984
   73MOL   C10010324   4.920   1.583   3.594 -0.1794  0.6851 -0.7637
   73MOL   C10110325   4.974   1.490   3.708  0.3765  0.4896  0.4359
   73MOL   C10210326   4.878   1.380   3.724  0.0895 -0.2969 -0.0223
   73MOL   N10310327   4.797   1.298   3.735 -0.4835  0.1961 -0.2690
   73MOL   H10410328   4.875   1.513   3.524 -1.3748  1.2733 -0.5883
   73MOL   H10510329   5.005   1.620   3.537  1.0743 -1.1453 -0.1400
   73MOL   H10610330   4.976   1.537   3.807 -1.8534 -2.3079  1.8995
   73MOL   C10710331   5.114   1.440   3.686  0.1988 -0.6296 -0.3024
   73MOL   C10810332   5.220   1.544   3.712  0.2882 -0.6200  0.0315
   73MOL   C10910333   5.202   1.617   3.841 -0.0629  0.3358 -1.1306
   73MOL   N11010334   5.196   1.675   3.943  0.0098  0.1577  0.0080
   73MOL   H11110335   5.123   1.349   3.745 -0.7982 -0.6556 -0.1895
   73MOL   H11210336   5.119   1.408   3.582  0.5433 -0.5608 -0.3069
   73MOL   H11310337   5.213   1.617   3.631  1.1196  0.0527  0.5561
   73MOL   C11410338   5.362   1.469   3.707  0.3646  0.0726  0.6163
   73MOL   C11510339   5.494   1.545   3.700  0.4542 -0.4529  0.9430
   73MOL   C11610340   5.591   1.445   3.660  0.5983  0.3392  0.4724
   73MOL   N11710341   5.661   1.362   3.627  0.4734 -0.0611 -0.2109
   73MOL   H11810342   5.346   1.395   3.785 -1.7521 -0.3543 -0.1834
   73MOL   H11910343   5.350   1.413   3.614  0.8200  3.1929 -1.3929
   73MOL   H12010344   5.533   1.585   3.794  0.6731 -1.0410  1.1052
   73MOL   C12110345   5.486   1.664   3.605 -0.0036 -0.4149  0.2361
   73MOL   C12210346   5.614   1.747   3.578  0.2221  0.0798  0.8257
   73MOL   C12310347   5.713   1.677   3.486  0.5824 -0.2915  0.2905
   73MOL   N12410348   5.787   1.621   3.416  0.0625  0.2455  0.4570
   73MOL   H12510349   5.460   1.630   3.505 -2.6336 -0.3321  0.8429
   73MOL   H12610350   5.396   1.719   3.633  0.6884  0.3173  1.0399
   73MOL   H12710351   5.671   1.757   3.671  3.0488 -0.9685 -0.7229
   73MOL   C12810352   5.576   1.888   3.522  0.0481  0.1378  0.0695
   73MOL   C12910353   5.473   1.978   3.588 -0.2220  0.0644 -0.6213
   73MOL   C13010354   5.468   1.960   3.737 -0.2487 -0.4426 -0.4044
   73MOL   N13110355   5.468   1.942   3.852 -0.9827  0.0178  0.3792
   73MOL   H13210356   5.660   1.947   3.484 -1.7118  1.9640 -1.0606
   73MOL   H13310357   5.522   1.866   3.430  0.9874 -0.2633 -0.3884
   73MOL   H13410358   5.374   1.944   3.559 -0.8310  1.1334  0.1732
   73MOL   C13510359   5.485   2.122   3.538 -0.0116 -0.0684  0.5946
   73MOL   C13610360   5.407   2.152   3.412  0.1612 -0.1506 -0.1956
   73MOL   C13710361   5.452   2.103   3.280 -0.3225 -0.7373  0.7307
   73MOL   N13810362   5.482   2.063   3.177  0.3529  1.1470  0.7096
   73MOL   H13910363   5.441   2.191   3.610  0.1778  1.3758 -0.6429
   73MOL   H14010364   5.589   2.151   3.522  0.4255 -2.3973 -0.9502
   73MOL   H14110365   5.392   2.261   3.410 -0.6810 -0.1941  1.6713
   73MOL   H14210366   5.304   2.118   3.424  0.1899  0.0756  0.7993
   74MOL     C110367   5.856   6.712   3.459  0.3553 -0.3962  0.2964
   74MOL     C210368   5.933   6.616   3.554  0.4918  0.0603 -0.8302
   74MOL     C310369   5.854   6.561   3.669 -0.2190  0.6216  0.1275
   74MOL     N410370   5.793   6.527   3.763 -0.2180  0.4943  0.1537
   74MOL     H510371   5.830   6.801   3.516 -0.7619 -0.1072 -0.6571
   74MOL     H610372   5.754   6.696   3.424  0.7390  0.9200 -1.4748
   74MOL     H710373   6.017   6.664   3.605  1.2031 -1.0125 -0.9600
   74MOL     H810374   5.920   6.751   3.380 -0.9322  0.5991 -0.2832
   74MOL     C910375   5.998   6.505   3.468  0.0137 -0.3000  0.3454
   74MOL    C1010376   5.918   6.368   3.450  0.1927 -0.1065 -0.0284
   74MOL    C1110377   5.789   6.401   3.390  0.1245  0.2288  0.1939
   74MOL    N1210378   5.685   6.421   3.344 -1.1265  0.0673 -0.2440
   74MOL    H1310379   6.012   6.543   3.367  0.8933 -2.2765 -0.3011
   74MOL    H1410380   6.090   6.476   3.519 -0.1446  1.6718  1.8021
   74MOL    H1510381   5.897   6.336   3.552 -0.4085  1.4661  0.3509
   74MOL    C1610382   5.992   6.268   3.360  0.7325 -0.0052 -0.5559
   74MOL    C1710383   5.942   6.122   3.364  0.2959  0.4742  0.1580
   74MOL    C1810384   5.833   6.083   3.270  0.0879 -0.5913  0.1664
   74MOL    N1910385   5.751   6.054   3.198  0.4210  0.6702 -0.0161
   74MOL    H2010386   6.010   6.306   3.259 -0.1166  1.7025 -0.0869
   74MOL    H2110387   6.089   6.262   3.410  0.6337 -1.9195 -0.5507
   74MOL    H2210388   5.900   6.108   3.463  0.1985  3.8367  0.6796
   74MOL    C2310389   6.061   6.025   3.347 -0.6458 -0.1608 -0.2321
   74MOL    C2410390   6.128   5.992   3.483  0.0565 -0.8905  0.3283
   74MOL    C2510391   6.061   5.880   3.541 -0.1149 -0.1835  0.0487
   74MOL    N2610392   6.007   5.788   3.583 -0.4469 -0.0775  0.5868
   74MOL    H2710393   6.035   5.925   3.312  0.2010  0.2104 -1.9694
   74MOL    H2810394   6.143   6.065   3.287 -0.3803  0.0690  0.2781
   74MOL    H2910395   6.101   6.072   3.552  1.0206  2.6507 -3.1923
   74MOL    C3010396   6.282   5.972   3.474 -0.4651 -0.8363  0.0333
   74MOL    C3110397   6.353   5.903   3.593  0.3560 -0.5965 -0.1023
   74MOL    C3210398   6.495   5.881   3.554 -0.5088  0.1749 -0.2058
   74MOL    N3310399   6.603   5.868   3.522  0.3718  0.4284 -0.0562
   74MOL    H3410400   6.316   5.925   3.382  1.3855 -0.2943  0.4202
   74MOL    H3510401   6.334   6.068   3.473 -0.3760 -0.8697 -2.8932
   74MOL    H3610402   6.321   5.799   3.601  1.5054 -0.9657 -0.2254
   74MOL    C3710403   6.333   5.968   3.734 -0.4110 -0.1797 -0.0917
   74MOL    C3810404   6.427   6.080   3.782 -0.0834 -0.2581  0.2911
   74MOL    C3910405   6.420   6.190   3.688 -0.2898 -0.0202  0.1675
   74MOL    N4010406   6.413   6.275   3.608  0.1377 -0.0506  0.4366
   74MOL    H4110407   6.228   5.990   3.754 -0.3556  0.2284 -0.2436
   74MOL    H4210408   6.351   5.886   3.804 -1.7482  1.3511  2.1440
   74MOL    H4310409   6.531   6.048   3.786 -0.7439 -2.4589  0.5854
   74MOL    C4410410   6.398   6.115   3.932 -0.7061  0.5458 -0.1478
   74MOL    C4510411   6.465   6.232   3.998 -0.1342  0.2239 -0.0271
   74MOL    C4610412   6.395   6.361   3.997 -0.4573  0.1931 -0.0407
   74MOL    N4710413   6.345   6.462   4.001  0.0504 -0.1315  0.0586
   74MOL    H4810414   6.290   6.127   3.944 -0.6093  1.4427 -0.1821
   74MOL    H4910415   6.421   6.025   3.990  0.0577 -0.4192 -1.8969
   74MOL    H5010416   6.550   6.261   3.936 -0.1684 -1.0506 -0.6786
   74MOL    C5110417   6.508   6.192   4.143 -0.4751  0.5828  0.1788
   74MOL    C5210418   6.397   6.193   4.256 -0.0473 -0.0195 -0.1539
   74MOL    C5310419   6.308   6.076   4.237 -0.5353 -0.1734  0.3336
   74MOL    N5410420   6.233   5.991   4.227  0.4158 -0.0060 -0.9145
   74MOL    H5510421   6.552   6.092   4.144  0.9691  1.1953  1.6282
   74MOL    H5610422   6.596   6.255   4.158 -0.4535  1.7702 -4.2983
   74MOL    H5710423   6.335   6.283   4.250 -1.0668 -0.6120  1.2319
   74MOL    C5810424   6.463   6.172   4.398 -0.0835  0.6790  0.1181
   74MOL    C5910425   6.384   6.201   4.520 -0.6494  0.6055  0.5500
   74MOL    C6010426   6.434   6.107   4.625 -0.3101 -0.1272  0.1345
   74MOL    N6110427   6.464   6.033   4.710 -0.1031  0.6991  0.4799
   74MOL    H6210428   6.500   6.070   4.397  0.1498  0.6679  3.4793
   74MOL    H6310429   6.555   6.230   4.403 -0.2812  1.0209 -0.1518
   74MOL    H6410430   6.280   6.173   4.505  0.0947 -1.1502 -1.7242
   74MOL    C6510431   6.396   6.350   4.562  0.1333  0.2849  0.4434
   74MOL    C6610432   6.295   6.381   4.674 -0.2510 -0.8041  0.2131
   74MOL    C6710433   6.356   6.347   4.807 -0.1658 -0.6123  0.0708
   74MOL    N6810434   6.401   6.319   4.912  0.2711 -1.0849 -0.3778
   74MOL    H6910435   6.498   6.375   4.592  0.3499  1.3833 -1.2013
   74MOL    H7010436   6.370   6.401   4.470  0.6027 -0.4316 -0.0909
   74MOL    H7110437   6.213   6.314   4.649 -0.3598 -0.6863  0.2547
   74MOL    C7210438   6.244   6.527   4.660 -0.1989 -0.9439 -0.0636
   74MOL    C7310439   6.118   6.566   4.736  0.2056  0.0590 -0.2599
   74MOL    C7410440   6.133   6.545   4.882  0.3553 -0.2902  0.1793
   74MOL    N7510441   6.151   6.531   4.993 -0.1700 -0.4580 -0.7163
   74MOL    H7610442   6.316   6.605   4.684 -0.7298 -0.6802  0.6662
   74MOL    H7710443   6.223   6.537   4.553  1.5888 -0.5656 -0.3998
   74MOL    H7810444   6.048   6.487   4.711 -0.4285  0.4434  0.2966
   74MOL    C7910445   6.064   6.697   4.679  0.3543  0.3713 -0.0346
   74MOL    C8010446   5.943   6.757   4.745  0.4041 -0.0520 -0.6144
   74MOL    C8110447   5.920   6.893   4.698  0.1112 -0.4851 -0.4194
   74MOL    N8210448   5.900   7.001   4.660  0.0832  0.4659 -0.0784
   74MOL    H8310449   6.138   6.776   4.671 -0.3442  0.7999 -2.7624
   74MOL    H8410450   6.040   6.688   4.573  1.1760  0.1352 -0.2075
   74MOL    H8510451   5.964   6.767   4.851  0.3467 -1.5885 -0.4489
   74MOL    C8610452   5.825   6.658   4.724 -0.3689 -0.5021 -0.1830
   74MOL    C8710453   5.686   6.701   4.781 -0.7851 -0.6351  1.1677
   74MOL    C8810454   5.710   6.763   4.913 -0.1847  0.3557 -0.2817
   74MOL    N8910455   5.728   6.804   5.017 -0.1283 -0.5774 -0.0418
   74MOL    H9010456   5.808   6.645   4.617  0.7598 -1.2110 -0.2807
   74MOL    H9110457   5.850   6.559   4.762 -0.3631 -0.6518 -0.5708
   74MOL    H9210458   5.633   6.610   4.807 -1.4943 -0.3225  0.8332
   74MOL    C9310459   5.596   6.798   4.694 -0.1577  0.2039 -0.4287
   74MOL    C9410460   5.534   6.731   4.573  0.8310  0.4516 -0.0834
   74MOL    C9510461   5.480   6.599   4.613  0.1900  0.3075  0.2906
   74MOL    N9610462   5.437   6.496   4.640 -0.3230 -0.1373 -0.1861
   74MOL    H9710463   5.518   6.834   4.761  2.1313  1.0246  1.8509
   74MOL    H9810464   5.647   6.890   4.663 -1.2780  0.5690 -1.2142
   74MOL    H9910465   5.613   6.703   4.502 -0.1655  1.2845 -1.5512
   74MOL   C10010466   5.431   6.819   4.488  0.1903  0.3265  0.2306
   74MOL   C10110467   5.384   6.759   4.354  0.0538  0.2176 -0.1424
   74MOL   C10210468   5.284   6.659   4.392  0.5414  0.2080  0.1563
   74MOL   N10310469   5.204   6.579   4.416  0.7353  0.5622  0.2542
   74MOL   H10410470   5.342   6.842   4.547 -0.5592 -1.1138 -0.3336
   74MOL   H10510471   5.471   6.918   4.466  1.3883  0.3938  2.5502
   74MOL   H10610472   5.469   6.713   4.305 -1.9338 -2.2600 -1.3934
   74MOL   C10710473   5.310   6.856   4.265  0.3318 -0.0734 -0.2659
   74MOL   C10810474   5.402   6.959   4.193  0.1395  0.0712 -0.2239
   74MOL   C10910475   5.511   6.890   4.128 -0.6033 -0.4644  0.7837
   74MOL   N11010476   5.593   6.830   4.081  0.6592 -0.0120 -0.5328
   74MOL   H11110477   5.262   6.794   4.190  1.4307  0.2997 -1.3056
   74MOL   H11210478   5.229   6.910   4.314  0.7637  0.3556 -0.0114
   74MOL   H11310479   5.452   7.032   4.257  0.5187  0.1405 -0.6020
   74MOL   C11410480   5.318   7.036   4.092  0.4755 -1.1680  1.1068
   74MOL   C11510481   5.388   7.126   3.997  0.5657 -0.2991  0.4534
   74MOL   C11610482   5.487   7.212   4.061 -0.4350 -0.8778 -0.1837
   74MOL   N11710483   5.561   7.283   4.109  0.2318 -0.1748  0.6362
   74MOL   H11810484   5.250   6.966   4.043 -2.0669  1.9057  0.0508
   74MOL   H11910485   5.239   7.088   4.147 -1.5415 -1.4021 -1.4523
   74MOL   H12010486   5.310   7.196   3.968  0.2167 -1.3005 -1.1222
   74MOL   C12110487   5.436   7.064   3.859 -0.4523  0.5476  0.0875
   74MOL   C12210488   5.489   7.165   3.758 -0.6753  0.3825 -0.0062
   74MOL   C12310489   5.561   7.092   3.656 -0.7522 -0.0761 -0.6319
   74MOL   N12410490   5.616   7.040   3.570  0.3081 -0.5981 -0.4577
   74MOL   H12510491   5.521   6.997   3.876 -0.3916  1.2525  2.7955
   74MOL   H12610492   5.368   6.986   3.824  0.2541  0.0713 -0.2371
   74MOL   H12710493   5.553   7.241   3.805 -0.6518  0.4859 -0.2052
   74MOL   C12810494   5.370   7.237   3.702  0.0398  0.4680 -0.2612
   74MOL   C12910495   5.390   7.337   3.591 -0.1179 -0.2249  0.3692
   74MOL   C13010496   5.265   7.409   3.556 -0.0817  0.7629  0.1972
   74MOL   N13110497   5.169   7.467   3.534  0.8528 -0.6425 -0.3135
   74MOL   H13210498   5.297   7.164   3.667 -0.7592 -0.3555  2.9149
   74MOL   H13310499   5.332   7.293   3.787 -3.9217 -4.5791  1.5966
   74MOL   H13410500   5.402   7.278   3.500  4.1409  0.3047  0.4686
   74MOL   C13510501   5.510   7.437   3.609  0.3855  0.0708  0.3246
   74MOL   C13610502   5.524   7.529   3.493 -0.0889 -0.2183 -0.4106
   74MOL   C13710503   5.550   7.474   3.358 -0.3847 -0.3988 -0.1568
   74MOL   N13810504   5.577   7.428   3.254 -0.4011  0.8190  0.6937
   74MOL   H13910505   5.507   7.495   3.702 -0.7198  0.2183  0.2146
   74MOL   H14010506   5.600   7.376   3.611  1.8731  2.1745 -0.2894
   74MOL   H14110507   5.613   7.590   3.511  0.4493 -0.9885 -0.4368
   74MOL   H14210508   5.441   7.600   3.483 -0.9204 -0.4300  4.0476
   75MOL     C110509   5.880   2.950   4.144 -0.2489  0.0121 -0.4518
   75MOL     C210510   5.822   2.841   4.047  0.7180  0.6101  0.5370
   75MOL     C310511   5.883   2.709   4.076  0.4755  0.6581 -0.6842
   75MOL     N410512   5.934   2.608   4.101  0.0742  0.0784  0.0353
   75MOL     H510513   5.988   2.944   4.142 -0.1542  0.8867  0.6884
   75MOL     H610514   5.836   2.961   4.244  1.5116 -1.0521  0.4589
   75MOL     H710515   5.834   2.871   3.943 -0.6492 -2.5765 -0.6003
   75MOL     H810516   5.852   3.049   4.108  0.6588  0.3970 -0.1165
   75MOL     C910517   5.668   2.831   4.068 -0.1165  0.6409  0.2997
   75MOL    C1010518   5.586   2.929   3.978  0.3280  0.0902  0.0810
   75MOL    C1110519   5.626   2.917   3.836  0.3921 -0.4593  0.0817
   75MOL    N1210520   5.658   2.909   3.725 -0.3136 -0.2209  0.0236
   75MOL    H1310521   5.635   2.728   4.050  1.0040  0.7468 -2.8097
   75MOL    H1410522   5.647   2.847   4.173 -1.5250 -0.0215  0.1310
   75MOL    H1510523   5.607   3.030   4.012  1.6629  0.6752 -2.3553
   75MOL    C1610524   5.433   2.901   3.990  0.1520 -0.7761  0.1284
   75MOL    C1710525   5.343   2.991   3.900 -1.1202  0.1366  0.2900
   75MOL    C1810526   5.399   3.132   3.895 -0.6007 -0.4230 -0.7980
   75MOL    N1910527   5.439   3.239   3.893 -0.0546  0.0452 -0.0660
   75MOL    H2010528   5.406   2.797   3.975  3.0280 -1.5068 -0.4368
   75MOL    H2110529   5.411   2.926   4.094 -1.5067 -0.4452 -0.2877
   75MOL    H2210530   5.248   3.006   3.950 -0.8622  1.8375  0.2964
   75MOL    C2310531   5.314   2.936   3.751  0.5062 -0.0155 -1.0576
   75MOL    C2410532   5.206   3.015   3.670 -0.6939 -0.2841  0.0700
   75MOL    C2510533   5.086   3.049   3.752  0.7238  0.2151 -0.4938
   75MOL    N2610534   4.995   3.079   3.820 -0.6361 -0.1702  0.6929
   75MOL    H2710535   5.399   2.936   3.683  0.7644 -1.5909 -0.7627
   75MOL    H2810536   5.293   2.829   3.756  0.1036  0.1815  2.2529
   75MOL    H2910537   5.160   2.949   3.596  0.7974 -0.0066 -1.1096
   75MOL    C3010538   5.251   3.142   3.593 -0.0120 -0.3315 -1.0032
   75MOL    C3110539   5.255   3.137   3.444 -1.0132 -0.1953  0.6893
   75MOL    C3210540   5.368   3.050   3.406  0.4693 -0.2387 -0.5011
   75MOL    N3310541   5.455   2.982   3.380 -0.3947  0.5800 -0.2548
   75MOL    H3410542   5.170   3.212   3.618 -0.0883 -1.4407  1.9773
   75MOL    H3510543   5.349   3.177   3.623 -0.7027 -0.5264  1.5782
   75MOL    H3610544   5.288   3.236   3.412 -1.8274  0.3223  1.4269
   75MOL    C3710545   5.120   3.109   3.385 -0.5939 -0.3923  0.5245
   75MOL    C3810546   5.083   3.150   3.245  0.0830 -0.3020 -0.5154
   75MOL    C3910547   5.190   3.117   3.153  0.1964  0.0885  0.4811
   75MOL    N4010548   5.275   3.082   3.085  0.2378  0.3916  0.2447
   75MOL    H4110549   5.090   3.006   3.405 -0.2325 -0.6271 -0.1357
   75MOL    H4210550   5.048   3.162   3.448  0.1285 -1.5448  2.3502
   75MOL    H4310551   5.088   3.259   3.235 -1.7661 -0.1765 -0.2597
   75MOL    C4410552   4.953   3.090   3.197 -0.4284  0.9740 -0.4274
   75MOL    C4510553   4.840   3.166   3.262  0.6465 -0.5637  0.4618
   75MOL    C4610554   4.814   3.307   3.219  0.4051  0.2067  0.2511
   75MOL    N4710555   4.795   3.421   3.192 -0.7730  0.2116  0.0465
   75MOL    H4810556   4.942   3.097   3.089  1.5226  0.3247 -0.6963
   75MOL    H4910557   4.966   2.982   3.212  0.6947  0.9298 -1.5783
   75MOL    H5010558   4.857   3.175   3.369 -0.5888  3.6333  0.3950
   75MOL    C5110559   4.716   3.085   3.241  0.6511 -0.1476  0.8143
   75MOL    C5210560   4.586   3.139   3.302 -0.5738 -0.7081  0.3806
   75MOL    C5310561   4.612   3.197   3.433  0.4155 -0.0175  0.3954
   75MOL    N5410562   4.636   3.242   3.535 -0.4363 -0.3719  0.2010
   75MOL    H5510563   4.703   3.069   3.134 -0.3886 -1.0142  1.0563
   75MOL    H5610564   4.733   2.979   3.265  0.7849 -0.1664  0.6341
   75MOL    H5710565   4.535   3.049   3.335 -0.1322 -2.0163 -2.3955
   75MOL    C5810566   4.506   3.241   3.213  0.4886  0.4741  0.5371
   75MOL    C5910567   4.360   3.243   3.245  0.9670  0.4332  1.0879
   75MOL    C6010568   4.323   3.236   3.391 -0.1715 -0.0394 -0.1291
   75MOL    N6110569   4.300   3.227   3.502 -0.2451 -1.1008 -0.1735
   75MOL    H6210570   4.543   3.344   3.214 -2.1510  1.4635  3.0857
   75MOL    H6310571   4.521   3.217   3.108 -1.1555  2.5583 -0.2110
   75MOL    H6410572   4.325   3.151   3.197 -1.3179  0.6799  2.1971
   75MOL    C6510573   4.282   3.358   3.176 -0.6384  0.5687  0.3414
   75MOL    C6610574   4.127   3.350   3.186 -0.0950  0.5057 -0.6323
   75MOL    C6710575   4.075   3.474   3.125  0.2033 -0.7943  0.6230
   75MOL    N6810576   4.035   3.571   3.082  1.0628 -0.2173 -0.9894
   75MOL    H6910577   4.331   3.447   3.216  1.3123 -1.0284  1.6948
   75MOL    H7010578   4.311   3.366   3.072 -0.0022  2.6007  0.6538
   75MOL    H7110579   4.094   3.357   3.290 -1.4501 -1.4686 -0.9011
   75MOL    C7210580   4.062   3.214   3.137 -0.1238 -0.0488  0.3167
   75MOL    C7310581   3.906   3.198   3.149 -0.2945 -0.3561 -0.0067
   75MOL    C7410582   3.850   3.310   3.226  0.1543 -0.0765  0.5921
   75MOL    N7510583   3.811   3.404   3.280  0.0094 -0.7949  0.3073
   75MOL    H7610584   4.092   3.182   3.037  1.5132  2.7065 -0.1222
   75MOL    H7710585   4.105   3.130   3.192  0.0421 -0.0559  0.1754
   75MOL    H7810586   3.886   3.114   3.216 -1.0102  0.0431  0.2846
   75MOL    C7910587   3.836   3.181   3.011 -0.2311  0.2158 -0.2879
   75MOL    C8010588   3.857   3.047   2.939 -0.6019  0.9835 -0.2670
   75MOL    C8110589   3.817   2.930   3.019 -0.1813 -0.1225  0.0146
   75MOL    N8210590   3.790   2.837   3.079 -0.1705  0.1753  0.2509
   75MOL    H8310591   3.730   3.189   3.034  0.0270 -1.8169  1.7276
   75MOL    H8410592   3.877   3.262   2.950 -3.1766 -0.5974 -3.5233
   75MOL    H8510593   3.964   3.033   2.924 -0.6828  0.3801 -0.2664
   75MOL    C8610594   3.781   3.043   2.807 -0.4340  0.2690 -0.0018
   75MOL    C8710595   3.775   2.907   2.737 -0.5194 -0.0359  0.0864
   75MOL    C8810596   3.694   2.924   2.619  0.1790  0.0591 -0.5748
   75MOL    N8910597   3.630   2.950   2.526 -0.1992  0.2848  0.2723
   75MOL    H9010598   3.682   3.079   2.833 -0.9764 -1.8219  0.9270
   75MOL    H9110599   3.821   3.110   2.730  0.2879 -1.1119 -0.8682
   75MOL    H9210600   3.712   2.844   2.799 -1.0764 -0.2372 -0.6745
   75MOL    C9310601   3.913   2.843   2.708 -0.1911 -1.0958  0.3234
   75MOL    C9410602   3.912   2.696   2.651  0.7029 -0.1518 -0.4886
   75MOL    C9510603   3.830   2.618   2.746 -0.4994  0.2421  0.3329
   75MOL    N9610604   3.765   2.560   2.823 -0.4194 -0.2221  0.1794
   75MOL    H9710605   3.967   2.897   2.631 -0.8476 -0.5124  0.2618
   75MOL    H9810606   3.982   2.847   2.793  0.0884  0.9774  0.0448
   75MOL    H9910607   4.014   2.659   2.658  0.3904 -1.3647 -2.2679
   75MOL   C10010608   3.865   2.681   2.505  0.5299 -0.2843 -0.1377
   75MOL   C10110609   3.923   2.563   2.423 -0.3411  0.3007 -0.2411
   75MOL   C10210610   3.921   2.439   2.505 -0.2392  0.0351 -0.1627
   75MOL   N10310611   3.920   2.337   2.562 -0.3712 -0.8504 -0.1883
   75MOL   H10410612   3.757   2.666   2.507  0.8068 -2.4148  0.2217
   75MOL   H10510613   3.884   2.778   2.460 -0.0936 -0.2106 -0.2411
   75MOL   H10610614   4.025   2.599   2.407 -0.9023  1.5847 -1.0782
   75MOL   C10710615   3.870   2.546   2.279 -0.1735  0.5362  0.1197
   75MOL   C10810616   3.928   2.635   2.173 -1.1706 -0.0854  0.7972
   75MOL   C10910617   3.895   2.768   2.207  0.6354  0.0015  0.8057
   75MOL   N11010618   3.871   2.880   2.231  0.5535  0.5668 -0.6031
   75MOL   H11110619   3.906   2.453   2.235  2.9981  1.5815  0.4138
   75MOL   H11210620   3.762   2.534   2.284 -0.3333  2.4537  1.9080
   75MOL   H11310621   3.871   2.618   2.081 -1.3843  0.3966  0.8374
   75MOL   C11410622   4.079   2.619   2.134 -0.3173 -0.3839  0.4593
   75MOL   C11510623   4.093   2.522   2.018 -0.0475 -0.4920 -0.6614
   75MOL   C11610624   4.029   2.568   1.892  0.0682  0.7007  0.0091
   75MOL   N11710625   3.975   2.606   1.794  0.8305  0.6265  0.5774
   75MOL   H11810626   4.126   2.715   2.110 -1.6116  0.6886  2.1623
   75MOL   H11910627   4.129   2.572   2.218 -1.6825 -0.6408  1.1288
   75MOL   H12010628   4.034   2.436   2.050 -0.5200  0.1520  0.2156
   75MOL   C12110629   4.242   2.496   1.979  0.3899 -0.0887  0.1701
   75MOL   C12210630   4.323   2.410   2.083  0.0181 -0.0246 -0.4998
   75MOL   C12310631   4.243   2.292   2.122  0.3292 -0.6156 -0.4152
   75MOL   N12410632   4.176   2.201   2.149  0.2912 -0.1796 -0.1279
   75MOL   H12510633   4.250   2.446   1.882 -0.3853  0.7575 -0.3259
   75MOL   H12610634   4.283   2.595   1.957 -0.6140 -0.0967 -1.8178
   75MOL   H12710635   4.342   2.469   2.173 -1.1090  2.7942 -2.0469
   75MOL   C12810636   4.458   2.373   2.022 -0.4647  0.2654  0.7258
   75MOL   C12910637   4.560   2.317   2.118 -0.2151  0.8226  0.0674
   75MOL   C13010638   4.504   2.200   2.197  0.7796 -0.5105 -0.1857
   75MOL   N13110639   4.463   2.109   2.256  0.0104  0.4046  0.3302
   75MOL   H13210640   4.450   2.306   1.936  1.6623 -0.7788  1.3092
   75MOL   H13310641   4.504   2.464   1.985 -2.8194  1.8645  1.6163
   75MOL   H13410642   4.584   2.388   2.196  4.5534 -0.7809  0.2178
   75MOL   C13510643   4.689   2.281   2.040  0.3966  0.2842  0.6573
   75MOL   C13610644   4.786   2.199   2.128 -1.0563 -0.1419  0.1028
   75MOL   C13710645   4.886   2.125   2.050 -0.5198 -0.2478 -0.1685
   75MOL   N13810646   4.972   2.073   1.991 -0.3976 -0.1056  0.1933
   75MOL   H13910647   4.667   2.220   1.953 -0.1488 -2.3009  2.5373
   75MOL   H14010648   4.731   2.371   1.996  0.7630 -0.7220 -1.0861
   75MOL   H14110649   4.732   2.112   2.167 -0.7059 -0.3243  0.1869
   75MOL   H14210650   4.830   2.254   2.211  0.6313 -0.7495 -0.3824
   76MOL     C110651   0.971   1.373   3.711  0.3537  0.0749 -0.3802
   76MOL     C210652   0.916   1.517   3.734  0.7757 -0.5110 -0.1054
   76MOL     C310653   0.830   1.561   3.623  0.5741 -0.1462  0.1923
   76MOL     N410654   0.763   1.597   3.535  0.1016  0.3835  0.0197
   76MOL     H510655   1.051   1.353   3.782  1.8485  1.4825 -1.6104
   76MOL     H610656   1.025   1.378   3.616  0.7716  0.2997 -0.1350
   76MOL     H710657   0.996   1.591   3.735  1.2168 -0.9505 -1.5501
   76MOL     H810658   0.886   1.305   3.711 -0.0687  0.5494 -2.6802
   76MOL     C910659   0.842   1.525   3.869 -0.2642  0.1433 -1.1245
   76MOL    C1010660   0.802   1.669   3.909  0.3453  0.0560 -0.1181
   76MOL    C1110661   0.912   1.767   3.921 -0.9818  0.0137 -0.1015
   76MOL    N1210662   1.004   1.835   3.926  0.3443 -0.1611 -0.0007
   76MOL    H1310663   0.754   1.461   3.857 -0.3292 -0.1536  0.8266
   76MOL    H1410664   0.891   1.481   3.956 -1.3377  0.0263 -0.5681
   76MOL    H1510665   0.776   1.659   4.014 -0.1317 -0.1843 -0.2602
   76MOL    C1610666   0.673   1.734   3.842 -0.6897  0.0836  0.3078
   76MOL    C1710667   0.544   1.649   3.867 -0.9779  0.2172  0.7212
   76MOL    C1810668   0.475   1.676   3.998 -0.0214 -0.5795  0.1928
   76MOL    N1910669   0.427   1.701   4.100 -0.2328 -0.0379  0.0431
   76MOL    H2010670   0.656   1.832   3.887  1.0234  1.4195 -1.9170
   76MOL    H2110671   0.698   1.758   3.739  1.6940 -1.1825  0.5377
   76MOL    H2210672   0.577   1.550   3.900  1.8304  1.7091  2.5676
   76MOL    C2310673   0.460   1.616   3.742  0.4559 -0.6179  0.1817
   76MOL    C2410674   0.355   1.721   3.696  0.2222 -0.2093  0.7564
   76MOL    C2510675   0.339   1.702   3.551  0.1154 -0.3781  0.4446
   76MOL    N2610676   0.331   1.685   3.435 -0.0678 -0.4987  0.3359
   76MOL    H2710677   0.529   1.569   3.672  1.6386 -1.3408  1.8108
   76MOL    H2810678   0.388   1.541   3.777 -2.3727  1.7315 -0.3524
   76MOL    H2910679   0.396   1.822   3.705  0.2049 -0.1574  0.2768
   76MOL    C3010680   0.223   1.725   3.769  0.6468  0.0774 -0.4968
   76MOL    C3110681   0.111   1.826   3.728 -0.7309 -0.5000 -0.8105
   76MOL    C3210682   0.157   1.963   3.739  0.3945 -0.3585 -0.1812
   76MOL    N3310683   0.199   2.072   3.745 -0.1571 -0.1369  0.0040
   76MOL    H3410684   0.176   1.627   3.780  2.0089 -0.7113 -1.4580
   76MOL    H3510685   0.259   1.751   3.868 -0.8332 -0.2156  0.1311
   76MOL    H3610686   0.031   1.810   3.800  0.7821 -1.9666  0.6034
   76MOL    C3710687   0.046   1.798   3.596 -0.2926 -0.7361 -0.2691
   76MOL    C3810688   8.209   1.847   3.592 -0.0193 -0.1756  0.7296
   76MOL    C3910689   8.191   1.993   3.572  0.6369 -0.4907  0.6815
   76MOL    N4010690   8.173   2.110   3.566  0.5781  0.6615 -0.0161
   76MOL    H4110691   0.108   1.845   3.520  2.8318 -2.4258  1.1725
   76MOL    H4210692   0.050   1.693   3.566 -2.1576 -0.8777 -0.0903
   76MOL    H4310693   8.161   1.798   3.677 -1.3961 -0.0547  0.0471
   76MOL    C4410694   8.132   1.771   3.478 -0.0373  0.0702  0.1670
   76MOL    C4510695   7.977   1.792   3.484  0.3439 -0.2320  0.1307
   76MOL    C4610696   7.906   1.777   3.610  0.3036  0.0915  0.5969
   76MOL    N4710697   7.856   1.759   3.712  0.0651  0.1963  0.0109
   76MOL    H4810698   8.173   1.798   3.380 -0.9553  1.3426  0.1128
   76MOL    H4910699   8.151   1.664   3.488 -1.4210 -0.1853  0.0730
   76MOL    H5010700   7.942   1.711   3.421  1.0845  0.0709 -0.6768
   76MOL    C5110701   7.929   1.921   3.419 -0.6813  0.4467  0.0072
   76MOL    C5210702   7.801   1.899   3.340  0.6232 -0.2895 -0.1155
   76MOL    C5310703   7.722   2.021   3.342  0.2465  0.4782 -0.7301
   76MOL    N5410704   7.652   2.116   3.349  0.2185 -0.7855 -0.1668
   76MOL    H5510705   7.910   1.988   3.503 -0.8079  1.6635 -0.9833
   76MOL    H5610706   8.010   1.954   3.354  0.5284  0.7918  1.6591
   76MOL    H5710707   7.747   1.825   3.400  0.7923 -0.9979 -0.8389
   76MOL    C5810708   7.834   1.846   3.203  0.2113  0.2410 -0.1438
   76MOL    C5910709   7.716   1.776   3.124 -0.5158  0.4805  0.1075
   76MOL    C6010710   7.597   1.867   3.104  0.4674 -0.0698 -0.8982
   76MOL    N6110711   7.512   1.944   3.091  0.0535  0.5267 -0.0067
   76MOL    H6210712   7.861   1.934   3.143  0.2456  2.2639  2.7327
   76MOL    H6310713   7.914   1.775   3.221 -1.0964 -1.2218 -0.0362
   76MOL    H6410714   7.681   1.693   3.186  0.2735 -0.7462 -1.0541
   76MOL    C6510715   7.757   1.710   2.992 -0.3027  0.4447  0.0968
   76MOL    C6610716   7.886   1.617   2.989 -0.1782 -0.4166 -0.0716
   76MOL    C6710717   7.890   1.522   3.101 -0.2287  0.2240 -0.6681
   76MOL    N6810718   7.892   1.451   3.198 -0.4524 -0.4464 -0.6245
   76MOL    H6910719   7.665   1.664   2.957  0.6041 -1.8505  0.5703
   76MOL    H7010720   7.779   1.791   2.922 -0.1360 -0.5110 -0.9765
   76MOL    H7110721   7.968   1.688   3.000 -1.5546  1.0989  0.6539
   76MOL    C7210722   7.903   1.546   2.853 -0.2231 -0.4450  0.1364
   76MOL    C7310723   8.040   1.479   2.823  0.8553 -0.4756 -0.3601
   76MOL    C7410724   8.088   1.386   2.927 -0.6690 -0.2325  0.8808
   76MOL    N7510725   8.124   1.319   3.011  0.6112 -0.1648  0.6849
   76MOL    H7610726   7.828   1.468   2.836  0.4813 -1.0134 -0.4180
   76MOL    H7710727   7.899   1.628   2.781  2.5190  0.6433  1.1791
   76MOL    H7810728   8.117   1.557   2.820  0.6437 -0.2512  0.0484
   76MOL    C7910729   8.022   1.407   2.692 -0.7412  0.6035  0.3123
   76MOL    C8010730   8.150   1.327   2.641 -0.1185  0.3302  0.7994
   76MOL    C8110731   8.130   1.294   2.502  0.0171  0.5451 -0.3736
   76MOL    N8210732   8.108   1.273   2.392  0.3049  0.1205  0.1637
   76MOL    H8310733   7.950   1.330   2.721 -1.4811  1.3209  0.4068
   76MOL    H8410734   7.966   1.468   2.622  0.5309 -1.4474 -2.5641
   76MOL    H8510735   8.152   1.241   2.708 -1.0687 -1.0033 -0.8066
   76MOL    C8610736   8.280   1.410   2.653 -0.5496 -0.0813 -0.3550
   76MOL    C8710737   0.093   1.355   2.584  0.0899  0.3298  0.6642
   76MOL    C8810738   0.210   1.435   2.620 -0.2566  0.2209  0.8985
   76MOL    N8910739   0.304   1.499   2.646  0.3515 -0.3755 -0.1133
   76MOL    H9010740   8.261   1.504   2.601  0.2419  0.4974  0.3871
   76MOL    H9110741   8.310   1.440   2.754  1.6590  1.1730 -1.3499
   76MOL    H9210742   0.075   1.353   2.476  0.5502 -2.0412  0.6080
   76MOL    C9310743   0.120   1.204   2.606 -0.4946 -0.0189  0.3718
   76MOL    C9410744   0.224   1.162   2.712  0.2899  0.4501  0.3324
   76MOL    C9510745   0.199   1.222   2.847 -1.2334 -0.0201  0.2476
   76MOL    N9610746   0.185   1.272   2.950  0.1900 -0.0618  0.4182
   76MOL    H9710747   0.029   1.145   2.609 -0.2623 -0.3705  0.6281
   76MOL    H9810748   0.166   1.172   2.512 -0.4276  1.3418 -0.0636
   76MOL    H9910749   0.321   1.201   2.681  0.3343  1.3321  1.5383
   76MOL   C10010750   0.243   1.004   2.691 -0.3661 -0.5666  0.2212
   76MOL   C10110751   0.303   0.929   2.804 -0.2570 -0.2291  0.4314
   76MOL   C10210752   0.213   0.908   2.917  0.0437  0.4567 -0.0802
   76MOL   N10310753   0.143   0.900   3.006 -0.0263  0.2589  0.2749
   76MOL   H10410754   0.150   0.955   2.662 -0.5703 -0.5578  0.8631
   76MOL   H10510755   0.316   1.004   2.610 -0.7948  0.4973 -0.1683
   76MOL   H10610756   0.374   0.997   2.851 -1.4306  1.1498  0.2228
   76MOL   C10710757   0.379   0.800   2.766 -0.6170  0.5007 -0.3923
   76MOL   C10810758   0.446   0.712   2.872 -0.2421  0.7564 -0.5378
   76MOL   C10910759   0.358   0.625   2.947  0.5370 -0.2858 -0.5910
   76MOL   N11010760   0.285   0.552   3.006 -0.3683  0.2340  0.0415
   76MOL   H11110761   0.322   0.732   2.703 -2.6195  0.4797  1.4022
   76MOL   H11210762   0.451   0.836   2.692  0.7013  0.9525  1.0788
   76MOL   H11310763   0.474   0.783   2.950  1.6002 -0.4977 -0.0326
   76MOL   C11410764   0.578   0.646   2.820 -0.1767 -0.4310 -0.5937
   76MOL   C11510765   0.662   0.568   2.926  0.2617 -0.3315  0.0421
   76MOL   C11610766   0.600   0.450   2.995 -1.4483 -0.4053  0.6832
   76MOL   N11710767   0.558   0.351   3.043 -0.0394 -0.2930 -0.2891
   76MOL   H11810768   0.555   0.576   2.740  2.1712 -0.0542 -1.6499
   76MOL   H11910769   0.652   0.709   2.771 -0.4130 -0.2045 -0.6588
   76MOL   H12010770   0.668   0.637   3.010 -2.7911 -2.4035  2.0851
   76MOL   C12110771   0.813   0.549   2.879 -0.7635  0.4618  0.4016
   76MOL   C12210772   0.913   0.482   2.981 -0.0592 -0.0196 -0.3871
   76MOL   C12310773   0.899   0.526   3.127 -0.4084  0.3727  0.0645
   76MOL   N12410774   0.882   0.556   3.238 -0.2049  0.6655  0.3978
   76MOL   H12510775   0.823   0.506   2.779 -0.9085 -0.1287  0.6377
   76MOL   H12610776   0.858   0.647   2.864  0.9481 -0.2725  0.6519
   76MOL   H12710777   1.009   0.521   2.947 -1.0780  2.6117 -0.3404
   76MOL   C12810778   0.936   0.330   2.983  0.0426  0.6166  0.6651
   76MOL   C12910779   0.933   0.235   2.862  0.4025  0.2987  0.0390
   76MOL   C13010780   0.808   0.247   2.789 -0.6937 -0.4303  0.4555
   76MOL   N13110781   0.707   0.250   2.729  0.0394  0.1333  0.0499
   76MOL   H13210782   1.020   0.311   3.050  0.9332 -0.2039 -0.6573
   76MOL   H13310783   0.848   0.288   3.034  0.5310  1.1666  1.9830
   76MOL   H13410784   0.937   0.134   2.902  0.4900  0.2425 -0.1116
   76MOL   C13510785   1.055   0.263   2.782  0.2193 -0.1833 -0.4518
   76MOL   C13610786   1.058   0.167   2.663 -0.3506 -0.6839  0.2709
   76MOL   C13710787   1.150   0.202   2.551  0.2298 -0.1814  0.1435
   76MOL   N13810788   1.218   0.233   2.466  0.7916 -0.0941 -0.6300
   76MOL   H13910789   1.042   0.359   2.733 -3.0737 -0.5353 -0.3779
   76MOL   H14010790   1.147   0.268   2.840  0.5192 -0.5085 -0.8946
   76MOL   H14110791   0.957   0.163   2.623 -1.2946 -0.4836  2.5450
   76MOL   H14210792   1.091   0.067   2.692 -0.2907 -0.5905  0.5276
   77MOL     C110793   1.594   5.330   2.717  0.6592 -0.5415  0.1383
   77MOL     C210794   1.633   5.205   2.796  0.3219  0.0468 -0.1480
   77MOL     C310795   1.504   5.139   2.831 -0.1664 -0.8729 -0.1405
   77MOL     N410796   1.402   5.091   2.858  0.0522 -0.0505  0.6174
   77MOL     H510797   1.682   5.393   2.723  0.8477 -0.8273  0.3837
   77MOL     H610798   1.513   5.389   2.760 -0.0916 -1.1993 -0.3638
   77MOL     H710799   1.673   5.233   2.893  1.0058 -1.7863  0.1058
   77MOL     H810800   1.566   5.318   2.612 -1.0648 -3.5394  0.8947
   77MOL     C910801   1.735   5.133   2.716  0.2729  0.2662 -0.4503
   77MOL    C1010802   1.794   5.010   2.787 -0.0190  0.1901 -0.6543
   77MOL    C1110803   1.689   4.905   2.819  0.0140 -0.1788  0.5707
   77MOL    N1210804   1.611   4.823   2.839  0.3134  0.0724 -0.1982
   77MOL    H1310805   1.688   5.110   2.620 -0.5993 -0.5975  0.1854
   77MOL    H1410806   1.820   5.198   2.697  0.1433  0.1432 -1.4999
   77MOL    H1510807   1.848   5.032   2.879 -1.3505  2.0484 -0.2805
   77MOL    C1610808   1.910   4.961   2.697 -0.5745 -0.1794 -0.3004
   77MOL    C1710809   1.983   4.831   2.735  0.4390  0.7124  0.6357
   77MOL    C1810810   1.994   4.814   2.877  0.5025  0.0226 -0.2558
   77MOL    N1910811   2.001   4.794   2.992  0.7638  0.4538 -0.4968
   77MOL    H2010812   1.879   4.967   2.593 -0.4939  1.2511 -0.2469
   77MOL    H2110813   1.990   5.032   2.716 -0.4120 -0.4595  0.0838
   77MOL    H2210814   2.087   4.853   2.711  0.7183 -0.0226  1.1780
   77MOL    C2310815   1.930   4.705   2.658 -0.8576  0.4450 -0.8845
   77MOL    C2410816   1.974   4.694   2.509  0.0996  0.0519 -0.2195
   77MOL    C2510817   2.114   4.723   2.500 -0.0932  0.5207  0.8634
   77MOL    N2610818   2.227   4.744   2.488  0.5480  0.6252 -0.7357
   77MOL    H2710819   1.963   4.617   2.713 -1.5965  1.2327  0.8810
   77MOL    H2810820   1.821   4.709   2.663 -0.7424  1.3099  2.2756
   77MOL    H2910821   1.923   4.763   2.441  1.1883  3.2583  2.0977
   77MOL    C3010822   1.937   4.547   2.467 -0.0175  0.2247  0.5193
   77MOL    C3110823   1.797   4.532   2.407 -0.7635 -0.1142  0.0145
   77MOL    C3210824   1.780   4.604   2.280  0.4002  0.9171  0.7773
   77MOL    N3310825   1.765   4.655   2.176  0.2418 -0.4840  0.1752
   77MOL    H3410826   2.000   4.511   2.386 -0.7159 -0.9403  0.4853
   77MOL    H3510827   1.959   4.482   2.552  2.4730 -0.0422 -0.2738
   77MOL    H3610828   1.728   4.588   2.470 -0.4281  1.1515 -0.7269
   77MOL    C3710829   1.756   4.384   2.394 -0.3943 -0.0307 -0.0020
   77MOL    C3810830   1.627   4.345   2.327  0.4610  0.4743 -0.2690
   77MOL    C3910831   1.611   4.202   2.347 -0.7678  0.9579  0.0869
   77MOL    N4010832   1.607   4.087   2.362 -0.5799  0.4783 -0.0373
   77MOL    H4110833   1.836   4.330   2.343  0.5279  1.0305  0.3139
   77MOL    H4210834   1.749   4.333   2.490 -2.1915 -1.3609 -0.8203
   77MOL    H4310835   1.644   4.360   2.221 -0.1206  0.3896 -0.3797
   77MOL    C4410836   1.503   4.434   2.359  0.4537  0.2200 -0.0324
   77MOL    C4510837   1.393   4.425   2.253  0.1308  0.0284  0.1619
   77MOL    C4610838   1.362   4.283   2.219  0.1199  0.5651 -0.1095
   77MOL    N4710839   1.340   4.177   2.187  0.0395  0.5082 -0.0407
   77MOL    H4810840   1.470   4.403   2.457  2.2694 -1.3295  0.1180
   77MOL    H4910841   1.542   4.536   2.360  1.0528  0.0966 -3.2974
   77MOL    H5010842   1.435   4.459   2.158  1.8050 -3.3276 -0.3568
   77MOL    C5110843   1.271   4.521   2.282  0.0324 -0.2378  0.4691
   77MOL    C5210844   1.307   4.670   2.318 -0.9055  0.3725  0.3023
   77MOL    C5310845   1.216   4.761   2.247 -0.4498 -1.1317 -0.1548
   77MOL    N5410846   1.142   4.833   2.195 -0.0106 -0.3110  0.2847
   77MOL    H5510847   1.217   4.532   2.188 -0.8066  3.0902  1.2760
   77MOL    H5610848   1.211   4.472   2.359 -0.2307 -0.1171  0.3436
   77MOL    H5710849   1.412   4.679   2.292 -0.5987 -1.0200  0.9658
   77MOL    C5810850   1.304   4.682   2.473 -0.5502 -0.2040 -0.3399
   77MOL    C5910851   1.364   4.815   2.526 -0.0658 -0.5495  0.2573
   77MOL    C6010852   1.506   4.831   2.499  0.0022  0.4003 -0.1415
   77MOL    N6110853   1.621   4.838   2.474 -1.0264  0.0239  0.1838
   77MOL    H6210854   1.202   4.671   2.509 -0.6787 -1.0542 -0.9519
   77MOL    H6310855   1.355   4.602   2.527  1.4252  1.4183  0.2608
   77MOL    H6410856   1.363   4.797   2.633 -0.4490  1.1703  0.5674
   77MOL    C6510857   1.285   4.945   2.493  0.2756 -0.3193 -0.2469
   77MOL    C6610858   1.132   4.942   2.529 -0.2851 -0.8429  1.0230
   77MOL    C6710859   1.092   4.891   2.662  0.1513  0.2711  0.0972
   77MOL    N6810860   1.065   4.861   2.771 -0.9423  0.0991  0.0100
   77MOL    H6910861   1.339   5.025   2.543  0.6924 -0.0051 -1.1833
   77MOL    H7010862   1.299   4.967   2.387 -0.9101  0.0746 -0.3261
   77MOL    H7110863   1.085   4.872   2.460 -1.4501  0.4283  0.5053
   77MOL    C7210864   1.070   5.080   2.500 -0.3131 -1.0742 -0.8668
   77MOL    C7310865   0.913   5.079   2.497 -0.3411  0.2744 -0.3382
   77MOL    C7410866   0.857   5.209   2.509  0.5742  0.7352 -0.0613
   77MOL    N7510867   0.807   5.319   2.520 -0.3064 -0.8934 -0.1382
   77MOL    H7610868   1.099   5.153   2.575  0.0096  1.0987 -3.0778
   77MOL    H7710869   1.110   5.102   2.401  2.1295 -1.6645 -0.0569
   77MOL    H7810870   0.876   5.020   2.581  0.0254 -2.8682 -2.3055
   77MOL    C7910871   0.851   5.006   2.372 -0.3677 -0.5263  0.2601
   77MOL    C8010872   0.796   5.095   2.256 -0.0826  0.8640 -0.2008
   77MOL    C8110873   0.894   5.201   2.214 -0.0815  0.1019 -0.5130
   77MOL    N8210874   0.965   5.287   2.186  0.7362  0.9718 -0.4581
   77MOL    H8310875   0.930   4.939   2.337  1.1346  0.8290  0.9661
   77MOL    H8410876   0.766   4.947   2.405 -1.1202 -0.5815 -1.6698
   77MOL    H8510877   0.713   5.155   2.291 -0.4217  0.0543  0.3866
   77MOL    C8610878   0.739   5.021   2.130 -0.4357 -0.1670  0.4761
   77MOL    C8710879   0.826   4.927   2.044  0.1552  0.7604  0.0136
   77MOL    C8810880   0.843   4.788   2.100  0.2694 -0.1432  0.3417
   77MOL    N8910881   0.852   4.683   2.144 -0.0884 -0.6893  0.2524
   77MOL    H9010882   0.650   4.969   2.167  0.8088 -1.6675  1.3897
   77MOL    H9110883   0.710   5.105   2.067  3.0132 -0.1881 -1.2130
   77MOL    H9210884   0.924   4.973   2.047  0.6938 -0.2093 -1.9297
   77MOL    C9310885   0.779   4.932   1.894 -0.2139  0.0151  0.2252
   77MOL    C9410886   0.856   4.860   1.783 -0.0792 -0.0225 -0.1524
   77MOL    C9510887   0.866   4.711   1.806 -0.4379 -1.0325 -0.3601
   77MOL    N9610888   0.875   4.596   1.818 -0.8408  0.1514  0.4087
   77MOL    H9710889   0.673   4.907   1.887 -0.4222  0.5151  1.5254
   77MOL    H9810890   0.775   5.037   1.866  1.0935 -0.2098 -0.8768
   77MOL    H9910891   0.962   4.888   1.786 -0.4492  1.5830 -1.1001
   77MOL   C10010892   0.813   4.903   1.646 -0.4293  0.3353 -0.2638
   77MOL   C10110893   0.883   4.845   1.518  0.3364 -0.1214  0.4481
   77MOL   C10210894   1.024   4.823   1.540  1.1261  0.1559 -0.0637
   77MOL   N10310895   1.133   4.790   1.563  0.6175  0.5141 -0.0327
   77MOL   H10410896   0.706   4.902   1.630 -0.7160  2.8411  1.2348
   77MOL   H10510897   0.841   5.008   1.637  1.2233 -0.0465  0.1189
   77MOL   H10610898   0.869   4.914   1.435  1.0154 -0.3181  0.1722
   77MOL   C10710899   0.807   4.714   1.478 -0.2832 -0.2412  0.1729
   77MOL   C10810900   0.830   4.664   1.333  0.1004  0.6963 -0.3007
   77MOL   C10910901   0.960   4.601   1.324 -0.1977 -0.3251  0.0627
   77MOL   N11010902   1.061   4.549   1.313 -0.8373  0.1452 -0.0978
   77MOL   H11110903   0.832   4.628   1.541 -1.5169 -0.7723 -0.0441
   77MOL   H11210904   0.702   4.732   1.499 -0.5283 -1.1028 -0.2699
   77MOL   H11310905   0.830   4.748   1.262 -0.5794 -0.0383 -1.1892
   77MOL   C11410906   0.721   4.556   1.300  0.7135  0.0985 -0.8891
   77MOL   C11510907   0.741   4.483   1.163  0.6353 -1.0911  0.4512
   77MOL   C11610908   0.670   4.359   1.161  0.1239 -0.5644 -0.1247
   77MOL   N11710909   0.611   4.263   1.173 -0.1732  0.6824  0.4410
   77MOL   H11810910   0.712   4.483   1.380  2.3037 -0.2431 -0.9951
   77MOL   H11910911   0.623   4.603   1.299  1.1304  1.1789  2.6509
   77MOL   H12010912   0.848   4.469   1.156  1.1047  1.4514  1.8996
   77MOL   C12110913   0.713   4.567   1.036  0.2752  0.7065  0.3146
   77MOL   C12210914   0.762   4.510   0.896 -0.4308 -0.7825 -0.1426
   77MOL   C12310915   0.738   4.368   0.861 -0.3893 -0.0559  0.1258
   77MOL   N12410916   0.720   4.258   0.832  0.2776  0.0021  0.0573
   77MOL   H12510917   0.605   4.584   1.032  0.2077  0.7296  1.8805
   77MOL   H12610918   0.758   4.663   1.062  2.2309 -0.0733 -0.1276
   77MOL   H12710919   0.870   4.518   0.911 -0.3204  0.6377 -1.5336
   77MOL   C12810920   0.731   4.616   0.792 -0.0132 -0.0683  0.4064
   77MOL   C12910921   0.845   4.630   0.685 -0.1980 -0.3489  0.2623
   77MOL   C13010922   0.839   4.514   0.593 -0.0550  0.1028 -0.3691
   77MOL   N13110923   0.828   4.422   0.526 -0.1299  0.3586 -0.3787
   77MOL   H13210924   0.639   4.588   0.740  0.9496 -0.1028 -1.3092
   77MOL   H13310925   0.713   4.715   0.835 -0.3218  0.0467  0.0181
   77MOL   H13410926   0.942   4.614   0.732  1.1594 -2.1615 -2.9855
   77MOL   C13510927   0.859   4.767   0.620 -0.3132  0.4103 -0.1323
   77MOL   C13610928   0.974   4.777   0.517 -0.0269  0.5573  0.9203
   77MOL   C13710929   1.105   4.776   0.579  0.5662 -0.6727  0.3926
   77MOL   N13810930   1.208   4.770   0.628 -0.5033 -0.5844  0.2412
   77MOL   H13910931   0.763   4.805   0.583 -0.5935  2.5439  2.5830
   77MOL   H14010932   0.880   4.844   0.694  0.6723  0.4811 -0.4891
   77MOL   H14110933   0.965   4.872   0.464  1.9252  0.4891  0.4525
   77MOL   H14210934   0.972   4.688   0.455  0.5045  0.4558  1.0424
   78MOL     C110935   5.355   5.774   6.187  0.0485 -0.3209 -0.4275
   78MOL     C210936   5.405   5.662   6.094 -0.0957  0.2413 -0.4076
   78MOL     C310937   5.338   5.673   5.967  0.3869  1.2582 -0.1488
   78MOL     N410938   5.285   5.691   5.868  0.0254 -1.4917  0.1764
   78MOL     H510939   5.395   5.871   6.159  0.2006  0.3215  1.9331
   78MOL     H610940   5.368   5.752   6.293 -2.5654  0.2120  0.0403
   78MOL     H710941   5.388   5.566   6.143  2.5042 -0.0604 -0.0214
   78MOL     H810942   5.247   5.765   6.173  0.2415  0.2905 -2.5748
   78MOL     C910943   5.557   5.663   6.072  0.0871  0.2619 -0.0683
   78MOL    C1010944   5.645   5.664   6.202  0.4507  0.4501  0.7086
   78MOL    C1110945   5.648   5.546   6.284 -0.3264 -0.4642 -0.6658
   78MOL    N1210946   5.639   5.447   6.344 -0.4229  0.3301 -0.4874
   78MOL    H1310947   5.601   5.586   6.009  0.2767 -0.6537  1.1757
   78MOL    H1410948   5.579   5.758   6.023  0.7507  0.8641  1.4005
   78MOL    H1510949   5.599   5.731   6.275  1.7512 -0.6621  2.5716
   78MOL    C1610950   5.791   5.716   6.177 -0.5707 -0.8706 -0.2701
   78MOL    C1710951   5.800   5.864   6.143  0.4468  0.2853 -0.4490
   78MOL    C1810952   5.712   5.944   6.225  0.5525 -0.2211 -0.3192
   78MOL    N1910953   5.641   6.008   6.289 -0.0098 -0.0659 -0.3892
   78MOL    H2010954   5.840   5.697   6.273  2.3834 -0.2314 -1.5938
   78MOL    H2110955   5.840   5.664   6.095 -2.1629 -1.0906 -1.1066
   78MOL    H2210956   5.756   5.872   6.044  1.3986  0.0935 -0.8915
   78MOL    C2310957   5.949   5.906   6.140  0.1957 -0.3545  0.2871
   78MOL    C2410958   5.984   6.049   6.079 -0.2860  0.8611 -0.6778
   78MOL    C2510959   5.910   6.156   6.144  0.0749  0.2322 -0.2118
   78MOL    N2610960   5.855   6.241   6.197  0.9705 -0.2295  0.6485
   78MOL    H2710961   5.970   5.920   6.246  1.4742 -0.4490  0.0517
   78MOL    H2810962   6.016   5.836   6.089  1.3432  0.6432  0.4337
   78MOL    H2910963   5.948   6.054   5.977  0.3198  1.2859 -0.8719
   78MOL    C3010964   6.136   6.082   6.082 -0.4217 -0.1810  0.2125
   78MOL    C3110965   6.177   6.224   6.034 -0.0514 -0.2159 -0.2268
   78MOL    C3210966   6.270   6.265   6.142 -0.4360 -0.6257 -0.1628
   78MOL    N3310967   6.347   6.288   6.229 -0.5678 -0.0357  0.9091
   78MOL    H3410968   6.160   6.073   6.187 -2.8481  0.7662  0.8878
   78MOL    H3510969   6.201   6.012   6.029  1.1863  0.7014  0.9831
   78MOL    H3610970   6.092   6.291   6.044  1.4603  2.1040 -2.2148
   78MOL    C3710971   6.255   6.238   5.897  0.0084  0.1197 -0.3114
   78MOL    C3810972   6.159   6.211   5.773  0.1332  0.0454  0.1222
   78MOL    C3910973   6.093   6.338   5.752  0.0432 -1.2159  0.3289
   78MOL    N4010974   6.045   6.439   5.732 -0.0337 -0.1382  0.1036
   78MOL    H4110975   6.309   6.332   5.894  0.4529  0.0914  3.9833
   78MOL    H4210976   6.339   6.168   5.901 -0.7498 -0.8904 -1.6788
   78MOL    H4310977   6.081   6.139   5.799  1.1584 -0.2965  2.4281
   78MOL    C4410978   6.236   6.154   5.657  0.2861  0.1372  0.0009
   78MOL    C4510979   6.285   6.011   5.678 -0.1143 -0.0386 -0.5836
   78MOL    C4610980   6.171   5.933   5.721 -0.1348  0.3783 -0.5718
   78MOL    N4710981   6.079   5.868   5.755 -0.0117  0.2873 -0.0508
   78MOL    H4810982   6.172   6.155   5.569  0.3292  3.5809 -0.0637
   78MOL    H4910983   6.322   6.219   5.637  0.1427  1.5261  3.4705
   78MOL    H5010984   6.354   6.019   5.762 -1.8302 -0.0885  0.8705
   78MOL    C5110985   6.354   5.935   5.564 -0.1739 -0.6260 -0.1312
   78MOL    C5210986   6.510   5.934   5.552  0.0543  0.2124 -0.2115
   78MOL    C5310987   6.554   6.077   5.542 -0.9449 -0.1253  0.9250
   78MOL    N5410988   6.593   6.183   5.537  0.5873 -0.3518  0.0059
   78MOL    H5510989   6.325   5.830   5.576 -0.3297 -0.5296  0.3253
   78MOL    H5610990   6.322   5.975   5.468 -0.0759  0.0024  0.1024
   78MOL    H5710991   6.544   5.881   5.463  0.6585 -0.2834  0.3061
   78MOL    C5810992   6.586   5.857   5.665  0.2746 -0.1088 -0.2444
   78MOL    C5910993   6.741   5.829   5.641  0.0825  0.1178 -0.1724
   78MOL    C6010994   6.768   5.742   5.521 -0.5087 -0.1759  0.3969
   78MOL    N6110995   6.789   5.687   5.419  0.1799 -0.5686  0.3392
   78MOL    H6210996   6.565   5.907   5.760  0.9605  1.8090 -1.0860
   78MOL    H6310997   6.540   5.759   5.679  0.2495 -0.0692 -0.0508
   78MOL    H6410998   6.769   5.766   5.725 -3.5555  2.8728  3.3379
   78MOL    C6510999   6.827   5.952   5.638 -1.0928 -0.3493 -0.2286
   78MOL    C6611000   6.810   6.042   5.762  0.1237  0.0858  0.0445
   78MOL    C6711001   6.815   5.973   5.894  0.2508  0.0923 -0.0548
   78MOL    N6811002   6.815   5.918   5.999  0.8171  0.6448  0.0665
   78MOL    H6911003   6.928   5.914   5.645 -1.2911 -0.5245  1.9503
   78MOL    H7011004   6.807   6.012   5.548  2.5753  0.5656 -0.4978
   78MOL    H7111005   6.715   6.096   5.756 -1.4443 -2.6112 -0.3490
   78MOL    C7211006   6.913   6.161   5.759 -0.0873  0.3453 -0.3754
   78MOL    C7311007   6.881   6.272   5.868 -0.0106 -0.0443 -0.9904
   78MOL    C7411008   7.011   6.344   5.889 -0.0234  0.0027  0.3688
   78MOL    N7511009   7.107   6.404   5.907  0.2706 -0.9573 -0.4230
   78MOL    H7611010   7.003   6.109   5.792 -0.5200 -0.6085 -0.6912
   78MOL    H7711011   6.943   6.199   5.661  0.8739  3.2437  0.9655
   78MOL    H7811012   6.853   6.226   5.963 -0.1094 -0.6283 -1.2977
   78MOL    C7911013   6.768   6.363   5.820  0.3267 -0.2227 -0.1095
   78MOL    C8011014   6.738   6.483   5.909 -0.0568 -0.1404 -0.0535
   78MOL    C8111015   6.742   6.452   6.050 -0.0552  0.9153 -0.5489
   78MOL    N8211016   6.736   6.436   6.164 -0.1932 -1.0094 -1.4071
   78MOL    H8311017   6.784   6.402   5.719  1.4824 -0.0786  0.1236
   78MOL    H8411018   6.677   6.304   5.812  0.4614 -0.4026 -0.3059
   78MOL    H8511019   6.634   6.509   5.892  0.0287  1.1396  1.3674
   78MOL    C8611020   6.816   6.615   5.889  0.6879  0.3136 -0.6658
   78MOL    C8711021   6.738   6.728   5.826 -0.2887  0.2479  0.0437
   78MOL    C8811022   6.651   6.788   5.925 -0.3563  0.0704 -0.0694
   78MOL    N8911023   6.583   6.841   6.006 -0.0565 -0.1739 -0.8029
   78MOL    H9011024   6.861   6.646   5.983 -1.8320 -1.9851  1.3578
   78MOL    H9111025   6.895   6.590   5.818  0.2689 -2.9920 -0.0537
   78MOL    H9211026   6.678   6.673   5.754 -0.1005 -1.8032  1.4137
   78MOL    C9311027   6.832   6.824   5.756 -0.2531 -0.0841 -0.2425
   78MOL    C9411028   6.769   6.928   5.646 -1.0933 -0.4467 -0.1454
   78MOL    C9511029   6.648   7.000   5.694  0.7281  0.6105 -0.9474
   78MOL    N9611030   6.553   7.055   5.734 -0.0914  0.3659  0.0918
   78MOL    H9711031   6.891   6.875   5.832  0.6582  0.8604 -1.5838
   78MOL    H9811032   6.904   6.767   5.698 -1.0166  0.0142 -1.2898
   78MOL    H9911033   6.731   6.867   5.564 -0.9187  1.9245 -2.0437
   78MOL   C10011034   6.875   7.035   5.606 -0.4312  1.0587  0.6891
   78MOL   C10111035   6.834   7.134   5.503 -0.7438  0.5359 -0.2503
   78MOL   C10211036   6.756   7.071   5.389  0.0208  0.2814 -0.4485
   78MOL   N10311037   6.690   7.020   5.305  0.1577  0.3680  0.2121
   78MOL   H10411038   6.918   7.080   5.696  1.4384  1.7765 -0.5409
   78MOL   H10511039   6.951   6.969   5.563 -1.1549 -1.2421  2.8075
   78MOL   H10611040   6.933   7.160   5.465 -0.8846  1.6066  0.1287
   78MOL   C10711041   6.771   7.258   5.568  0.0642 -0.5501  0.1096
   78MOL   C10811042   6.748   7.371   5.473 -0.8625  0.6276  0.3039
   78MOL   C10911043   6.677   7.475   5.560  0.9123 -0.0133  0.6046
   78MOL   N11011044   6.615   7.551   5.621 -0.4575  0.5536  0.5147
   78MOL   H11111045   6.671   7.230   5.600 -0.4016  0.3023 -0.5837
   78MOL   H11211046   6.828   7.298   5.651 -0.1286  0.5853 -0.2855
   78MOL   H11311047   6.672   7.343   5.399 -1.0116  1.9294 -0.0573
   78MOL   C11411048   6.876   7.436   5.406  0.0567 -0.2530 -0.4512
   78MOL   C11511049   6.855   7.530   5.291  0.8228 -0.1586 -0.4231
   78MOL   C11611050   6.766   7.645   5.333  1.1970  0.3632  0.3100
   78MOL   N11711051   6.696   7.731   5.366  0.6226  0.1969  0.8254
   78MOL   H11811052   6.931   7.494   5.480  1.7400 -1.4308 -0.7358
   78MOL   H11911053   6.941   7.353   5.377  0.4098  0.4805 -1.7879
   78MOL   H12011054   6.803   7.472   5.215  2.3333 -0.9922 -0.8467
   78MOL   C12111055   6.991   7.575   5.229  0.2728 -0.5781 -1.1019
   78MOL   C12211056   6.988   7.671   5.112 -0.5272  0.0365 -0.1803
   78MOL   C12311057   6.873   7.640   5.033 -0.2733  0.1624  0.2989
   78MOL   N12411058   6.773   7.617   4.979 -0.6538  0.6486  0.4990
   78MOL   H12511059   7.047   7.633   5.302 -2.4202 -0.9593  1.2981
   78MOL   H12611060   7.050   7.491   5.191  1.0456  0.8925 -3.3173
   78MOL   H12711061   7.080   7.652   5.057  0.6058 -1.2270  2.0735
   78MOL   C12811062   6.985   7.816   5.149 -0.2567  0.6222  0.3157
   78MOL   C12911063   6.934   7.906   5.028  0.2946  0.5554  0.7231
   78MOL   C13011064   6.932   8.046   5.075 -0.4825  0.6011 -0.4058
   78MOL   N13111065   6.934   8.157   5.110 -0.0374 -0.1824  0.7466
   78MOL   H13211066   6.913   7.825   5.230 -1.5340 -0.2876 -0.7022
   78MOL   H13311067   7.084   7.846   5.182  0.6892 -2.3710  0.3958
   78MOL   H13411068   6.826   7.892   5.024  0.1744  0.9728  2.2613
   78MOL   C13511069   7.019   7.901   4.896 -0.7201 -0.7749  0.5034
   78MOL   C13611070   6.961   7.978   4.770  0.1365 -0.1040  0.2659
   78MOL   C13711071   7.035   7.943   4.647  0.5363  0.1586 -0.2457
   78MOL   N13811072   7.090   7.919   4.547  1.0983  0.0914 -0.2458
   78MOL   H13911073   7.112   7.958   4.907 -0.0389 -2.0901  1.6896
   78MOL   H14011074   7.045   7.801   4.861  0.8149 -0.1238 -0.2914
   78MOL   H14111075   6.955   8.087   4.775  0.4302  0.0804 -2.5819
   78MOL   H14211076   6.859   7.944   4.753  0.1920 -0.7860  1.2621
   79MOL     C111077   0.627   1.934   4.265 -0.5438  0.2730 -0.5456
   79MOL     C211078   0.508   2.023   4.225 -0.1373  0.0132 -0.0316
   79MOL     C311079   0.468   2.001   4.088 -0.3690 -0.0492  0.5845
   79MOL     N411080   0.438   1.971   3.981 -0.3877 -0.3919  0.6074
   79MOL     H511081   0.705   1.944   4.189 -1.0162 -1.4985 -1.3067
   79MOL     H611082   0.615   1.825   4.270 -0.0229  0.1269 -1.9765
   79MOL     H711083   0.558   2.119   4.214  2.1902 -1.1387  0.1252
   79MOL     H811084   0.666   1.976   4.357 -1.1081  1.3950 -0.8066
   79MOL     C911085   0.396   2.017   4.326  0.0019 -0.3594 -0.2651
   79MOL    C1011086   0.319   1.888   4.333  0.5497  0.7151 -0.2647
   79MOL    C1111087   0.388   1.780   4.405 -0.1002 -0.2294  0.0397
   79MOL    N1211088   0.442   1.695   4.467  0.2674  0.1327 -0.3681
   79MOL    H1311089   0.447   2.042   4.419 -0.8318 -1.7503  0.5721
   79MOL    H1411090   0.329   2.101   4.305 -0.0080 -0.4567 -0.6325
   79MOL    H1511091   0.304   1.862   4.229 -2.9201 -1.8733  0.7878
   79MOL    C1611092   0.181   1.898   4.401  0.5177 -0.0024  0.2884
   79MOL    C1711093   0.072   1.982   4.332  0.3475  0.2741 -0.5615
   79MOL    C1811094   0.054   1.938   4.197  0.6056 -0.1207 -0.0069
   79MOL    N1911095   0.036   1.907   4.087 -0.1059  0.7632 -0.5993
   79MOL    H2011096   0.139   1.798   4.407 -2.9572  1.3077 -1.1426
   79MOL    H2111097   0.198   1.937   4.502 -1.5176 -0.8763  0.9912
   79MOL    H2211098   0.110   2.084   4.333  0.6899  0.1493  0.4146
   79MOL    C2311099   8.245   1.987   4.417 -0.2381 -0.0079  0.4899
   79MOL    C2411100   8.228   2.117   4.489  0.7481 -0.0084 -0.0718
   79MOL    C2511101   0.035   2.157   4.564  0.4569  0.3412  0.9204
   79MOL    N2611102   0.127   2.192   4.625  0.0897 -0.1882 -0.1510
   79MOL    H2711103   8.157   1.959   4.357  0.8518 -0.6123 -0.8618
   79MOL    H2811104   8.254   1.905   4.488 -2.0397 -0.4550  0.2473
   79MOL    H2911105   8.156   2.081   4.562  0.4976 -1.3560 -0.9465
   79MOL    C3011106   8.167   2.232   4.410 -0.2154  0.1932  0.3644
   79MOL    C3111107   8.010   2.237   4.401  0.3476  0.4253  0.2451
   79MOL    C3211108   7.957   2.285   4.531  0.2700 -0.2363 -0.8433
   79MOL    N3311109   7.917   2.328   4.634  0.5225  0.1545 -0.7704
   79MOL    H3411110   8.203   2.328   4.446 -2.0221  1.4888 -1.2187
   79MOL    H3511111   8.200   2.233   4.306 -0.6941 -3.0455  0.1231
   79MOL    H3611112   7.970   2.136   4.388 -0.1506  0.8399 -1.6622
   79MOL    C3711113   7.947   2.331   4.288  0.5552  0.7394 -0.6262
   79MOL    C3811114   7.789   2.369   4.306  0.2560  0.1634  0.2004
   79MOL    C3911115   7.736   2.453   4.198 -0.3788  0.1521 -1.0841
   79MOL    N4011116   7.698   2.520   4.111  0.6586  0.1778 -0.3067
   79MOL    H4111117   8.007   2.421   4.295  0.1484  0.9298  0.4391
   79MOL    H4211118   7.972   2.280   4.195  0.3340 -2.1642  0.8406
   79MOL    H4311119   7.781   2.429   4.396 -0.2058  1.6722 -0.8253
   79MOL    C4411120   7.715   2.238   4.324  0.7880 -0.1561  0.0177
   79MOL    C4511121   7.559   2.237   4.347  0.3095 -0.2829  0.0203
   79MOL    C4611122   7.516   2.097   4.354  0.1815  0.0783 -0.0460
   79MOL    N4711123   7.478   1.987   4.357  0.3078 -0.5384  0.0100
   79MOL    H4811124   7.740   2.192   4.228 -1.6672  0.5261 -0.9979
   79MOL    H4911125   7.750   2.168   4.400 -0.0195 -0.4489  0.1276
   79MOL    H5011126   7.500   2.273   4.263  1.3433 -0.7510 -0.9051
   79MOL    C5111127   7.519   2.312   4.468 -0.3722  0.2028  0.2395
   79MOL    C5211128   7.366   2.312   4.504 -0.0634  0.0214 -0.2483
   79MOL    C5311129   7.320   2.189   4.573  0.5225 -0.4328  0.2462
   79MOL    N5411130   7.278   2.094   4.623  0.2450  0.4508  0.1164
   79MOL    H5511131   7.576   2.271   4.552 -0.1191  1.5728  0.7489
   79MOL    H5611132   7.558   2.414   4.466  2.5580 -0.8607  0.6612
   79MOL    H5711133   7.310   2.315   4.411 -1.5806  1.8640  0.6858
   79MOL    C5811134   7.316   2.430   4.590 -0.1308 -0.7574  0.0071
   79MOL    C5911135   7.308   2.557   4.506  0.8380  0.5691 -0.0517
   79MOL    C6011136   7.215   2.546   4.393  0.5822  0.1883 -0.3539
   79MOL    N6111137   7.148   2.545   4.301 -0.2604 -0.7783 -0.7043
   79MOL    H6211138   7.216   2.400   4.623 -1.7047  0.9915 -2.9207
   79MOL    H6311139   7.380   2.432   4.677 -0.7357 -0.8158  0.4594
   79MOL    H6411140   7.410   2.556   4.467  0.6073 -0.0929 -0.6410
   79MOL    C6511141   7.269   2.692   4.579 -0.3531 -0.6422 -0.4705
   79MOL    C6611142   7.369   2.736   4.685  0.2932 -0.7622  0.1435
   79MOL    C6711143   7.492   2.787   4.624  0.4925 -0.4843  0.7624
   79MOL    N6811144   7.587   2.837   4.581  0.7832 -0.2859 -0.1247
   79MOL    H6911145   7.252   2.776   4.512  0.1357  1.7694  2.3056
   79MOL    H7011146   7.179   2.660   4.631  0.4160 -1.2569  0.5149
   79MOL    H7111147   7.382   2.646   4.746  1.0736 -0.1560  0.8767
   79MOL    C7211148   7.303   2.837   4.774  0.6705 -0.2993 -0.0371
   79MOL    C7311149   7.391   2.901   4.891  0.6418 -0.2237 -0.2632
   79MOL    C7411150   7.480   2.798   4.950  0.8838 -0.0710 -0.0722
   79MOL    N7511151   7.551   2.715   4.995  0.5820 -0.0704  0.5040
   79MOL    H7611152   7.260   2.912   4.707 -1.4697 -1.3013  0.1759
   79MOL    H7711153   7.226   2.787   4.831 -1.1222  3.2442  0.8269
   79MOL    H7811154   7.325   2.928   4.973  2.3176 -0.0882  1.0644
   79MOL    C7911155   7.464   3.033   4.853  0.1028 -0.4947 -0.1825
   79MOL    C8011156   7.540   3.105   4.976 -0.2489 -0.4354 -0.4236
   79MOL    C8111157   7.670   3.172   4.943 -0.1898 -0.3824 -0.1811
   79MOL    N8211158   7.773   3.223   4.911  0.6693  0.3029  0.0788
   79MOL    H8311159   7.533   3.021   4.769  2.1096 -1.4598  1.5443
   79MOL    H8411160   7.386   3.101   4.819  1.0791  0.4518 -0.5662
   79MOL    H8511161   7.567   3.024   5.044 -2.9172  0.9031  2.3392
   79MOL    C8611162   7.445   3.189   5.057  0.0449 -1.1530  0.4916
   79MOL    C8711163   7.475   3.254   5.191 -0.5250  0.1937 -0.6522
   79MOL    C8811164   7.373   3.355   5.211 -0.2186 -0.1719 -0.7221
   79MOL    N8911165   7.291   3.435   5.221 -0.2550  0.0672  0.2313
   79MOL    H9011166   7.412   3.275   4.998 -0.3404 -1.9503 -0.4679
   79MOL    H9111167   7.346   3.146   5.074 -0.6901 -0.0997 -0.9362
   79MOL    H9211168   7.571   3.305   5.185 -0.9532  0.8267 -2.1250
   79MOL    C9311169   7.482   3.157   5.309 -0.0539  0.7142 -0.1981
   79MOL    C9411170   7.554   3.226   5.432 -0.3232 -0.7284 -0.1015
   79MOL    C9511171   7.470   3.331   5.490  0.5634  0.9142  0.7204
   79MOL    N9611172   7.405   3.414   5.538 -0.4033 -0.3494 -0.6171
   79MOL    H9711173   7.380   3.128   5.336  0.3194 -1.5717 -1.1586
   79MOL    H9811174   7.537   3.073   5.267  0.0217  1.8546 -2.4575
   79MOL    H9911175   7.645   3.277   5.397 -1.2138  1.1243  0.2067
   79MOL   C10011176   7.605   3.129   5.541 -0.1954 -0.1917  0.0217
   79MOL   C10111177   7.625   3.192   5.681 -0.1402  0.3149 -0.1862
   79MOL   C10211178   7.645   3.085   5.783  0.4813 -0.5628  0.0848
   79MOL   N10311179   7.654   3.000   5.861 -0.8833  0.4684  0.1834
   79MOL   H10411180   7.532   3.049   5.544 -0.0507 -0.3533 -0.8454
   79MOL   H10511181   7.702   3.088   5.513 -0.6512 -0.6030 -0.9606
   79MOL   H10611182   7.532   3.245   5.704  0.3026  0.2492  1.8221
   79MOL   C10711183   7.731   3.304   5.676 -0.3712 -0.1947 -0.0114
   79MOL   C10811184   7.881   3.272   5.731  0.3781  0.1592 -1.0385
   79MOL   C10911185   7.965   3.229   5.627  0.3425 -0.3110  0.6272
   79MOL   N11011186   8.034   3.186   5.547 -0.3154 -0.0468 -0.4453
   79MOL   H11111187   7.745   3.354   5.580 -0.8256  2.2015  1.1243
   79MOL   H11211188   7.693   3.381   5.743 -0.3666 -0.1055 -0.1125
   79MOL   H11311189   7.880   3.203   5.816 -1.5299  0.0294 -1.1432
   79MOL   C11411190   7.939   3.407   5.787 -0.4618 -0.1770  0.5644
   79MOL   C11511191   8.099   3.408   5.814  0.6112  0.2185 -0.2963
   79MOL   C11611192   8.134   3.545   5.845  0.1852  0.4093  0.1211
   79MOL   N11711193   8.169   3.652   5.870  0.0218 -0.6957 -0.2646
   79MOL   H11811194   7.919   3.490   5.720 -1.6422  0.4816  1.6911
   79MOL   H11911195   7.880   3.430   5.876 -1.2407  0.0095  0.0061
   79MOL   H12011196   8.151   3.390   5.720 -0.2164 -2.2277 -0.3273
   79MOL   C12111197   8.139   3.304   5.925 -0.9663 -0.3646 -0.3837
   79MOL   C12211198   8.166   3.364   6.058 -0.5856 -0.4272 -0.2973
   79MOL   C12311199   8.047   3.427   6.108 -0.0524  0.1846 -0.1894
   79MOL   N12411200   7.948   3.481   6.140 -0.1571  0.3031  1.0073
   79MOL   H12511201   8.054   3.236   5.932 -0.7750 -0.7423 -1.6797
   79MOL   H12611202   8.230   3.256   5.890 -0.6234 -1.1255  1.4827
   79MOL   H12711203   8.240   3.440   6.033 -2.2073  1.5822  0.7750
   79MOL   C12811204   8.226   3.256   6.149 -0.4998 -0.4964  0.2570
   79MOL   C12911205   8.245   3.305   6.290 -0.3865  0.4268 -0.2284
   79MOL   C13011206   8.269   3.191   6.390  0.2349 -0.0309 -0.2295
   79MOL   N13111207   8.287   3.107   6.464 -0.8602  0.3047 -0.0881
   79MOL   H13211208   8.166   3.164   6.150 -0.7758 -0.3188  0.0395
   79MOL   H13311209   0.009   3.220   6.110  0.7797  1.5884  1.3746
   79MOL   H13411210   8.146   3.334   6.327 -0.9701  1.3489 -2.4847
   79MOL   C13511211   0.041   3.421   6.308 -0.2765 -0.9977 -0.2910
   79MOL   C13611212   0.078   3.469   6.454  0.4724 -0.7256  0.1368
   79MOL   C13711213   0.153   3.368   6.526 -0.3264 -0.6507  0.7251
   79MOL   N13811214   0.218   3.283   6.579 -0.2007 -0.1176 -0.0021
   79MOL   H13911215   0.142   3.410   6.268  0.9497  2.3293  1.6401
   79MOL   H14011216   8.309   3.505   6.254  0.8407 -0.4081 -0.3229
   79MOL   H14111217   8.304   3.476   6.520  0.0659 -0.5780 -0.4069
   79MOL   H14211218   0.119   3.570   6.443 -4.5202  1.2836 -1.4277
   80MOL     C111219   5.948   4.678   4.164  0.1130 -0.4803 -0.0168
   80MOL     C211220   5.875   4.764   4.268  0.2352 -0.0298  0.4747
   80MOL     C311221   5.887   4.723   4.405  0.4173 -0.5804  0.4669
   80MOL     N411222   5.894   4.694   4.515  0.2172  0.5915 -0.0956
   80MOL     H511223   5.941   4.729   4.068  2.3457 -0.3346 -0.1328
   80MOL     H611224   5.895   4.583   4.162  0.4713 -0.7052  1.0812
   80MOL     H711225   5.770   4.757   4.238  0.1774 -0.7400  0.8302
   80MOL     H811226   6.055   4.659   4.167  0.0873 -0.5959  0.1462
   80MOL     C911227   5.907   4.909   4.263  0.0553 -0.5665 -0.6733
   80MOL    C1011228   6.048   4.956   4.303  0.2673 -0.8266 -1.0158
   80MOL    C1111229   6.155   4.920   4.209  1.0282 -0.3341 -0.1650
   80MOL    N1211230   6.239   4.888   4.137  0.6230 -0.5068  0.8657
   80MOL    H1311231   5.893   4.946   4.161  1.3093 -0.6816 -0.8893
   80MOL    H1411232   5.829   4.967   4.313 -0.5997 -1.4924 -0.6009
   80MOL    H1511233   6.067   4.919   4.403  1.3030 -1.0475 -1.2925
   80MOL    C1611234   6.050   5.114   4.320  0.2601 -0.3122  0.3334
   80MOL    C1711235   6.188   5.184   4.341 -0.9934  0.3496  0.0082
   80MOL    C1811236   6.176   5.331   4.363  0.1581 -0.2325 -0.1362
   80MOL    N1911237   6.161   5.442   4.386 -0.7098 -0.0117 -0.1997
   80MOL    H2011238   6.000   5.146   4.228  2.0555  1.4531 -0.0563
   80MOL    H2111239   5.988   5.132   4.408 -1.4403 -1.5874 -0.5736
   80MOL    H2211240   6.238   5.176   4.244 -0.0970  1.4168  0.3756
   80MOL    C2311241   6.269   5.116   4.458  0.4724  0.4756  0.6802
   80MOL    C2411242   6.416   5.101   4.432 -0.1725  0.6943 -0.3506
   80MOL    C2511243   6.455   5.219   4.353  0.0485  0.4081 -0.2516
   80MOL    N2611244   6.484   5.310   4.292 -0.2300  0.0634 -0.0902
   80MOL    H2711245   6.257   5.177   4.548 -2.4805  2.6311 -1.0907
   80MOL    H2811246   6.245   5.011   4.474  0.2180  0.4246 -0.0335
   80MOL    H2911247   6.431   5.021   4.360 -0.3627  0.2603  0.0943
   80MOL    C3011248   6.512   5.071   4.548 -0.2528  0.0852 -0.7175
   80MOL    C3111249   6.514   4.925   4.589 -0.2097  0.0255 -0.0268
   80MOL    C3211250   6.562   4.832   4.486  0.8877 -0.4042  0.3193
   80MOL    N3311251   6.603   4.763   4.403  0.1905  0.0929  0.1508
   80MOL    H3411252   6.617   5.095   4.528 -0.3843  0.6075 -0.7828
   80MOL    H3511253   6.477   5.129   4.633 -0.1953 -3.2782  1.6837
   80MOL    H3611254   6.408   4.902   4.599 -0.2751  1.0818  1.8342
   80MOL    C3711255   6.595   4.913   4.723  0.4797 -0.1634  0.9331
   80MOL    C3811256   6.573   4.781   4.802 -0.6230  0.3144 -0.8537
   80MOL    C3911257   6.619   4.656   4.741 -0.2889  0.0928  0.0507
   80MOL    N4011258   6.648   4.558   4.693  0.1231 -0.4731  0.3637
   80MOL    H4111259   6.699   4.936   4.697  0.1572 -1.2064 -1.4068
   80MOL    H4211260   6.574   4.999   4.787  0.0283  0.3780  0.0714
   80MOL    H4311261   6.468   4.764   4.825  0.1575 -0.7405  2.1598
   80MOL    C4411262   6.643   4.802   4.944  1.1102  0.4440 -0.1510
   80MOL    C4511263   6.793   4.790   4.954 -0.9390 -0.4772 -0.2887
   80MOL    C4611264   6.881   4.860   4.867 -0.0713  0.6771  0.0306
   80MOL    N4711265   6.955   4.921   4.796 -0.3485 -0.3984  0.3381
   80MOL    H4811266   6.615   4.892   4.999  0.0876  0.6013 -0.9038
   80MOL    H4911267   6.601   4.714   4.992 -2.2541  1.6077 -0.8460
   80MOL    H5011268   6.809   4.685   4.930  0.2630 -0.6615  1.1858
   80MOL    C5111269   6.841   4.809   5.103  1.1411  0.5515 -1.2792
   80MOL    C5211270   6.990   4.793   5.137 -0.2445  1.2784  0.0581
   80MOL    C5311271   7.043   4.896   5.234  0.1314  0.3948  0.2334
   80MOL    N5411272   7.079   4.975   5.311 -0.4424  0.1208  0.1602
   80MOL    H5511273   6.816   4.914   5.118  0.3937 -0.0463  1.8990
   80MOL    H5611274   6.783   4.748   5.173  0.4772  2.4970 -0.1065
   80MOL    H5711275   7.034   4.831   5.045 -3.0868  0.6705 -1.6287
   80MOL    C5811276   7.033   4.646   5.181 -1.0618 -0.4392  0.4312
   80MOL    C5911277   7.190   4.624   5.183  0.5000  0.2943  0.6249
   80MOL    C6011278   7.239   4.492   5.220 -0.7970  0.1362 -0.0562
   80MOL    N6111279   7.285   4.383   5.253  0.2010  0.4604  0.2143
   80MOL    H6211280   6.999   4.628   5.283 -1.8401 -2.6909 -0.1985
   80MOL    H6311281   6.976   4.579   5.117 -1.4638 -0.1967  0.5327
   80MOL    H6411282   7.220   4.688   5.266  1.4530 -1.9751  2.0864
   80MOL    C6511283   7.257   4.660   5.050  0.1638 -0.2146  0.6625
   80MOL    C6611284   7.415   4.634   5.037  0.7754 -0.0287  0.6901
   80MOL    C6711285   7.438   4.575   4.901  0.3909 -0.5964  0.6406
   80MOL    N6811286   7.458   4.531   4.800 -0.1999 -0.1726  0.2142
   80MOL    H6911287   7.229   4.586   4.975  1.4955  0.1648 -0.2404
   80MOL    H7011288   7.223   4.754   5.005 -0.6106 -1.3172 -1.1175
   80MOL    H7111289   7.446   4.552   5.101 -0.7443 -2.1076 -1.1701
   80MOL    C7211290   7.515   4.745   5.067 -0.1671 -0.3142  0.6187
   80MOL    C7311291   7.533   4.867   4.968 -0.7146 -0.1129 -0.1320
   80MOL    C7411292   7.405   4.911   4.920 -0.3669  0.1378  0.7223
   80MOL    N7511293   7.300   4.945   4.882  0.2586  0.3090  0.1515
   80MOL    H7611294   7.491   4.774   5.169 -2.0006 -0.9292  0.3668
   80MOL    H7711295   7.616   4.704   5.061  0.5208  1.4602 -0.2708
   80MOL    H7811296   7.576   4.831   4.874 -0.2557 -0.2496  0.1259
   80MOL    C7911297   7.628   4.979   5.028 -0.0682  0.4586 -0.3616
   80MOL    C8011298   7.577   5.095   5.104 -0.1282  0.2638 -0.2547
   80MOL    C8111299   7.502   5.050   5.218  0.0803  0.1708  0.8066
   80MOL    N8211300   7.448   5.012   5.316  0.6663  0.3082 -0.0746
   80MOL    H8311301   7.696   4.934   5.100 -0.1664  2.0897  0.7750
   80MOL    H8411302   7.677   5.009   4.935  1.3819  0.4130  0.3742
   80MOL    H8511303   7.508   5.146   5.037  1.0803  1.1444 -0.8580
   80MOL    C8611304   7.689   5.196   5.140  0.0967  0.2015  0.5416
   80MOL    C8711305   7.734   5.279   5.012  0.1027  0.1326  0.0302
   80MOL    C8811306   7.633   5.369   4.971 -0.1563 -0.3209 -0.3381
   80MOL    N8911307   7.550   5.441   4.931 -0.0842 -0.0680 -0.0974
   80MOL    H9011308   7.644   5.260   5.216  0.2060 -0.6376  1.3142
   80MOL    H9111309   7.774   5.150   5.191  0.0490 -0.9761 -0.4252
   80MOL    H9211310   7.752   5.209   4.931 -1.4350 -0.1806 -0.0485
   80MOL    C9311311   7.861   5.350   5.049 -0.0104 -0.1610 -0.4094
   80MOL    C9411312   7.984   5.265   5.063 -0.2653  0.0811  0.2230
   80MOL    C9511313   8.096   5.323   4.985 -0.3223 -0.3600  0.3386
   80MOL    N9611314   8.183   5.363   4.922  0.3668  0.1924  0.7289
   80MOL    H9711315   7.886   5.431   4.981  3.7388  0.2709  1.3648
   80MOL    H9811316   7.839   5.411   5.136 -0.3301 -1.0494  0.1412
   80MOL    H9911317   7.967   5.169   5.016  1.0930  0.0128 -0.1479
   80MOL   C10011318   8.030   5.262   5.213 -0.4516  1.3687 -0.0815
   80MOL   C10111319   8.129   5.162   5.264  0.3096 -0.3384 -0.2071
   80MOL   C10211320   8.135   5.163   5.412 -0.0622  0.2665 -0.3913
   80MOL   N10311321   8.136   5.166   5.529 -0.4597  0.2956 -0.3969
   80MOL   H10411322   8.065   5.358   5.251 -0.8322  1.2342  0.6182
   80MOL   H10511323   7.935   5.253   5.266 -1.5090 -1.6551 -2.3285
   80MOL   H10611324   8.233   5.183   5.239  0.1042  1.7422  0.6297
   80MOL   C10711325   8.086   5.023   5.208 -0.0333 -0.3262 -0.3243
   80MOL   C10811326   8.145   4.897   5.280 -0.5768  0.1382 -0.4114
   80MOL   C10911327   8.080   4.866   5.411  0.0676  0.2619 -0.4632
   80MOL   N11011328   8.031   4.840   5.514 -0.6626 -0.9466  0.9448
   80MOL   H11111329   7.978   5.015   5.210  0.0501 -1.1499  2.5578
   80MOL   H11211330   8.115   5.030   5.103  3.0170 -2.7246  0.2745
   80MOL   H11311331   8.252   4.901   5.301 -0.8626  1.2143  0.9057
   80MOL   C11411332   8.163   4.770   5.189 -0.1697 -0.2997  0.0111
   80MOL   C11511333   8.263   4.663   5.245  0.1985 -0.0544  0.4994
   80MOL   C11611334   8.215   4.598   5.370  0.4825 -0.3235  0.2623
   80MOL   N11711335   8.184   4.547   5.469  0.5563  0.0418 -0.3539
   80MOL   H11811336   8.067   4.720   5.179 -1.0349  1.4987 -0.9518
   80MOL   H11911337   8.197   4.809   5.093  0.1952 -2.0629 -0.6011
   80MOL   H12011338   0.036   4.713   5.290 -1.5672  3.0966  0.5249
   80MOL   C12111339   8.300   4.562   5.132 -0.3389  1.0418  0.1827
   80MOL   C12211340   0.054   4.432   5.180 -0.1567 -0.0799  0.5723
   80MOL   C12311341   8.265   4.334   5.237 -0.9976 -0.2077  0.0553
   80MOL   N12411342   8.188   4.256   5.278  0.3125  0.3506  0.3207
   80MOL   H12511343   8.223   4.535   5.060 -0.2632 -1.2214  0.9212
   80MOL   H12611344   0.062   4.608   5.065  0.5701 -0.5016  0.1156
   80MOL   H12711345   0.122   4.460   5.260 -0.1347 -0.3829  0.6629
   80MOL   C12811346   0.132   4.368   5.072  0.0376 -0.3734  0.0210
   80MOL   C12911347   0.257   4.298   5.119 -0.1651 -0.3532  0.5580
   80MOL   C13011348   0.233   4.214   5.239 -0.5366  0.3964  1.1767
   80MOL   N13111349   0.220   4.149   5.333  0.5587 -0.4596  0.5607
   80MOL   H13211350   0.066   4.308   5.009  1.4800 -2.2176  0.2354
   80MOL   H13311351   0.166   4.441   4.999 -1.6924 -0.7507 -1.2078
   80MOL   H13411352   0.333   4.370   5.149  0.7059 -1.0443  0.0324
   80MOL   C13511353   0.308   4.212   4.998 -0.0092 -0.4219 -0.3225
   80MOL   C13611354   0.448   4.148   5.026  0.0851  0.5460  0.2200
   80MOL   C13711355   0.553   4.240   5.075 -0.0540 -0.9330 -0.1852
   80MOL   N13811356   0.630   4.318   5.109  0.6410  0.2190  0.0357
   80MOL   H13911357   0.234   4.135   4.976  0.6822 -1.2004  0.0921
   80MOL   H14011358   0.320   4.282   4.915  0.3632  1.5790  1.3787
   80MOL   H14111359   0.479   4.099   4.934 -0.7049 -1.2171  0.8722
   80MOL   H14211360   0.429   4.067   5.097  1.8818 -0.0379  0.0574
   81MOL     C111361   2.632   7.864   2.731 -0.2435 -0.8477 -0.2984
   81MOL     C211362   2.496   7.786   2.729 -0.3776  0.2060  0.6350
   81MOL     C311363   2.382   7.884   2.753  0.5841 -0.1715  0.5612
   81MOL     N411364   2.295   7.955   2.764  0.6749 -0.1544  0.0037
   81MOL     H511365   2.634   7.913   2.829 -0.4574  2.0900 -1.7319
   81MOL     H611366   2.631   7.949   2.663  1.8334 -1.7870 -1.5577
   81MOL     H711367   2.496   7.737   2.826 -1.3412 -1.6287 -0.2864
   81MOL     H811368   2.719   7.801   2.712  1.1398  0.2924  1.9905
   81MOL     C911369   2.484   7.690   2.606 -0.0745 -0.1092 -0.3680
   81MOL    C1011370   2.469   7.747   2.465 -0.9931 -1.1442  0.4460
   81MOL    C1111371   2.606   7.777   2.417  0.0552 -0.7089  0.1736
   81MOL    N1211372   2.714   7.802   2.375  0.2817  0.2133 -0.7819
   81MOL    H1311373   2.567   7.620   2.611  0.2132  0.2721  0.2905
   81MOL    H1411374   2.401   7.620   2.612  0.6265 -1.1190 -2.2310
   81MOL    H1511375   2.421   7.845   2.464 -0.2382 -0.7343  2.2155
   81MOL    C1611376   2.388   7.662   2.361 -0.0249 -0.7451 -0.2272
   81MOL    C1711377   2.453   7.627   2.225 -1.0606 -0.6487  0.2276
   81MOL    C1811378   2.570   7.536   2.228  0.6278  0.2059  0.5046
   81MOL    N1911379   2.662   7.466   2.238  0.0828 -0.4585 -0.0442
   81MOL    H2011380   2.362   7.569   2.410  0.9709  0.2112  2.1793
   81MOL    H2111381   2.299   7.718   2.334 -0.1531 -1.2823 -0.9374
   81MOL    H2211382   2.493   7.724   2.194  0.8658 -0.7693  2.2107
   81MOL    C2311383   2.357   7.567   2.119 -0.4645 -0.0516  0.5227
   81MOL    C2411384   2.258   7.676   2.059  0.3592 -0.0121  0.0416
   81MOL    C2511385   2.328   7.777   1.981 -0.5402  0.2175  0.5794
   81MOL    N2611386   2.382   7.857   1.922  0.5275 -0.6192  0.6867
   81MOL    H2711387   2.411   7.522   2.035 -0.9324 -0.5776  0.5039
   81MOL    H2811388   2.298   7.487   2.164 -0.3434 -0.7939 -0.6120
   81MOL    H2911389   2.211   7.740   2.134 -1.8844  0.9115 -2.1093
   81MOL    C3011390   2.155   7.602   1.966  0.2287  0.0509 -0.2520
   81MOL    C3111391   2.060   7.518   2.043 -0.2483 -0.1691  0.3071
   81MOL    C3211392   2.035   7.553   2.186  0.4973  0.3114  0.2301
   81MOL    N3311393   2.025   7.591   2.292  0.0475  0.5186  0.4294
   81MOL    H3411394   2.104   7.684   1.914 -0.1056  1.1900  1.8381
   81MOL    H3511395   2.215   7.537   1.902  3.4439  2.2526  0.4201
   81MOL    H3611396   2.108   7.422   2.063  1.3696  0.8234  1.2157
   81MOL    C3711397   1.925   7.496   1.964  0.1659  0.5089 -0.4223
   81MOL    C3811398   1.824   7.405   2.031 -0.1258 -0.2592  0.2462
   81MOL    C3911399   1.688   7.444   1.993 -0.7886  0.6988 -0.8836
   81MOL    N4011400   1.582   7.477   1.964  0.2242  0.0245  0.1937
   81MOL    H4111401   1.871   7.590   1.970 -0.3315  0.1908  0.1276
   81MOL    H4211402   1.940   7.476   1.857 -2.5722  2.5417 -1.2452
   81MOL    H4311403   1.815   7.436   2.136  0.2980  0.7844 -0.0212
   81MOL    C4411404   1.841   7.259   2.024  0.2735  0.5306 -0.2151
   81MOL    C4511405   1.789   7.175   1.900 -0.5420 -0.0365 -0.4109
   81MOL    C4611406   1.880   7.205   1.787 -0.1099 -0.1291 -0.5726
   81MOL    N4711407   1.945   7.235   1.695 -0.2084 -0.6046  0.9551
   81MOL    H4811408   1.945   7.236   2.046  0.2171 -0.3904 -0.8830
   81MOL    H4911409   1.792   7.209   2.108  1.0019 -0.6848 -0.5042
   81MOL    H5011410   1.691   7.213   1.872 -0.3311  0.4798 -0.4680
   81MOL    C5111411   1.763   7.030   1.941 -0.1126  0.1315  0.0058
   81MOL    C5211412   1.702   6.934   1.831 -0.4926 -0.0293 -0.4197
   81MOL    C5311413   1.571   6.989   1.784 -0.2432  0.1337 -0.0607
   81MOL    N5411414   1.467   7.027   1.746 -0.1638 -0.2266 -0.3714
   81MOL    H5511415   1.863   6.997   1.968 -0.1294 -1.6819 -2.0144
   81MOL    H5611416   1.696   7.029   2.027 -0.1157  1.0539  0.0267
   81MOL    H5711417   1.665   6.849   1.888  1.1977  0.0515  0.8163
   81MOL    C5811418   1.797   6.900   1.713 -0.1573 -0.5632 -0.0669
   81MOL    C5911419   1.758   6.781   1.622 -1.3708  0.5567 -0.3620
   81MOL    C6011420   1.650   6.801   1.530 -0.2892  0.0227  0.3690
   81MOL    N6111421   1.555   6.805   1.463  0.0348  0.5166 -0.0956
   81MOL    H6211422   1.815   6.991   1.656  1.0534 -0.8253 -0.1156
   81MOL    H6311423   1.882   6.863   1.770 -1.2944 -1.9900  0.7395
   81MOL    H6411424   1.737   6.702   1.694  2.5005 -0.9991 -0.7932
   81MOL    C6511425   1.884   6.723   1.550 -0.5796 -0.0487  0.0039
   81MOL    C6611426   1.856   6.594   1.469 -0.8129  0.0397  0.2046
   81MOL    C6711427   1.970   6.548   1.392  0.4409 -0.3854  0.4555
   81MOL    N6811428   2.061   6.515   1.334 -0.5709 -0.6241 -0.0860
   81MOL    H6911429   1.919   6.797   1.478  0.8459  0.3304  1.0627
   81MOL    H7011430   1.970   6.709   1.616  0.0424 -1.3246 -1.0393
   81MOL    H7111431   1.787   6.625   1.390  0.0625  0.6215 -0.3322
   81MOL    C7211432   1.792   6.475   1.546  0.1277 -0.8853 -0.3442
   81MOL    C7311433   1.673   6.409   1.476 -0.1965  0.0829  0.9057
   81MOL    C7411434   1.728   6.338   1.354  0.0547 -0.4881 -0.7833
   81MOL    N7511435   1.770   6.293   1.256  0.0021 -0.1695 -0.6343
   81MOL    H7611436   1.866   6.403   1.581  1.0607  1.6054  3.1093
   81MOL    H7711437   1.758   6.512   1.643  0.6185 -3.3157  0.8022
   81MOL    H7811438   1.608   6.495   1.463 -1.3012 -0.6237  1.7504
   81MOL    C7911439   1.588   6.316   1.566  0.3925 -0.9875  0.3337
   81MOL    C8011440   1.452   6.273   1.504 -0.6676  0.4886  0.8056
   81MOL    C8111441   1.483   6.195   1.378 -0.5663 -0.1088 -0.0573
   81MOL    N8211442   1.502   6.134   1.281 -0.0894  0.2168  0.0078
   81MOL    H8311443   1.653   6.228   1.569 -0.7824 -1.8592  1.0950
   81MOL    H8411444   1.566   6.348   1.668 -2.9232 -0.5160 -0.4683
   81MOL    H8511445   1.394   6.361   1.478 -1.0832 -0.0865 -0.2576
   81MOL    C8611446   1.357   6.198   1.596 -0.7470 -0.0473 -0.1603
   81MOL    C8711447   1.253   6.111   1.520  0.3579 -0.0750 -0.4921
   81MOL    C8811448   1.188   6.024   1.622 -0.1768 -0.3034 -0.1051
   81MOL    N8911449   1.136   5.954   1.701 -0.3836  0.0684  0.4239
   81MOL    H9011450   1.407   6.135   1.669  1.4450 -1.3137 -2.6475
   81MOL    H9111451   1.305   6.280   1.646 -1.1612  0.0445 -0.7281
   81MOL    H9211452   1.308   6.031   1.470  0.8116  0.7230 -1.2769
   81MOL    C9311453   1.153   6.189   1.431 -0.0109  0.3857  0.0062
   81MOL    C9411454   1.071   6.103   1.333 -0.5930  0.0110  0.3668
   81MOL    C9511455   0.964   6.184   1.270  0.0670 -0.3539 -0.2090
   81MOL    N9611456   0.888   6.260   1.219  0.3810 -0.4417 -0.9537
   81MOL    H9711457   1.087   6.249   1.494  0.8315  1.9419 -0.5754
   81MOL    H9811458   1.216   6.258   1.376 -2.1274  0.7366 -2.0388
   81MOL    H9911459   1.016   6.028   1.390 -0.6672  1.0572  1.7194
   81MOL   C10011460   1.159   6.033   1.227 -0.4883 -0.8633  0.1953
   81MOL   C10111461   1.092   5.910   1.178  0.2445 -0.0061 -0.7690
   81MOL   C10211462   0.981   5.944   1.085 -0.2944  0.0913  0.6381
   81MOL   N10311463   0.895   5.976   1.017 -0.4382  0.0179  0.0258
   81MOL   H10411464   1.168   6.104   1.145 -0.2626 -2.3962 -1.1446
   81MOL   H10511465   1.261   6.002   1.250 -0.7810 -2.4131 -0.5228
   81MOL   H10611466   1.037   5.867   1.262 -0.8308 -2.8033 -2.8232
   81MOL   C10711467   1.177   5.794   1.116 -0.0221 -0.8413 -0.1423
   81MOL   C10811468   1.291   5.728   1.197 -0.0078  0.6714  1.0495
   81MOL   C10911469   1.228   5.672   1.319 -0.9444  0.5272 -0.4675
   81MOL   N11011470   1.182   5.630   1.411 -0.1873  0.1979  0.4186
   81MOL   H11111471   1.118   5.708   1.083  0.6931 -1.3682 -0.0760
   81MOL   H11211472   1.232   5.837   1.032 -0.1746 -1.3961 -0.5310
   81MOL   H11311473   1.368   5.797   1.232  0.8470 -0.5891  1.7250
   81MOL   C11411474   1.353   5.619   1.114  0.0145  0.6562 -0.1302
   81MOL   C11511475   1.425   5.659   0.987  0.7648 -0.0811  0.4371
   81MOL   C11611476   1.553   5.717   1.019 -0.2639  0.2585  0.3344
   81MOL   N11711477   1.655   5.759   1.049  0.6013 -0.0171  0.5655
   81MOL   H11811478   1.430   5.574   1.176 -1.0354 -0.3457  0.4679
   81MOL   H11911479   1.280   5.539   1.108  1.7229 -0.8807 -0.6336
   81MOL   H12011480   1.375   5.736   0.928  0.1088  2.0170  3.6486
   81MOL   C12111481   1.435   5.529   0.893  0.2354  0.9463 -0.1688
   81MOL   C12211482   1.293   5.475   0.854  0.3409  0.2884 -0.1224
   81MOL   C12311483   1.197   5.575   0.816  0.3791  0.4297  1.3524
   81MOL   N12411484   1.116   5.654   0.789 -0.6641  0.6082  0.4858
   81MOL   H12511485   1.497   5.544   0.805  0.0962  3.1596  0.0877
   81MOL   H12611486   1.476   5.453   0.960 -0.3827  0.8706  0.1360
   81MOL   H12711487   1.244   5.436   0.943 -1.0593 -0.0001 -0.9919
   81MOL   C12811488   1.304   5.374   0.737 -0.4171  0.0197 -0.0258
   81MOL   C12911489   1.366   5.239   0.781  0.5392  1.0334 -0.3105
   81MOL   C13011490   1.298   5.184   0.897  0.8535  0.2527 -0.9329
   81MOL   N13111491   1.235   5.144   0.986 -0.2134 -0.1508  0.0931
   81MOL   H13211492   1.204   5.342   0.707 -0.2009  0.1426 -0.8836
   81MOL   H13311493   1.343   5.421   0.647  0.8916 -1.7365 -0.4071
   81MOL   H13411494   1.461   5.272   0.822 -0.0325  1.4241  0.7163
   81MOL   C13511495   1.390   5.139   0.669  0.1082 -0.2759  0.1870
   81MOL   C13611496   1.428   4.993   0.723  0.3040  0.1712 -0.0076
   81MOL   C13711497   1.521   4.993   0.829  0.6708 -0.3388 -0.4902
   81MOL   N13811498   1.595   4.992   0.919 -0.2784 -0.8805 -0.0978
   81MOL   H13911499   1.298   5.114   0.617  1.1655 -2.6946 -0.6172
   81MOL   H14011500   1.461   5.172   0.593  0.2696  2.1013  1.3186
   81MOL   H14111501   1.478   4.943   0.641  1.1590 -0.0983  0.6780
   81MOL   H14211502   1.345   4.928   0.754 -0.1161  0.4353 -0.5560
   82MOL     C111503   5.495   4.659   5.760 -0.0460 -0.1465 -0.4434
   82MOL     C211504   5.571   4.725   5.649 -0.3076 -0.4679 -0.3541
   82MOL     C311505   5.500   4.743   5.520  0.1240  0.6006  0.0630
   82MOL     N411506   5.439   4.764   5.424 -0.5054 -0.3808 -0.1344
   82MOL     H511507   5.488   4.550   5.754  0.8411 -0.1673 -1.1985
   82MOL     H611508   5.402   4.715   5.765  0.9603  1.5170 -0.1092
   82MOL     H711509   5.653   4.659   5.619  1.0759 -0.8099  3.7591
   82MOL     H811510   5.545   4.673   5.856 -3.1858  1.5948  1.0212
   82MOL     C911511   5.625   4.856   5.712 -0.3044 -0.2852  0.0855
   82MOL    C1011512   5.721   4.936   5.621  0.4326  1.0838 -0.0024
   82MOL    C1111513   5.737   5.077   5.669  0.4104 -0.5170 -0.2117
   82MOL    N1211514   5.750   5.185   5.705  0.1036  0.5991  0.4865
   82MOL    H1311515   5.544   4.923   5.739 -1.9848 -2.0168 -0.4906
   82MOL    H1411516   5.676   4.835   5.806  0.1481 -1.6026 -0.4452
   82MOL    H1511517   5.683   4.940   5.518 -2.5812  1.4849  1.0650
   82MOL    C1611518   5.865   4.880   5.602  0.1759 -0.0797 -0.4047
   82MOL    C1711519   5.939   4.929   5.478  0.0022 -0.2576  0.8743
   82MOL    C1811520   5.988   5.063   5.486  0.2212  0.5954  0.6679
   82MOL    N1911521   6.025   5.170   5.497  0.7929 -0.4745  0.0327
   82MOL    H2011522   5.927   4.902   5.689 -0.5760 -1.8479  0.6057
   82MOL    H2111523   5.856   4.772   5.605  0.1797 -0.0515  0.8596
   82MOL    H2211524   5.869   4.934   5.395  0.1618 -1.3171  0.6614
   82MOL    C2311525   6.052   4.832   5.452  0.0600 -0.5314  0.5807
   82MOL    C2411526   6.013   4.702   5.375 -0.7123 -0.5333 -0.0821
   82MOL    C2511527   5.930   4.721   5.254  0.5146 -1.4521  0.1249
   82MOL    N2611528   5.870   4.732   5.161  0.4311  0.2341 -0.2865
   82MOL    H2711529   6.133   4.874   5.393 -1.3642 -2.3724 -2.8081
   82MOL    H2811530   6.105   4.811   5.545 -1.3666  0.3323  1.6117
   82MOL    H2911531   5.954   4.645   5.447  2.3031 -0.8117  2.2558
   82MOL    C3011532   6.131   4.620   5.340 -0.3683  0.2822 -0.6555
   82MOL    C3111533   6.170   4.517   5.453  0.2821  0.4016  0.6455
   82MOL    C3211534   6.099   4.389   5.434  0.1238 -0.2243  0.1548
   82MOL    N3311535   6.045   4.287   5.426  0.3965 -0.2906  0.2897
   82MOL    H3411536   6.113   4.560   5.250 -1.1792 -0.7237  0.1646
   82MOL    H3511537   6.219   4.681   5.318 -0.9239  1.2728 -0.1108
   82MOL    H3611538   6.122   4.552   5.544  1.3502 -0.5842  1.5954
   82MOL    C3711539   6.323   4.497   5.479  0.0972 -0.0543 -0.4022
   82MOL    C3811540   6.399   4.619   5.538  0.0759 -0.4799 -1.1001
   82MOL    C3911541   6.327   4.676   5.651 -1.1733  0.0876  0.2548
   82MOL    N4011542   6.271   4.723   5.737  0.4319  0.1806 -0.0300
   82MOL    H4111543   6.338   4.410   5.542 -4.7985  0.9329  2.3675
   82MOL    H4211544   6.369   4.471   5.384  2.3414  0.2489  0.5810
   82MOL    H4311545   6.390   4.703   5.469  1.0014  2.9296  2.7317
   82MOL    C4411546   6.549   4.594   5.569 -0.2026  0.6886  0.0572
   82MOL    C4511547   6.641   4.720   5.583 -0.4328 -0.4211 -0.2947
   82MOL    C4611548   6.611   4.808   5.698  0.2668 -0.0001 -0.0291
   82MOL    N4711549   6.587   4.879   5.786 -0.5550  0.5176  0.5362
   82MOL    H4811550   6.539   4.539   5.662 -2.0593  0.1260 -0.4591
   82MOL    H4911551   6.598   4.518   5.508  0.0478  1.0877 -0.2478
   82MOL    H5011552   6.620   4.779   5.494 -1.6931 -0.4104 -0.0051
   82MOL    C5111553   6.789   4.697   5.567  0.0447  0.7919  0.6752
   82MOL    C5211554   6.868   4.644   5.692 -0.5471  0.1706 -0.4041
   82MOL    C5311555   6.818   4.512   5.727 -0.3329  0.1981 -0.5008
   82MOL    N5411556   6.777   4.404   5.750 -0.1939 -0.1151 -0.7656
   82MOL    H5511557   6.785   4.619   5.491 -0.1038  1.0246  0.4420
   82MOL    H5611558   6.833   4.790   5.533 -1.5165  1.6265  0.9006
   82MOL    H5711559   6.854   4.718   5.771  1.9650  0.3941 -0.1177
   82MOL    C5811560   7.018   4.643   5.668 -0.0415 -0.3007 -0.5452
   82MOL    C5911561   7.076   4.505   5.639 -0.0055  0.3725 -0.5812
   82MOL    C6011562   7.010   4.444   5.520  0.1478 -0.3256  0.5763
   82MOL    N6111563   6.959   4.396   5.430 -0.3921  0.0021  0.1831
   82MOL    H6211564   7.047   4.697   5.577  1.7807 -1.0685 -0.4469
   82MOL    H6311565   7.066   4.680   5.758 -2.4388  0.4939  0.4269
   82MOL    H6411566   7.058   4.434   5.720 -0.2227  1.1641  0.0727
   82MOL    C6511567   7.225   4.516   5.611  0.4554 -0.0928 -0.3343
   82MOL    C6611568   7.315   4.392   5.632 -0.1559  0.5076 -0.1804
   82MOL    C6711569   7.294   4.270   5.552 -0.3872  0.7800 -0.5807
   82MOL    N6811570   7.282   4.169   5.497  0.5387  0.1352 -0.2247
   82MOL    H6911571   7.248   4.559   5.513  0.5374 -3.5847 -1.9292
   82MOL    H7011572   7.264   4.591   5.679 -1.5542  0.4293  0.2609
   82MOL    H7111573   7.291   4.368   5.735 -0.4708  2.4079  0.2144
   82MOL    C7211574   7.468   4.417   5.639 -0.3137 -0.1854 -0.0720
   82MOL    C7311575   7.542   4.402   5.505 -0.5382 -0.3250  0.1683
   82MOL    C7411576   7.505   4.515   5.420 -0.7258  0.1284  0.4275
   82MOL    N7511577   7.474   4.608   5.357  0.9529 -0.3065 -0.3109
   82MOL    H7611578   7.484   4.520   5.669 -1.3015 -0.0801  0.1086
   82MOL    H7711579   7.522   4.360   5.715 -1.0365 -1.5321 -0.5557
   82MOL    H7811580   7.506   4.326   5.435 -1.4879  0.7131 -0.4958
   82MOL    C7911581   7.693   4.411   5.515  0.2623  0.4032  0.0999
   82MOL    C8011582   7.770   4.293   5.582 -0.0139 -0.3149  0.4050
   82MOL    C8111583   7.715   4.169   5.529 -1.3819  0.2979  0.0429
   82MOL    N8211584   7.676   4.072   5.476 -0.8010 -0.0631 -0.2383
   82MOL    H8311585   7.738   4.421   5.417 -0.9567  0.4864 -0.4591
   82MOL    H8411586   7.725   4.506   5.559 -0.4331  0.2603  0.9260
   82MOL    H8511587   7.746   4.290   5.688 -0.1243  0.3919  0.4011
   82MOL    C8611588   7.922   4.310   5.561 -0.1505  0.4311  0.2865
   82MOL    C8711589   8.021   4.207   5.619  0.9375  0.5350  0.5645
   82MOL    C8811590   7.981   4.163   5.750  0.1588  0.0719 -0.7621
   82MOL    N8911591   7.952   4.127   5.857 -0.4117 -0.0090 -1.0868
   82MOL    H9011592   7.955   4.310   5.457 -0.3029  0.1446  0.2362
   82MOL    H9111593   7.940   4.414   5.589 -0.2691  0.6350 -0.3689
   82MOL    H9211594   8.122   4.247   5.615  1.1416 -0.1069 -0.9245
   82MOL    C9311595   8.030   4.082   5.529  0.8279 -0.5027 -0.3704
   82MOL    C9411596   8.145   3.987   5.547 -0.3336 -0.1005 -0.3614
   82MOL    C9511597   8.170   3.914   5.419  0.1669  0.2267  0.4171
   82MOL    N9611598   8.189   3.859   5.324  0.0401 -0.2558 -1.0245
   82MOL    H9711599   7.944   4.016   5.536  0.9544 -0.7858 -1.3251
   82MOL    H9811600   8.026   4.107   5.423 -3.4777 -0.8618 -0.3528
   82MOL    H9911601   8.124   3.906   5.616  0.9113  0.9645  1.3266
   82MOL   C10011602   8.281   4.047   5.594  0.0438  0.1523  0.1766
   82MOL   C10111603   0.096   3.950   5.591 -0.5593 -0.1032  0.6230
   82MOL   C10211604   0.215   4.019   5.641  0.2626  0.1208 -0.6097
   82MOL   N10311605   0.309   4.070   5.685  0.6241  0.2484 -0.4049
   82MOL   H10411606   8.311   4.131   5.531  1.1879 -0.5163 -0.1771
   82MOL   H10511607   8.271   4.079   5.698  1.0396  2.0652 -0.2877
   82MOL   H10611608   0.110   3.914   5.489  2.6129 -1.2002  1.3738
   82MOL   C10711609   0.081   3.811   5.650  0.4022  0.4465  0.4870
   82MOL   C10811610   0.186   3.687   5.635  0.5909 -0.4080  0.2703
   82MOL   C10911611   0.145   3.579   5.722  0.2841 -0.4099 -0.3655
   82MOL   N11011612   0.114   3.495   5.795 -0.1164 -0.4682  0.0456
   82MOL   H11111613   0.072   3.828   5.758  1.1856  0.7124  0.5083
   82MOL   H11211614   8.297   3.772   5.617 -0.2673  1.6957  0.9406
   82MOL   H11311615   0.292   3.707   5.652  0.2944  2.0096 -0.4650
   82MOL   C11411616   0.175   3.630   5.491 -0.6190 -0.4392  0.0452
   82MOL   C11511617   0.247   3.694   5.373 -0.1707  0.2782  0.0702
   82MOL   C11611618   0.357   3.782   5.417  0.1069  0.4394 -0.2057
   82MOL   N11711619   0.440   3.856   5.452  0.2839 -0.0421  0.4670
   82MOL   H11811620   0.217   3.529   5.497  0.1876 -0.0677  0.6813
   82MOL   H11911621   0.069   3.614   5.476 -0.5346 -2.2832  1.2360
   82MOL   H12011622   0.164   3.749   5.328 -2.4213 -3.8022 -1.0457
   82MOL   C12111623   0.289   3.591   5.269 -0.2308 -0.0629  0.6014
   82MOL   C12211624   0.438   3.600   5.225 -0.0995  0.0574 -0.4719
   82MOL   C12311625   0.491   3.477   5.170 -0.0120  0.7678  0.3573
   82MOL   N12411626   0.528   3.378   5.127  0.6005  0.0698 -0.0955
   82MOL   H12511627   0.274   3.491   5.309 -0.4124  0.2506  1.3067
   82MOL   H12611628   0.228   3.591   5.178  1.1255 -0.5419 -0.3311
   82MOL   H12711629   0.496   3.617   5.315  1.4857  0.0376 -1.4791
   82MOL   C12811630   0.465   3.713   5.123  0.7871  0.4727  0.2156
   82MOL   C12911631   0.607   3.739   5.088 -0.5630 -0.0574 -1.1060
   82MOL   C13011632   0.625   3.833   4.980  0.1416 -0.2707  0.0454
   82MOL   N13111633   0.637   3.908   4.889 -0.4671 -0.2732  0.0978
   82MOL   H13211634   0.416   3.680   5.031  5.2627 -4.3282 -0.7209
   82MOL   H13311635   0.414   3.799   5.165  0.6231 -0.2434  1.5093
   82MOL   H13411636   0.664   3.657   5.045  0.1448 -0.4695  0.5490
   82MOL   C13511637   0.679   3.791   5.217  0.5531  0.3407  0.2107
   82MOL   C13611638   0.758   3.688   5.296  0.7175  0.2572 -0.7317
   82MOL   C13711639   0.846   3.595   5.218 -0.6642 -0.3388  0.9212
   82MOL   N13811640   0.923   3.527   5.156  0.8602 -0.1768  0.0856
   82MOL   H13911641   0.753   3.855   5.168 -0.0613  1.4128  0.6503
   82MOL   H14011642   0.621   3.867   5.269 -0.3061 -0.2414  0.1161
   82MOL   H14111643   0.700   3.624   5.363  0.4568  1.1955 -0.0469
   82MOL   H14211644   0.833   3.740   5.356 -0.5919  2.4318 -0.9455
   83MOL     C111645   3.023   4.367   2.929 -0.6901 -0.1938 -0.4631
   83MOL     C211646   3.171   4.369   2.910  0.1966  1.0593 -0.0425
   83MOL     C311647   3.215   4.504   2.860  0.0688  0.5656  0.7721
   83MOL     N411648   3.255   4.606   2.821 -0.3341 -0.4716 -0.0620
   83MOL     H511649   2.993   4.262   2.942  0.7038 -1.0463 -3.6897
   83MOL     H611650   2.975   4.405   2.839  1.4207  0.0581 -1.4866
   83MOL     H711651   3.203   4.303   2.829  1.0454 -2.3362  2.9163
   83MOL     H811652   2.983   4.430   3.009  0.3064  1.9995 -1.6710
   83MOL     C911653   3.256   4.331   3.033  0.3430 -0.6002  0.7111
   83MOL    C1011654   3.233   4.189   3.078 -0.6110  0.7913 -0.1465
   83MOL    C1111655   3.234   4.097   2.959 -0.3891 -0.4645  0.5357
   83MOL    N1211656   3.230   4.030   2.866  0.8780  0.2053 -0.5955
   83MOL    H1311657   3.360   4.327   3.001  0.4828  0.5505  1.0007
   83MOL    H1411658   3.263   4.404   3.115  5.2821  0.3306 -0.3321
   83MOL    H1511659   3.132   4.186   3.119 -0.0276  0.5275  1.3025
   83MOL    C1611660   3.343   4.147   3.187 -0.0455  0.1602  0.5317
   83MOL    C1711661   3.485   4.155   3.160  0.8025 -0.4088 -0.5500
   83MOL    C1811662   3.527   4.296   3.153 -0.5356  0.0550  0.4192
   83MOL    N1911663   3.567   4.405   3.140  0.1145 -0.1648 -0.7317
   83MOL    H2011664   3.320   4.206   3.276 -0.0743  1.2162 -0.1709
   83MOL    H2111665   3.312   4.045   3.210 -1.3271  0.5645  0.6934
   83MOL    H2211666   3.511   4.114   3.062  1.3446  1.9158 -1.3999
   83MOL    C2311667   3.572   4.065   3.250 -0.4512  0.7231 -0.2693
   83MOL    C2411668   3.567   4.103   3.403 -0.3785 -0.2135  0.3942
   83MOL    C2511669   3.446   4.044   3.471 -0.2313 -0.6243 -0.4270
   83MOL    N2611670   3.357   3.994   3.529 -0.2859 -0.3336 -0.0002
   83MOL    H2711671   3.537   3.962   3.243 -0.5874  0.7475  0.0758
   83MOL    H2811672   3.673   4.067   3.210  0.1614  2.6901  1.2943
   83MOL    H2911673   3.556   4.211   3.415  1.1761 -0.0990  0.8720
   83MOL    C3011674   3.692   4.055   3.478  0.4447  0.7092  0.1632
   83MOL    C3111675   3.738   4.148   3.599 -0.0840 -0.0092  0.1936
   83MOL    C3211676   3.634   4.140   3.708 -0.2867 -0.2165  1.4724
   83MOL    N3311677   3.547   4.133   3.788 -0.6706  0.7173 -0.0936
   83MOL    H3411678   3.684   3.950   3.505 -0.3393  0.3111 -1.5015
   83MOL    H3511679   3.766   4.061   3.398  2.0603 -0.3551  1.5458
   83MOL    H3611680   3.744   4.248   3.558 -1.0694  0.0801  0.2452
   83MOL    C3711681   3.873   4.114   3.659 -0.2953  0.1096  0.3591
   83MOL    C3811682   3.991   4.111   3.553 -0.0596 -0.3789  0.2945
   83MOL    C3911683   4.112   4.189   3.599 -0.6726 -0.3250  0.0488
   83MOL    N4011684   4.206   4.247   3.640 -0.5536 -0.0436  0.3024
   83MOL    H4111685   3.889   4.204   3.720  0.3191  0.6225 -0.5411
   83MOL    H4211686   3.882   4.031   3.729  1.5549 -0.5581 -0.6419
   83MOL    H4311687   3.959   4.176   3.471  3.1806  0.2811 -0.5246
   83MOL    C4411688   4.026   3.967   3.501 -0.2607 -0.2628 -0.6080
   83MOL    C4511689   4.139   3.951   3.401 -0.3679 -0.1582 -0.4027
   83MOL    C4611690   4.178   3.810   3.392 -0.2419  0.6196  0.0922
   83MOL    N4711691   4.205   3.695   3.384  0.6030  0.4274  0.0287
   83MOL    H4811692   4.066   3.907   3.583  1.0484  0.0775 -0.9867
   83MOL    H4911693   3.938   3.917   3.463 -0.7671  0.0025  0.2162
   83MOL    H5011694   4.231   4.000   3.434  1.0885 -2.5534 -0.8077
   83MOL    C5111695   4.113   4.005   3.259  0.0303 -0.0767 -0.1028
   83MOL    C5211696   4.041   3.908   3.158  0.5605 -0.5086 -0.2202
   83MOL    C5311697   3.911   3.859   3.212  0.1364 -0.1193  0.7229
   83MOL    N5411698   3.816   3.810   3.253  0.7576  0.1796  0.3113
   83MOL    H5511699   4.050   4.094   3.258  3.0162  2.0976 -2.0050
   83MOL    H5611700   4.200   4.046   3.207 -1.1679 -0.3980 -2.4281
   83MOL    H5711701   4.093   3.815   3.138  1.9407  0.3243 -0.5505
   83MOL    C5811702   4.014   3.977   3.024 -0.6765  0.7231  0.2242
   83MOL    C5911703   3.960   3.887   2.909 -0.0969 -0.1044  0.5240
   83MOL    C6011704   3.889   3.969   2.813 -0.4052  0.0596  0.1870
   83MOL    N6111705   3.832   4.038   2.739  0.2280 -0.9948  0.2581
   83MOL    H6211706   3.958   4.070   3.030 -0.8148  0.8592 -2.5404
   83MOL    H6311707   4.098   4.037   2.989 -1.9732  2.5038  0.0962
   83MOL    H6411708   3.883   3.821   2.950  0.2750  0.9472  3.0378
   83MOL    C6511709   4.068   3.802   2.844 -0.0932  0.1163  0.6667
   83MOL    C6611710   4.027   3.685   2.754 -0.5141  0.0884  0.3001
   83MOL    C6711711   3.926   3.722   2.654 -0.9792  0.6411  0.1315
   83MOL    N6811712   3.845   3.750   2.574 -0.4468 -0.2706 -0.0993
   83MOL    H6911713   4.117   3.877   2.782  0.5624 -1.2183 -0.4638
   83MOL    H7011714   4.138   3.763   2.918  1.9451 -0.4789 -1.4888
   83MOL    H7111715   3.978   3.608   2.813 -0.7640  0.5967  0.7552
   83MOL    C7211716   4.148   3.613   2.694 -0.0922  0.1915 -0.8802
   83MOL    C7311717   4.203   3.497   2.780 -0.0126  0.2715  0.7053
   83MOL    C7411718   4.142   3.368   2.760  0.1537 -0.3094  0.0595
   83MOL    N7511719   4.092   3.265   2.740  0.4321 -0.3403 -0.3736
   83MOL    H7611720   4.102   3.570   2.606 -0.2982  1.7648 -1.5677
   83MOL    H7711721   4.232   3.674   2.658 -0.1958  1.6339  1.2372
   83MOL    H7811722   4.179   3.528   2.881 -0.8877  1.3078  0.1895
   83MOL    C7911723   4.357   3.487   2.781 -0.0698 -0.4868  0.4190
   83MOL    C8011724   4.415   3.406   2.663  0.5033  0.7765  0.1332
   83MOL    C8111725   4.354   3.447   2.533  0.4623  0.6316 -0.1454
   83MOL    N8211726   4.308   3.486   2.432  0.2550  0.5720 -0.3947
   83MOL    H8311727   4.416   3.578   2.792  0.8011 -0.9683 -0.1916
   83MOL    H8411728   4.390   3.423   2.863  0.8449 -0.1987  0.2797
   83MOL    H8511729   4.384   3.302   2.669  1.2690  0.5672  0.5918
   83MOL    C8611730   4.568   3.402   2.674 -0.6606  0.0126 -0.0041
   83MOL    C8711731   4.647   3.431   2.534  0.0793  0.0752  0.4014
   83MOL    C8811732   4.791   3.469   2.564 -0.4138  0.3759  0.4924
   83MOL    N8911733   4.899   3.496   2.586 -0.1459  0.0947 -0.1974
   83MOL    H9011734   4.602   3.478   2.745  1.2915 -1.0317  0.2240
   83MOL    H9111735   4.610   3.311   2.718 -0.0231  1.7772  3.2579
   83MOL    H9211736   4.614   3.527   2.494  0.0325 -0.8251 -1.8187
   83MOL    C9311737   4.631   3.313   2.431 -0.1519 -0.4064  0.2652
   83MOL    C9411738   4.661   3.345   2.282  0.5999 -1.0161 -0.2136
   83MOL    C9511739   4.686   3.224   2.205 -0.5979 -0.2342 -0.0797
   83MOL    N9611740   4.704   3.126   2.148 -0.1984 -0.0153  0.6883
   83MOL    H9711741   4.697   3.235   2.469 -0.9725 -0.1411  2.2696
   83MOL    H9811742   4.537   3.259   2.434 -0.9767  0.8199 -2.3685
   83MOL    H9911743   4.759   3.392   2.275  0.1670  0.3658  2.3003
   83MOL   C10011744   4.551   3.439   2.215  0.1266 -0.6158  0.2715
   83MOL   C10111745   4.555   3.463   2.061  0.4479  0.4610  0.1865
   83MOL   C10211746   4.487   3.355   1.990  0.3997 -0.3723 -0.6707
   83MOL   N10311747   4.424   3.273   1.937 -0.4022  0.7228  0.4432
   83MOL   H10411748   4.456   3.391   2.237 -1.3917  1.6305 -1.2229
   83MOL   H10511749   4.553   3.534   2.268  2.6564 -1.3832  1.6808
   83MOL   H10611750   4.656   3.448   2.023 -1.1186 -3.2376 -2.8230
   83MOL   C10711751   4.494   3.598   2.024  0.5682  0.0723 -0.0562
   83MOL   C10811752   4.515   3.679   1.895 -0.1189  0.2504  1.7086
   83MOL   C10911753   4.461   3.620   1.774 -0.7394 -0.2784  0.8087
   83MOL   N11011754   4.424   3.571   1.676  0.0651 -0.3576  0.3814
   83MOL   H11111755   4.386   3.580   2.028  0.4636  0.1070 -1.9646
   83MOL   H11211756   4.529   3.670   2.098 -0.0983  0.6577 -0.3053
   83MOL   H11311757   4.622   3.669   1.880 -0.4406  0.6537 -1.3242
   83MOL   C11411758   4.487   3.833   1.904  0.8012 -0.1053 -0.3833
   83MOL   C11511759   4.355   3.878   1.843  0.0183 -0.0628  0.3975
   83MOL   C11611760   4.285   3.983   1.916 -0.4335  0.3620 -0.1461
   83MOL   N11711761   4.235   4.073   1.974 -0.2548  0.0314 -0.4568
   83MOL   H11811762   4.487   3.860   2.010  0.2739 -0.5236 -0.2745
   83MOL   H11911763   4.569   3.887   1.857  0.7317 -0.0208 -0.4062
   83MOL   H12011764   4.281   3.798   1.848 -1.1552  0.9663 -0.2066
   83MOL   C12111765   4.371   3.915   1.696  0.5015 -0.6588  0.1694
   83MOL   C12211766   4.420   4.061   1.671 -0.3284 -0.0527  0.0847
   83MOL   C12311767   4.525   4.109   1.767 -0.1302 -0.1423 -0.2769
   83MOL   N12411768   4.606   4.149   1.845  0.3116  0.1749  0.3061
   83MOL   H12511769   4.443   3.851   1.643  1.0149  1.4954 -1.8214
   83MOL   H12611770   4.276   3.906   1.644  1.9069 -1.2258 -2.4232
   83MOL   H12711771   4.327   4.110   1.697 -1.8264 -2.0932 -1.2736
   83MOL   C12811772   4.452   4.089   1.520  0.1278  0.2270 -0.1735
   83MOL   C12911773   4.522   4.220   1.475  0.0387  0.1023  0.7821
   83MOL   C13011774   4.481   4.341   1.552  0.4967 -0.7503 -0.3944
   83MOL   N13111775   4.445   4.434   1.622 -0.6081  0.2315  0.1103
   83MOL   H13211776   4.515   4.008   1.482 -1.9972 -1.4729 -0.1888
   83MOL   H13311777   4.363   4.083   1.458  0.4280  2.2606 -0.8236
   83MOL   H13411778   4.481   4.254   1.380  0.5105 -0.7776  0.2555
   83MOL   C13511779   4.680   4.214   1.468  0.0862  0.1621  0.6576
   83MOL   C13611780   4.730   4.358   1.426  0.0261  0.0501  0.5653
   83MOL   C13711781   4.676   4.407   1.294 -0.0469  0.1070 -0.1592
   83MOL   N13811782   4.639   4.444   1.192  0.1529  0.9524  0.0913
   83MOL   H13911783   4.721   4.196   1.567 -2.8736  0.6471  2.0480
   83MOL   H14011784   4.714   4.128   1.411 -0.2346  1.4218 -1.4699
   83MOL   H14111785   4.839   4.358   1.419  0.0001  1.4777 -0.0051
   83MOL   H14211786   4.696   4.419   1.510 -2.1728 -0.5080  0.1141
   84MOL     C111787   2.014   7.464   6.853 -0.8741 -0.4605  0.4349
   84MOL     C211788   1.958   7.382   6.737  0.1681  0.2052 -0.2603
   84MOL     C311789   1.990   7.237   6.765  0.3621 -0.0182 -0.3604
   84MOL     N411790   2.010   7.126   6.788 -0.8927  0.0116 -0.1850
   84MOL     H511791   2.026   7.564   6.812  0.7076 -0.7706  0.1196
   84MOL     H611792   2.113   7.430   6.883  0.6456  1.5708 -2.0479
   84MOL     H711793   2.020   7.406   6.651  0.8769 -0.3651  0.0869
   84MOL     H811794   1.940   7.473   6.933 -1.7559 -1.4072 -0.2626
   84MOL     C911795   1.817   7.420   6.702 -0.5915  0.0462  0.2459
   84MOL    C1011796   1.792   7.573   6.676 -0.4428 -0.0426  0.4064
   84MOL    C1111797   1.879   7.641   6.572  0.3646  0.3489  0.4426
   84MOL    N1211798   1.948   7.691   6.493 -0.2555  0.5818  0.3769
   84MOL    H1311799   1.799   7.364   6.610 -1.4029 -0.6411  0.8115
   84MOL    H1411800   1.749   7.391   6.782 -3.8049 -1.6619 -2.9428
   84MOL    H1511801   1.825   7.611   6.772  1.2076 -0.6064  0.0674
   84MOL    C1611802   1.642   7.608   6.658 -0.0253 -0.3173 -0.4422
   84MOL    C1711803   1.599   7.752   6.636 -0.5536 -0.3308 -0.6505
   84MOL    C1811804   1.474   7.761   6.562  0.0896  0.3332 -0.2229
   84MOL    N1911805   1.375   7.760   6.505 -0.5701  0.9296  0.2404
   84MOL    H2011806   1.611   7.547   6.574 -0.2510 -2.1368  0.9216
   84MOL    H2111807   1.585   7.572   6.744 -0.9014 -1.2847 -1.4107
   84MOL    H2211808   1.671   7.802   6.571  1.3341  1.3095  2.5735
   84MOL    C2311809   1.604   7.838   6.763  0.1584  0.0556  0.6913
   84MOL    C2411810   1.472   7.848   6.849 -0.4573  0.0913  0.0494
   84MOL    C2511811   1.453   7.722   6.924  0.3795  0.2905 -0.1895
   84MOL    N2611812   1.439   7.619   6.974 -0.3563  0.2052  0.1319
   84MOL    H2711813   1.668   7.799   6.843 -0.3414 -1.0820  0.5341
   84MOL    H2811814   1.642   7.936   6.735  2.7599 -1.0641  0.1634
   84MOL    H2911815   1.380   7.856   6.791 -0.0582 -0.3696 -0.6628
   84MOL    C3011816   1.472   7.973   6.951 -0.7240  0.2450  0.7822
   84MOL    C3111817   1.444   8.115   6.893  0.2035 -0.3998  0.4921
   84MOL    C3211818   1.314   8.122   6.817  0.0950  0.3939 -0.4582
   84MOL    N3311819   1.209   8.116   6.759 -0.0467  0.1292 -0.2097
   84MOL    H3411820   1.390   7.958   7.021 -2.1305  1.5021 -0.5530
   84MOL    H3511821   1.567   7.965   7.005 -1.0218  2.0735  1.5941
   84MOL    H3611822   1.528   8.137   6.827 -0.2390 -0.4859 -0.0988
   84MOL    C3711823   1.439   8.226   6.993 -0.0736 -0.0647  0.0343
   84MOL    C3811824   1.567   8.241   7.084 -0.0426  1.1076  0.0033
   84MOL    C3911825   1.687   8.214   7.002  0.1151  0.5778 -0.0258
   84MOL    N4011826   1.781   8.190   6.935 -0.1203  0.3487 -0.6231
   84MOL    H4111827   1.433   0.012   6.946  0.7638 -0.4082 -0.8015
   84MOL    H4211828   1.347   8.221   7.052 -0.2735 -1.8584 -0.4212
   84MOL    H4311829   1.551   8.153   7.147  1.5380 -0.4490 -1.6993
   84MOL    C4411830   1.594   0.052   7.169 -0.2528  0.1230 -0.6720
   84MOL    C4511831   1.479   0.090   7.262 -0.6126 -0.2332  0.1372
   84MOL    C4611832   1.413   8.283   7.322  0.3745 -0.1336 -0.1365
   84MOL    N4711833   1.365   8.191   7.371  0.2694 -0.1925  0.1620
   84MOL    H4811834   1.685   0.037   7.227  0.5032  1.3310 -1.5162
   84MOL    H4911835   1.613   0.127   7.092 -0.7256  0.9454 -0.0025
   84MOL    H5011836   1.399   0.118   7.192 -0.2045  1.3286  0.2784
   84MOL    C5111837   1.510   0.216   7.346  0.6636 -0.6918 -0.5084
   84MOL    C5211838   1.400   0.260   7.438 -0.1911  0.2970 -0.1354
   84MOL    C5311839   1.266   0.283   7.374 -0.4283  0.2970  0.5145
   84MOL    N5411840   1.162   0.311   7.324  0.5612 -0.4148  0.1918
   84MOL    H5511841   1.602   0.195   7.402  0.3098 -2.2463 -0.4910
   84MOL    H5611842   1.530   0.307   7.290  4.0850 -0.7983  0.3812
   84MOL    H5711843   1.428   0.360   7.469  1.8892 -1.0497  2.4833
   84MOL    C5811844   1.396   0.177   7.574  0.5020 -0.0569  0.1125
   84MOL    C5911845   1.312   0.230   7.691 -0.9557 -0.6792  0.3139
   84MOL    C6011846   1.173   0.262   7.666  0.3660  0.4876  0.4257
   84MOL    N6111847   1.067   0.299   7.646  0.5457  0.1215  0.3887
   84MOL    H6211848   1.346   0.081   7.554 -0.8968  0.6588  0.0783
   84MOL    H6311849   1.496   0.141   7.598  0.9812 -0.1923 -2.0085
   84MOL    H6411850   1.349   0.328   7.719  0.5935 -0.8487 -1.0673
   84MOL    C6511851   1.318   0.139   7.821 -0.8488 -0.3504  0.5749
   84MOL    C6611852   1.452   0.104   7.879  0.2871  0.0214  0.1153
   84MOL    C6711853   1.537   0.218   7.882 -0.0287  0.8314 -0.0741
   84MOL    N6811854   1.604   0.314   7.871  0.2372 -0.0953 -0.0534
   84MOL    H6911855   1.271   0.205   7.893  0.0908  2.1211 -1.0193
   84MOL    H7011856   1.255   0.051   7.809  0.8149 -1.4164 -0.5907
   84MOL    H7111857   1.504   0.034   7.813  1.6384  0.5419  0.5961
   84MOL    C7211858   1.450   0.037   8.024 -0.1108 -0.7837  0.1054
   84MOL    C7311859   1.583   8.267   8.056  0.6941  0.5313 -0.0167
   84MOL    C7411860   1.702   0.014   8.015 -0.0013 -0.2154  0.5325
   84MOL    N7511861   1.801   0.063   7.980  0.0841  0.7161 -0.3838
   84MOL    H7611862   1.417   0.103   8.103 -0.2841 -0.3465 -0.3323
   84MOL    H7711863   1.368   8.278   8.020 -0.2861 -0.5979  0.3891
   84MOL    H7811864   1.590   8.174   8.001  0.1568 -0.0926  0.9436
   84MOL    C7911865   1.572   8.227   8.205 -0.0531  0.3823 -0.0060
   84MOL    C8011866   1.700   8.190   8.283  0.7105 -0.2023  0.4533
   84MOL    C8111867   1.760   8.057   8.233  0.5120  0.6671 -0.4313
   84MOL    N8211868   1.801   7.958   8.199  0.1523  0.7326 -0.4816
   84MOL    H8311869   1.533   0.003   8.257  1.0091  0.8475  0.0120
   84MOL    H8411870   1.499   8.147   8.217 -0.4758  0.5380 -1.3722
   84MOL    H8511871   1.661   8.161   0.068  0.0080  1.9244  0.8328
   84MOL    C8611872   1.791   8.311   0.011 -0.3280 -0.2858  0.9317
   84MOL    C8711873   1.899   8.278   0.114 -0.5638 -0.1114 -0.0762
   84MOL    C8811874   2.022   8.244   0.043  0.5679 -0.2895  0.2655
   84MOL    N8911875   2.118   8.221   8.299  0.1045  0.6082 -0.5060
   84MOL    H9011876   1.837   0.044   8.235 -1.4704  1.7938  1.3804
   84MOL    H9111877   1.722   0.076   0.045 -1.3107 -0.6229 -0.2407
   84MOL    H9211878   1.880   8.178   0.153  1.2519 -1.0892 -1.6110
   84MOL    C9311879   1.919   0.081   0.218 -0.3123  0.4359  0.0528
   84MOL    C9411880   1.812   0.084   0.326  0.8518  0.6282 -0.6326
   84MOL    C9511881   1.790   8.269   0.403  0.7544  0.1090  0.3480
   84MOL    N9611882   1.773   8.171   0.464 -0.2507 -0.0144  0.3946
   84MOL    H9711883   2.021   0.071   0.257 -0.7589 -3.7354  0.4281
   84MOL    H9811884   1.929   0.169   0.155  0.2235  0.7595  0.5795
   84MOL    H9911885   1.717   0.100   0.274 -0.4048 -0.1743  1.3427
   84MOL   C10011886   1.831   0.204   0.417 -0.6456  0.1654 -0.6816
   84MOL   C10111887   1.776   0.196   0.562 -0.0793  0.2808 -0.4883
   84MOL   C10211888   1.797   0.320   0.628  0.3707  0.1969 -0.8058
   84MOL   N10311889   1.814   0.425   0.668  0.5839 -0.1710  0.1900
   84MOL   H10411890   1.938   0.219   0.429 -0.7792  0.7858 -0.2591
   84MOL   H10511891   1.791   0.287   0.359 -0.3120  0.6821 -0.1659
   84MOL   H10611892   1.835   0.128   0.623 -0.5700 -1.5056 -1.9280
   84MOL   C10711893   1.625   0.152   0.586 -0.4553  0.5493 -0.0724
   84MOL   C10811894   1.613   0.070   0.717  0.1081  0.5993 -0.1007
   84MOL   C10911895   1.651   0.150   0.833  0.2649 -0.0909 -0.0238
   84MOL   N11011896   1.681   0.214   0.925 -0.3480  0.2441  0.7204
   84MOL   H11111897   1.550   0.231   0.583 -1.2916 -0.2218 -0.0080
   84MOL   H11211898   1.591   0.094   0.500 -0.6647  1.1388 -0.3931
   84MOL   H11311899   1.687   8.304   0.699  0.6811  0.9041  0.8803
   84MOL   C11411900   1.489   8.307   0.733 -0.2420  0.0340  0.6865
   84MOL   C11511901   1.467   8.241   0.872  0.3081  0.1633  0.7387
   84MOL   C11611902   1.425   0.029   0.965  0.5142 -0.6312  0.6951
   84MOL   N11711903   1.391   0.111   1.041 -0.1147  0.0473 -0.2880
   84MOL   H11811904   1.410   0.065   0.707  1.1882  1.0878 -0.8827
   84MOL   H11911905   1.488   8.231   0.655 -1.2261  1.4635 -0.7282
   84MOL   H12011906   1.564   8.206   0.906  1.0928  1.2434 -0.3630
   84MOL   C12111907   1.394   8.107   0.873  0.5528 -0.1168 -0.4467
   84MOL   C12211908   1.362   8.051   1.008 -0.4094  0.2118 -0.2070
   84MOL   C12311909   1.264   8.127   1.085 -0.2865 -0.3070  0.5709
   84MOL   N12411910   1.187   8.188   1.143  0.2789 -0.4063  0.1676
   84MOL   H12511911   1.305   8.111   0.810 -1.1392 -0.1291  1.8815
   84MOL   H12611912   1.454   8.041   0.812 -0.5048 -1.0170 -0.5200
   84MOL   H12711913   1.455   8.046   1.064 -0.2394  0.9276 -0.4144
   84MOL   C12811914   1.318   7.901   0.985  0.3933  0.6164 -0.1975
   84MOL   C12911915   1.262   7.850   1.118  0.2186 -0.6456 -0.1568
   84MOL   C13011916   1.215   7.713   1.101  0.1082  0.1969 -0.4644
   84MOL   N13111917   1.183   7.601   1.086 -0.4676 -0.4002  0.0228
   84MOL   H13211918   1.241   7.892   0.909 -0.8407  1.7405  0.8914
   84MOL   H13311919   1.405   7.843   0.955  1.4670  1.6435  0.8724
   84MOL   H13411920   1.176   7.912   1.144  0.8524  0.1583  0.0440
   84MOL   C13511921   1.359   7.842   1.238 -0.4145 -0.2205 -0.2590
   84MOL   C13611922   1.312   7.741   1.342 -0.0005 -0.4299 -0.3575
   84MOL   C13711923   1.378   7.756   1.472 -0.1208 -0.2263 -0.4286
   84MOL   N13811924   1.431   7.771   1.575 -0.1930  0.1213  0.1688
   84MOL   H13911925   1.458   7.803   1.213  0.2564  0.7188  0.8710
   84MOL   H14011926   1.364   7.941   1.283 -1.9869  1.6371 -3.9915
   84MOL   H14111927   1.333   7.640   1.309  3.0378  0.1055 -0.2195
   84MOL   H14211928   1.206   7.756   1.365  0.0416 -0.6255 -0.0310
   85MOL     C111929   1.059   6.159   4.313 -0.5644  0.3006 -0.0464
   85MOL     C211930   0.961   6.269   4.283 -0.5581 -0.1302 -0.0680
   85MOL     C311931   0.961   6.310   4.138  0.0914  0.3393 -0.0088
   85MOL     N411932   0.962   6.343   4.025  0.1963  0.6081  0.2457
   85MOL     H511933   1.017   6.071   4.264  0.9829 -0.6706  0.3397
   85MOL     H611934   1.076   6.141   4.420  0.2945  1.8596  0.0953
   85MOL     H711935   0.989   6.355   4.344  1.2669 -0.1159 -0.8855
   85MOL     H811936   1.151   6.179   4.259  0.5550 -1.4307  1.1351
   85MOL     C911937   0.820   6.236   4.337 -0.2873 -0.1075  0.2561
   85MOL    C1011938   0.721   6.362   4.353 -0.1068 -0.6199  0.4914
   85MOL    C1111939   0.712   6.436   4.229 -0.3795  0.0100  0.2352
   85MOL    N1211940   0.701   6.495   4.133  0.0911  0.8209  0.8259
   85MOL    H1311941   0.780   6.164   4.266  0.8843 -0.5983  0.0864
   85MOL    H1411942   0.836   6.184   4.432 -0.6946  0.1928  0.4937
   85MOL    H1511943   0.761   6.438   4.420 -0.2371 -1.1781  1.2136
   85MOL    C1611944   0.583   6.329   4.415 -0.5307 -0.0705 -0.6479
   85MOL    C1711945   0.495   6.453   4.435 -0.6125  0.4596 -0.1263
   85MOL    C1811946   0.361   6.410   4.456 -1.0158  0.0690  0.4279
   85MOL    N1911947   0.252   6.378   4.476 -0.5290 -0.4755  0.5848
   85MOL    H2011948   0.531   6.250   4.362 -1.4084  0.5808 -0.7750
   85MOL    H2111949   0.592   6.284   4.514 -1.9120  1.1869  0.0876
   85MOL    H2211950   0.494   6.505   4.340  0.1502 -1.7341 -1.3798
   85MOL    C2311951   0.535   6.537   4.558 -0.6555 -0.3631  0.0353
   85MOL    C2411952   0.584   6.683   4.532 -0.1147  0.3043 -0.3564
   85MOL    C2511953   0.713   6.693   4.459  0.1921  0.2683 -0.3869
   85MOL    N2611954   0.814   6.690   4.396  0.2889 -0.0287 -0.1363
   85MOL    H2711955   0.450   6.544   4.625 -1.1866 -0.6563 -0.6012
   85MOL    H2811956   0.610   6.484   4.616  0.4436  0.7573 -0.3385
   85MOL    H2911957   0.617   6.728   4.626 -1.1594  2.2443 -0.8784
   85MOL    C3011958   0.472   6.779   4.480 -0.7069  0.2574  0.5518
   85MOL    C3111959   0.491   6.926   4.512 -0.7244 -0.0434  0.3292
   85MOL    C3211960   0.614   6.978   4.456 -0.5784  0.0851  0.1258
   85MOL    N3311961   0.715   7.025   4.417 -0.1237  0.2460 -0.1963
   85MOL    H3411962   0.461   6.776   4.371 -0.9650  1.4854  0.5398
   85MOL    H3511963   0.371   6.757   4.516 -1.0229  0.8558  0.0445
   85MOL    H3611964   0.517   6.922   4.618  2.1454  0.0520 -0.3346
   85MOL    C3711965   0.365   7.011   4.512  0.7639 -0.1669 -0.4294
   85MOL    C3811966   0.364   7.151   4.449  0.3522 -0.4044  0.4113
   85MOL    C3911967   0.341   7.139   4.307 -0.4992 -0.5272 -0.8039
   85MOL    N4011968   0.327   7.134   4.192 -0.3250  0.4408 -0.3841
   85MOL    H4111969   0.278   6.961   4.469 -0.3038  1.9292 -0.7365
   85MOL    H4211970   0.340   7.016   4.618 -1.6451  1.3152 -1.0238
   85MOL    H4311971   0.464   7.186   4.473  1.1015 -2.8076  0.8593
   85MOL    C4411972   0.261   7.249   4.516  0.1337 -0.4076 -0.8866
   85MOL    C4511973   0.297   7.305   4.653  0.3625  0.6618 -0.2092
   85MOL    C4611974   0.434   7.361   4.666 -0.2324  0.0644  0.4797
   85MOL    N4711975   0.538   7.409   4.676 -0.1639  0.1215  0.0076
   85MOL    H4811976   0.244   7.325   4.440 -3.1369 -0.4057 -0.2182
   85MOL    H4911977   0.163   7.203   4.526  0.9906 -2.1052 -0.1511
   85MOL    H5011978   0.293   7.217   4.717 -1.0034  0.7712 -0.1219
   85MOL    C5111979   0.186   7.410   4.682  0.0663 -0.2766  0.1195
   85MOL    C5211980   0.152   7.420   4.827  0.4745 -0.6174 -1.0001
   85MOL    C5311981   0.268   7.476   4.902  0.6476  0.0749  0.5596
   85MOL    N5411982   0.359   7.517   4.960 -0.3784  0.3742 -0.3773
   85MOL    H5511983   0.217   7.503   4.636  3.8161 -0.3580  2.2894
   85MOL    H5611984   0.095   7.375   4.634 -0.4126 -2.4639  2.4824
   85MOL    H5711985   0.135   7.329   4.885 -0.1233  0.1567  0.0637
   85MOL    C5811986   0.030   7.515   4.850 -0.3435  0.5868 -0.3648
   85MOL    C5911987   8.198   7.464   4.821  0.4693  0.3065  0.6367
   85MOL    C6011988   8.191   7.321   4.830 -0.4481 -0.1566  0.9351
   85MOL    N6111989   8.183   7.206   4.836  0.2684  0.0244  0.0122
   85MOL    H6211990   0.031   7.527   4.958  2.8395 -0.0694 -0.2786
   85MOL    H6311991   0.040   7.615   4.808  2.1874  0.3025 -0.5123
   85MOL    H6411992   8.172   7.497   4.721 -0.2258  2.0146  1.3774
   85MOL    C6511993   8.090   7.543   4.895  0.3718  0.4074  0.0146
   85MOL    C6611994   7.954   7.513   4.823 -0.2338  0.3347  0.5678
   85MOL    C6711995   7.842   7.516   4.914  0.0599 -0.4695  0.1450
   85MOL    N6811996   7.754   7.522   4.991 -0.3690 -0.3557  0.5160
   85MOL    H6911997   8.087   7.526   5.002  0.5265 -1.4775 -0.2641
   85MOL    H7011998   8.115   7.649   4.888  0.9398  0.2570 -0.3284
   85MOL    H7111999   7.959   7.407   4.800  0.9377  0.6257 -0.5747
   85MOL    C7212000   7.931   7.590   4.691  0.5761  1.0861 -0.3081
   85MOL    C7312001   7.880   7.520   4.567  0.1473  0.0080  0.8749
   85MOL    C7412002   7.784   7.411   4.594  0.3742  0.0543  0.1050
   85MOL    N7512003   7.703   7.334   4.617 -0.0627  0.1705 -0.1399
   85MOL    H7612004   7.864   7.673   4.714  1.8134  1.5602  1.7539
   85MOL    H7712005   8.015   7.652   4.661  1.7053 -0.3817 -0.2198
   85MOL    H7812006   7.971   7.476   4.524  0.1009 -1.3783  2.1196
   85MOL    C7912007   7.832   7.625   4.463 -0.6727  0.2759 -0.8303
   85MOL    C8012008   7.796   7.580   4.317  0.3026  0.5227 -0.3019
   85MOL    C8112009   7.675   7.492   4.321 -0.0948  0.1377  0.4227
   85MOL    N8212010   7.586   7.421   4.318  0.0224 -0.3626  0.1094
   85MOL    H8312011   7.742   7.681   4.492 -0.6350 -0.8201  1.5588
   85MOL    H8412012   7.908   7.701   4.448  0.2009 -0.1465  1.2510
   85MOL    H8512013   7.876   7.521   4.272  0.7214  0.2283  0.8277
   85MOL    C8612014   7.772   7.698   4.219  0.1204 -0.0553 -0.0855
   85MOL    C8712015   7.727   7.656   4.077  0.2684 -0.7485  1.2699
   85MOL    C8812016   7.732   7.784   4.002 -0.2320  0.7657 -0.0507
   85MOL    N8912017   7.733   7.882   3.947 -0.0799 -0.7251 -0.7663
   85MOL    H9012018   7.696   7.765   4.258  1.3666  0.8889  0.7665
   85MOL    H9112019   7.859   7.764   4.216 -0.3428  0.5041 -1.0052
   85MOL    H9212020   7.626   7.616   4.077 -0.0561 -0.1277 -2.3598
   85MOL    C9312021   7.807   7.538   4.014  0.1850  0.2686 -0.2069
   85MOL    C9412022   7.790   7.504   3.859 -0.5928  0.1066 -0.0167
   85MOL    C9512023   7.647   7.520   3.818  0.0544  0.1128  0.4859
   85MOL    N9612024   7.536   7.534   3.792  0.6205 -0.8674 -0.4134
   85MOL    H9712025   7.910   7.560   4.042  0.3627 -0.3733 -0.3293
   85MOL    H9812026   7.758   7.457   4.068  0.8725  0.7214  1.1273
   85MOL    H9912027   7.813   7.398   3.852  1.4011  0.6406 -2.2414
   85MOL   C10012028   7.887   7.584   3.775  0.5543 -0.0102  0.3912
   85MOL   C10112029   7.969   7.512   3.658 -0.2624 -0.2524 -0.1032
   85MOL   C10212030   7.890   7.414   3.584 -0.6470 -0.1259 -0.3377
   85MOL   N10312031   7.819   7.337   3.525 -0.1450 -0.0748  0.0902
   85MOL   H10412032   7.826   7.667   3.738 -0.3208 -1.1158 -0.6907
   85MOL   H10512033   7.957   7.629   3.845  1.1759 -1.0967  0.4717
   85MOL   H10612034   8.047   7.448   3.701 -1.6815  0.4154  3.6135
   85MOL   C10712035   8.035   7.617   3.563 -0.2400 -0.2071  0.0498
   85MOL   C10812036   8.107   7.557   3.440 -0.2840 -0.0585  0.0495
   85MOL   C10912037   8.165   7.650   3.342  0.6515  0.5524  1.2481
   85MOL   N11012038   8.209   7.721   3.260  0.1022 -0.0751  0.0556
   85MOL   H11112039   7.956   7.688   3.538  0.6088 -0.6042 -4.2400
   85MOL   H11212040   8.115   7.678   3.606 -0.0756 -0.6272  0.3413
   85MOL   H11312041   8.033   7.497   3.386  0.8355 -0.8631 -0.6172
   85MOL   C11412042   8.228   7.457   3.479  0.4917  0.2601  0.0282
   85MOL   C11512043   8.257   7.335   3.394 -0.1096 -0.1746 -0.8302
   85MOL   C11612044   8.152   7.232   3.413 -0.0693  0.3923  0.3469
   85MOL   N11712045   8.069   7.150   3.432 -0.1596  0.6949 -0.1680
   85MOL   H11812046   0.010   7.512   3.484  0.8095 -0.3846  1.4457
   85MOL   H11912047   8.209   7.404   3.573 -0.0811 -0.1548 -0.3217
   85MOL   H12012048   0.031   7.285   3.437  0.3945 -1.3884 -3.1421
   85MOL   C12112049   8.294   7.344   3.241  0.6635 -0.2002  0.6829
   85MOL   C12212050   0.055   7.229   3.181  0.1165  0.2385  0.3296
   85MOL   C12312051   8.275   7.126   3.142 -0.9850  0.1538 -0.2854
   85MOL   N12412052   8.205   7.041   3.111 -0.1519 -0.0970 -0.3875
   85MOL   H12512053   8.198   7.363   3.192  0.8756 -0.7926  0.0394
   85MOL   H12612054   0.036   7.438   3.231 -0.4739  0.3245 -0.6452
   85MOL   H12712055   0.127   7.183   3.249 -0.8191 -0.8200  0.6256
   85MOL   C12812056   0.136   7.274   3.059  0.0535  0.1612  0.3482
   85MOL   C12912057   0.239   7.185   2.994  0.0513  1.1711 -0.8001
   85MOL   C13012058   0.364   7.159   3.075 -0.2125 -0.0856 -0.3565
   85MOL   N13112059   0.465   7.134   3.130  1.1451 -0.7461  0.4490
   85MOL   H13212060   0.067   7.313   2.984 -1.2571 -1.8272  0.4712
   85MOL   H13312061   0.186   7.365   3.091  0.4992 -0.6316  1.9948
   85MOL   H13412062   0.274   7.242   2.908  0.9041 -0.1492 -1.3439
   85MOL   C13512063   0.190   7.045   2.942 -0.2885 -0.0123  0.5577
   85MOL   C13612064   0.303   6.965   2.874 -0.2375 -0.0284  0.5003
   85MOL   C13712065   0.367   7.034   2.767  0.3151  0.7862  0.2628
   85MOL   N13812066   0.422   7.096   2.689 -0.4788 -0.4307 -0.0458
   85MOL   H13912067   0.164   6.974   3.020  1.1547 -0.6039  0.5170
   85MOL   H14012068   0.103   7.056   2.877 -0.2792 -1.1427  0.3496
   85MOL   H14112069   0.267   6.871   2.831 -0.8427  0.1237  0.6693
   85MOL   H14212070   0.385   6.943   2.942 -0.6661  0.0711  1.0467
   86MOL     C112071   3.407   7.873   0.223 -0.2147 -0.3482  0.4683
   86MOL     C212072   3.520   7.915   0.325 -0.3874 -0.0182 -0.9603
   86MOL     C312073   3.511   7.834   0.450 -0.0189 -0.6716  0.2841
   86MOL     N412074   3.509   7.778   0.554 -0.4952 -0.5996 -0.0072
   86MOL     H512075   3.416   7.943   0.140  3.0594 -1.6741 -0.3730
   86MOL     H612076   3.306   7.887   0.261 -0.7022  0.3327 -1.0516
   86MOL     H712077   3.481   8.009   0.363 -0.3725  0.4125 -1.9872
   86MOL     H812078   3.431   7.775   0.181  0.2144 -0.4884  1.0404
   86MOL     C912079   3.663   7.925   0.268 -0.1334  0.0286  0.1683
   86MOL    C1012080   3.788   7.922   0.358 -0.1661  0.6072 -0.2521
   86MOL    C1112081   3.912   7.922   0.282  0.1571  0.4475 -0.0244
   86MOL    N1212082   4.005   7.910   0.217  0.2550 -0.3638  0.1814
   86MOL    H1312083   3.687   7.852   0.191  0.0544  0.0592  0.1971
   86MOL    H1412084   3.654   8.017   0.211  2.0496  0.0045 -0.2547
   86MOL    H1512085   3.772   7.827   0.408 -1.2326 -0.0422 -1.7774
   86MOL    C1612086   3.773   8.032   0.459 -0.0424 -0.4345 -0.1765
   86MOL    C1712087   3.904   8.068   0.537  0.1655 -0.1063 -0.0730
   86MOL    C1812088   3.988   8.165   0.472  0.2149 -0.3858  0.6454
   86MOL    N1912089   4.053   8.240   0.414  0.3782  0.1494 -0.4450
   86MOL    H2012090   3.736   8.124   0.415 -0.8007 -0.9589 -0.6551
   86MOL    H2112091   3.692   8.004   0.527 -1.3094  1.3546 -0.9095
   86MOL    H2212092   3.973   7.985   0.551 -1.5095 -1.1175  2.3251
   86MOL    C2312093   3.876   8.116   0.678  0.3055 -0.3035 -0.1458
   86MOL    C2412094   3.819   8.011   0.775  0.1642 -0.1205  0.3578
   86MOL    C2512095   3.876   7.877   0.746  0.1215 -0.0310 -0.1819
   86MOL    N2612096   3.930   7.774   0.727  0.1821 -0.3298 -0.1437
   86MOL    H2712097   3.957   8.174   0.720  1.7622 -0.5387 -2.5150
   86MOL    H2812098   3.788   8.180   0.669  1.0378  0.5079 -1.6594
   86MOL    H2912099   3.714   7.987   0.759  0.3570 -0.2039 -0.8068
   86MOL    C3012100   3.827   8.059   0.925 -0.0891 -0.3910  0.4091
   86MOL    C3112101   3.797   7.941   1.023  0.2905  0.0863 -0.1744
   86MOL    C3212102   3.909   7.852   1.055  0.8741 -0.2034  0.5517
   86MOL    N3312103   3.988   7.776   1.085 -0.3079  1.2817 -0.3014
   86MOL    H3412104   3.925   8.101   0.950 -0.0328 -0.1129 -0.2711
   86MOL    H3512105   3.753   8.137   0.941 -0.4437 -0.8866  1.1712
   86MOL    H3612106   3.724   7.873   0.980 -0.5287  0.7439  0.1576
   86MOL    C3712107   3.742   7.991   1.160 -0.3370  0.2653  0.3372
   86MOL    C3812108   3.841   8.068   1.247 -0.1421 -0.1057 -0.3272
   86MOL    C3912109   3.880   8.202   1.189 -0.4496  0.4417 -0.3489
   86MOL    N4012110   3.916   8.300   1.140  0.4493  0.6249 -0.0959
   86MOL    H4112111   3.640   8.030   1.150  0.0788  0.8134 -1.8691
   86MOL    H4212112   3.712   7.905   1.219 -1.4206  0.7914  0.5757
   86MOL    H4312113   3.931   8.007   1.239 -0.2757 -0.3318 -0.1067
   86MOL    C4412114   3.823   8.066   1.400 -0.5258  0.1112  0.1002
   86MOL    C4512115   3.708   8.156   1.464 -0.4580 -0.5432  0.0974
   86MOL    C4612116   3.578   8.092   1.426  0.2853  0.3371  0.0819
   86MOL    N4712117   3.481   8.036   1.392 -0.2863  0.2213 -0.1519
   86MOL    H4812118   3.828   7.970   1.450  1.9209 -0.4250 -1.0734
   86MOL    H4912119   3.904   8.130   1.436 -0.6020  0.3354 -0.1175
   86MOL    H5012120   3.713   8.253   1.416 -0.2575 -1.1727 -1.1645
   86MOL    C5112121   3.720   8.163   1.616  0.0924 -0.1510 -0.1580
   86MOL    C5212122   3.639   8.277   1.675  0.0290 -0.0761  0.6410
   86MOL    C5312123   3.634   8.242   1.824 -0.2836  0.2552  0.3020
   86MOL    N5412124   3.628   8.214   1.935 -0.1724  0.0603  0.7067
   86MOL    H5512125   3.684   8.065   1.648 -1.0006  0.0336 -0.8189
   86MOL    H5612126   3.822   8.189   1.643  0.0645 -0.7524  0.5483
   86MOL    H5712127   3.537   8.267   1.638  0.4046 -1.3536 -0.0529
   86MOL    C5812128   3.687   0.103   1.642  0.0504 -1.2142 -0.2061
   86MOL    C5912129   3.626   0.225   1.709 -0.5964  0.0816  1.0345
   86MOL    C6012130   3.645   0.225   1.859  0.5897 -0.7740  0.0912
   86MOL    N6112131   3.661   0.222   1.971  0.2548  0.0316 -0.6787
   86MOL    H6212132   3.793   0.108   1.670 -0.0605 -0.8457  0.1575
   86MOL    H6312133   3.689   0.124   1.535  0.8173  2.5775  0.4768
   86MOL    H6412134   3.520   0.219   1.685 -0.5072  1.8104  0.1495
   86MOL    C6512135   3.680   0.359   1.647  0.1749  0.0263  0.5486
   86MOL    C6612136   3.603   0.487   1.698 -0.0629 -0.1351 -0.8139
   86MOL    C6712137   3.691   0.570   1.787  0.9701  0.2350 -0.1930
   86MOL    N6812138   3.762   0.625   1.859  0.4203  0.3080  0.6759
   86MOL    H6912139   3.787   0.376   1.656 -0.0466  0.6184  2.4546
   86MOL    H7012140   3.666   0.362   1.539  0.5041 -2.1507  0.4356
   86MOL    H7112141   3.513   0.458   1.751  1.1979 -1.2488  0.7408
   86MOL    C7212142   3.550   0.570   1.573 -0.2421  0.5113  0.0226
   86MOL    C7312143   3.441   0.678   1.606 -0.3261 -0.3173 -0.4510
   86MOL    C7412144   3.488   0.802   1.667 -0.0753 -0.3151  0.1607
   86MOL    N7512145   3.523   0.900   1.717 -0.0733  0.1053 -0.0949
   86MOL    H7612146   3.635   0.613   1.521  0.4949  0.5985  1.2776
   86MOL    H7712147   3.502   0.502   1.503 -0.6204  1.2273 -0.4219
   86MOL    H7812148   3.380   0.643   1.690  0.6764 -1.4448 -0.1786
   86MOL    C7912149   3.351   0.701   1.478  0.2378  0.7525  0.2462
   86MOL    C8012150   3.226   0.792   1.498  0.7776  0.1733 -0.6982
   86MOL    C8112151   3.267   0.934   1.500 -0.1436 -0.5321 -0.1813
   86MOL    N8212152   3.290   1.047   1.498  0.3762  0.2400  0.0720
   86MOL    H8312153   3.407   0.743   1.394 -0.7678  1.4573 -0.0774
   86MOL    H8412154   3.320   0.604   1.438  0.7903  0.6111  0.1583
   86MOL    H8512155   3.177   0.765   1.591  0.0149  0.7866 -0.9097
   86MOL    C8612156   3.119   0.779   1.387  0.1484  0.1767  0.3951
   86MOL    C8712157   3.063   0.637   1.366  0.4210  0.2468  0.2847
   86MOL    C8812158   2.999   0.604   1.495  0.3411 -0.2341 -0.3306
   86MOL    N8912159   2.948   0.584   1.597 -0.6540 -0.5082 -0.1155
   86MOL    H9012160   3.029   0.836   1.411 -0.2862 -0.5669  0.5459
   86MOL    H9112161   3.154   0.828   1.296 -0.2994  3.1674  1.7554
   86MOL    H9212162   3.139   0.561   1.347 -0.7493 -1.2044  1.2839
   86MOL    C9312163   2.969   0.632   1.250 -0.7146  0.4976 -0.5619
   86MOL    C9412164   2.940   0.497   1.171  0.3592  0.3689 -0.2730
   86MOL    C9512165   2.896   0.390   1.265 -0.3730 -0.7401 -0.2677
   86MOL    N9612166   2.862   0.303   1.338 -0.4260  0.2764 -0.2748
   86MOL    H9712167   2.869   0.656   1.286 -0.8526 -0.1612 -0.4846
   86MOL    H9812168   2.988   0.710   1.177 -0.2005  0.3297 -0.6135
   86MOL    H9912169   3.030   0.447   1.133  0.7317  1.2316 -0.5443
   86MOL   C10012170   2.854   0.532   1.051 -0.2332 -0.1002 -0.5434
   86MOL   C10112171   2.824   0.413   0.953 -0.2229  0.1437  0.3829
   86MOL   C10212172   2.721   0.328   1.015 -0.4744  0.1174 -0.7178
   86MOL   N10312173   2.641   0.267   1.066 -0.4238 -0.2932  0.6582
   86MOL   H10412174   2.753   0.568   1.073 -0.1754  0.8925 -1.8739
   86MOL   H10512175   2.901   0.614   0.998 -0.3331  1.1370  1.2177
   86MOL   H10612176   2.910   0.347   0.948 -0.6121 -0.3614  0.3260
   86MOL   C10712177   2.778   0.458   0.816  0.3388 -0.0235 -0.2454
   86MOL   C10812178   2.756   0.347   0.720  0.3665  0.8527 -0.1445
   86MOL   C10912179   2.622   0.293   0.726  0.3675  0.3908  0.3136
   86MOL   N11012180   2.510   0.258   0.731  0.5766  0.4798 -0.4903
   86MOL   H11112181   2.684   0.511   0.832 -0.8139 -1.5875 -1.6458
   86MOL   H11212182   2.855   0.526   0.779  1.1766 -0.9700 -0.2766
   86MOL   H11312183   2.823   0.264   0.742 -0.0990  0.4944 -0.0508
   86MOL   C11412184   2.790   0.387   0.578 -0.5165  0.1307 -0.1205
   86MOL   C11512185   2.830   0.272   0.484  0.3321  1.2906  0.0668
   86MOL   C11612186   2.773   0.135   0.510 -0.1779  0.3364 -0.0231
   86MOL   N11712187   2.731   0.031   0.526 -0.1402  0.4675 -0.2144
   86MOL   H11812188   2.708   0.449   0.543  0.6341  0.7697 -1.7180
   86MOL   H11912189   2.870   0.460   0.579 -0.5224  0.1422 -0.3869
   86MOL   H12012190   2.936   0.246   0.483 -0.3828 -2.1408  2.1926
   86MOL   C12112191   2.808   0.317   0.342  0.8514 -0.1832  0.3599
   86MOL   C12212192   2.885   0.439   0.296  0.0280  0.8171  0.0649
   86MOL   C12312193   3.025   0.433   0.337 -0.4402 -0.4378 -0.1765
   86MOL   N12412194   3.132   0.422   0.373  0.4267  0.2432  0.8003
   86MOL   H12512195   2.814   0.233   0.272 -1.7194 -2.5337  2.8137
   86MOL   H12612196   2.702   0.342   0.331  0.9422 -0.5867 -1.7331
   86MOL   H12712197   2.857   0.530   0.349  0.3695  0.5698  0.6709
   86MOL   C12812198   2.877   0.462   0.144 -0.1268  0.0367 -0.4230
   86MOL   C12912199   2.911   0.610   0.108  0.0872  0.1082 -0.2382
   86MOL   C13012200   2.959   0.614   8.282 -0.2773 -0.4568 -1.3637
   86MOL   N13112201   3.002   0.617   8.175  0.1938 -0.0925  0.0706
   86MOL   H13212202   2.941   0.394   0.088 -2.0174 -1.2460 -1.0733
   86MOL   H13312203   2.778   0.437   0.105  0.0871  1.8547 -2.2483
   86MOL   H13412204   2.998   0.642   0.165  0.5658 -0.7718 -0.4678
   86MOL   C13512205   2.796   0.716   0.128  0.3478  0.4162 -0.4638
   86MOL   C13612206   2.829   0.861   0.099  0.4434  0.3078 -0.2387
   86MOL   C13712207   2.925   0.919   0.194  0.2543  0.0715  0.0232
   86MOL   N13812208   2.994   0.962   0.277  0.1517 -0.3061 -0.3117
   86MOL   H13912209   2.706   0.682   0.077 -0.5919  0.7392  0.9316
   86MOL   H14012210   2.763   0.725   0.232  0.3042  0.3385 -0.4707
   86MOL   H14112211   2.734   0.912   0.118 -1.7505 -3.1357 -1.3997
   86MOL   H14212212   2.849   0.883   8.306 -1.3381 -0.2714 -0.7213
   87MOL     C112213   4.996   3.510   1.856  0.2717  0.3391  0.0576
   87MOL     C212214   5.143   3.488   1.894  1.0997 -0.2318  0.5081
   87MOL     C312215   5.225   3.526   1.769 -0.3605 -0.0624  0.0156
   87MOL     N412216   5.282   3.560   1.675 -0.6586  0.3472 -0.0963
   87MOL     H512217   4.923   3.487   1.934  0.1729  0.7348  0.0810
   87MOL     H612218   4.977   3.437   1.778 -3.8374  1.1092  0.2041
   87MOL     H712219   5.160   3.381   1.899 -0.4481 -0.4856  0.4226
   87MOL     H812220   4.995   3.614   1.822  1.2354 -0.0369 -1.1532
   87MOL     C912221   5.179   3.559   2.024 -0.1744  0.0399 -0.0154
   87MOL    C1012222   5.139   3.480   2.147  0.0473  0.2881  0.1073
   87MOL    C1112223   5.212   3.353   2.142 -0.2110  1.0829  0.1833
   87MOL    N1212224   5.261   3.251   2.140  0.3259  0.4732 -0.3289
   87MOL    H1312225   5.284   3.589   2.022 -0.5691  1.6112  1.5581
   87MOL    H1412226   5.121   3.652   2.020  2.2703  1.5778 -1.4471
   87MOL    H1512227   5.032   3.459   2.156  0.6033 -1.1749  4.0418
   87MOL    C1612228   5.178   3.556   2.268 -0.6012  0.3260 -0.1315
   87MOL    C1712229   5.092   3.684   2.294  0.1323  0.8891 -0.2440
   87MOL    C1812230   4.947   3.662   2.265 -0.5269  0.3990 -0.1681
   87MOL    N1912231   4.835   3.638   2.249 -0.2926  0.0541 -0.3206
   87MOL    H2012232   5.169   3.498   2.360  1.8759  0.6691  0.3646
   87MOL    H2112233   5.282   3.587   2.259  0.3272 -2.8323 -0.7787
   87MOL    H2212234   5.131   3.753   2.219  1.8963 -0.5714 -0.7167
   87MOL    C2312235   5.115   3.741   2.438 -0.2032 -0.3878 -0.2119
   87MOL    C2412236   5.156   3.893   2.444 -0.3036 -0.2455  0.7464
   87MOL    C2512237   5.057   3.986   2.382  0.0201 -0.0394  0.1162
   87MOL    N2612238   4.981   4.052   2.333  0.4514  0.3143  0.1277
   87MOL    H2712239   5.030   3.729   2.505  0.3005 -0.2346  0.4561
   87MOL    H2812240   5.201   3.689   2.480  0.7148  0.8218 -0.5780
   87MOL    H2912241   5.250   3.904   2.389  0.2137  0.2283  1.6984
   87MOL    C3012242   5.177   3.941   2.589  0.2666 -1.2582  0.2036
   87MOL    C3112243   5.237   4.080   2.610  0.3263 -0.0408 -0.2680
   87MOL    C3212244   5.184   4.124   2.738 -0.4069 -0.1993  0.0945
   87MOL    N3312245   5.141   4.160   2.838 -0.3457 -0.1815 -0.5342
   87MOL    H3412246   5.077   3.944   2.634  0.1261 -1.2730 -0.1051
   87MOL    H3512247   5.222   3.866   2.654 -1.3982 -1.7982  0.7682
   87MOL    H3612248   5.194   4.150   2.538 -1.1330 -2.6825 -2.0097
   87MOL    C3712249   5.389   4.079   2.601  0.3686 -0.5826 -0.2608
   87MOL    C3812250   5.474   4.201   2.670  0.4593 -0.5363  0.3301
   87MOL    C3912251   5.541   4.164   2.795 -0.1782  0.9167  0.0261
   87MOL    N4012252   5.594   4.134   2.891  0.3050 -0.8841 -0.4285
   87MOL    H4112253   5.435   3.992   2.648  1.8131 -0.0470 -0.6369
   87MOL    H4212254   5.418   4.063   2.497 -0.5446 -1.6166 -0.3693
   87MOL    H4312255   5.409   4.269   2.725  0.2161  2.5139 -3.5272
   87MOL    C4412256   5.547   4.292   2.567  0.3038 -0.5347  0.1344
   87MOL    C4512257   5.685   4.243   2.545 -0.2629  1.0901  0.1879
   87MOL    C4612258   5.719   4.239   2.402 -0.5322 -0.6088  0.8277
   87MOL    N4712259   5.746   4.239   2.292  0.5286 -0.0621 -0.4536
   87MOL    H4812260   5.493   4.301   2.473  0.4046  0.1636  0.1378
   87MOL    H4912261   5.553   4.392   2.609  1.2348 -1.0807  1.3275
   87MOL    H5012262   5.681   4.139   2.577 -0.2802  1.3926  1.1748
   87MOL    C5112263   5.789   4.315   2.631 -0.0979 -0.2782  0.0173
   87MOL    C5212264   5.933   4.273   2.606  0.1212  0.1328 -0.1692
   87MOL    C5312265   6.016   4.366   2.681  0.3789  0.4076  0.2858
   87MOL    N5412266   6.084   4.434   2.749 -0.3093 -0.2903  0.5091
   87MOL    H5512267   5.790   4.422   2.612 -1.1487 -0.4509 -1.0849
   87MOL    H5612268   5.773   4.294   2.737 -0.7814  1.7932  0.3547
   87MOL    H5712269   5.954   4.285   2.499  2.5045  1.7175  0.4352
   87MOL    C5812270   5.959   4.119   2.649 -0.6838 -0.2085  0.6655
   87MOL    C5912271   6.102   4.060   2.627  0.0489 -0.1361  0.8132
   87MOL    C6012272   6.162   4.113   2.504 -0.3405  0.2982  0.4361
   87MOL    N6112273   6.212   4.157   2.409 -0.1685 -0.0611 -0.5059
   87MOL    H6212274   5.946   4.101   2.755  0.4669  0.7329  0.9801
   87MOL    H6312275   5.893   4.064   2.582 -1.7837 -0.1883  1.7167
   87MOL    H6412276   6.081   3.956   2.604 -2.0929  0.4884 -0.2411
   87MOL    C6512277   6.201   4.072   2.747 -0.0158  0.1679  0.1982
   87MOL    C6612278   6.329   3.985   2.743 -0.7351 -0.1147 -0.3884
   87MOL    C6712279   6.283   3.855   2.703 -0.3245  0.3511  0.0819
   87MOL    N6812280   6.240   3.750   2.673 -0.0774  0.2680  0.4615
   87MOL    H6912281   6.238   4.174   2.760 -2.9913  1.0995  1.6407
   87MOL    H7012282   6.151   4.034   2.836 -1.5256  0.4131 -0.5353
   87MOL    H7112283   6.375   3.969   2.841 -1.0700  2.2337  0.1672
   87MOL    C7212284   6.438   4.040   2.651  0.2585 -0.0342  0.5357
   87MOL    C7312285   6.573   3.975   2.677  0.4184 -0.9430  0.1327
   87MOL    C7412286   6.574   3.833   2.730  0.3491 -0.1236 -0.3238
   87MOL    N7512287   6.568   3.722   2.767  0.6268 -0.5045 -0.1417
   87MOL    H7612288   6.397   4.015   2.553  0.1256 -0.5747  0.7243
   87MOL    H7712289   6.449   4.148   2.657 -0.5399  0.0022  1.4417
   87MOL    H7812290   6.618   4.033   2.758 -2.2413 -0.9154  1.6588
   87MOL    C7912291   6.674   4.000   2.561 -0.1048 -0.5321 -0.4672
   87MOL    C8012292   6.670   3.901   2.443  0.6090  0.2025  0.4147
   87MOL    C8112293   6.530   3.874   2.401  0.5464 -0.0504 -0.1458
   87MOL    N8212294   6.422   3.856   2.367 -0.6070 -0.4940 -0.1851
   87MOL    H8312295   6.664   4.101   2.520  0.6097 -1.1916 -2.3045
   87MOL    H8412296   6.776   3.995   2.598  0.5523 -1.9962 -2.4226
   87MOL    H8512297   6.707   3.805   2.477  2.2542  0.7342  0.1795
   87MOL    C8612298   6.743   3.949   2.319 -0.5817 -0.0617  0.0760
   87MOL    C8712299   6.765   3.835   2.214  0.1795 -0.2273 -0.3091
   87MOL    C8812300   6.645   3.746   2.176  0.0445  0.4078  0.0616
   87MOL    N8912301   6.558   3.683   2.139  0.1374  0.8093  0.0218
   87MOL    H9012302   6.709   4.049   2.294  0.7634  0.4819  0.4056
   87MOL    H9112303   6.848   3.970   2.341  0.0488 -1.4570 -1.4415
   87MOL    H9212304   6.838   3.769   2.262 -0.9028  0.2185  2.0051
   87MOL    C9312305   6.845   3.863   2.092 -0.2883  0.2466 -0.4855
   87MOL    C9412306   6.806   3.984   2.011 -0.0097 -0.5810  0.0613
   87MOL    C9512307   6.664   3.975   1.968  0.1626  0.4730 -0.6451
   87MOL    N9612308   6.554   3.971   1.937 -0.0217 -0.3446 -0.0295
   87MOL    H9712309   6.951   3.869   2.117 -0.8101 -0.7083  2.1224
   87MOL    H9812310   6.855   3.772   2.033 -0.8749 -1.0049  1.2991
   87MOL    H9912311   6.856   3.968   1.916  0.0351 -0.6766  0.1013
   87MOL   C10012312   6.837   4.126   2.057  0.1829  0.1175 -0.4111
   87MOL   C10112313   6.858   4.228   1.938  0.3069  0.2734 -0.1954
   87MOL   C10212314   6.760   4.222   1.828  0.1888  0.4403 -0.2175
   87MOL   N10312315   6.687   4.211   1.739  0.1157 -0.9246 -0.2183
   87MOL   H10412316   6.751   4.170   2.109  0.7511 -0.9226  1.4613
   87MOL   H10512317   6.919   4.131   2.129 -0.2297  0.7155  0.0237
   87MOL   H10612318   6.952   4.185   1.902  0.9212  1.6761 -0.2823
   87MOL   C10712319   6.878   4.371   1.990  0.3947 -0.3430 -0.5023
   87MOL   C10812320   6.895   4.481   1.876 -0.0836  1.1732  0.0348
   87MOL   C10912321   6.979   4.418   1.773  0.3871  0.1395 -0.2222
   87MOL   N11012322   7.040   4.370   1.687 -0.5360  0.0883 -1.0702
   87MOL   H11112323   6.802   4.402   2.061 -0.5724 -1.4144 -1.0462
   87MOL   H11212324   6.961   4.378   2.060  0.0755  0.8912 -0.2462
   87MOL   H11312325   6.951   4.567   1.912  0.9939 -0.5495  2.6638
   87MOL   C11412326   6.772   4.544   1.805  0.3225 -0.2473 -0.0080
   87MOL   C11512327   6.728   4.672   1.886  0.0637  0.8429 -0.5263
   87MOL   C11612328   6.727   4.648   2.034 -0.6535  0.4170  0.2040
   87MOL   N11712329   6.727   4.622   2.147  0.2152  0.2564 -0.3066
   87MOL   H11812330   6.803   4.573   1.705 -2.5340  0.9240 -0.5953
   87MOL   H11912331   6.684   4.482   1.789  0.1803  0.4615 -2.0035
   87MOL   H12012332   6.623   4.691   1.866 -0.7864 -0.6537  2.2700
   87MOL   C12112333   6.799   4.804   1.846  0.0436  0.4532  0.1555
   87MOL   C12212334   6.732   4.917   1.916 -0.2156  0.3048  0.1363
   87MOL   C12312335   6.778   4.952   2.051  0.0187 -0.2387 -0.1955
   87MOL   N12412336   6.813   4.980   2.158 -0.2432 -0.3841  0.1570
   87MOL   H12512337   6.904   4.803   1.876  0.6434  0.0779 -1.8711
   87MOL   H12612338   6.799   4.810   1.737 -1.1984 -2.2998 -0.0507
   87MOL   H12712339   6.632   4.876   1.930  0.0262 -0.9246 -1.6576
   87MOL   C12812340   6.694   5.041   1.831 -0.3830 -0.5378 -0.4903
   87MOL   C12912341   6.809   5.133   1.758 -0.5413  0.2773  0.1761
   87MOL   C13012342   6.858   5.069   1.633  0.1929  0.6607 -0.6770
   87MOL   N13112343   6.907   5.022   1.536  0.3548 -0.2433 -0.3914
   87MOL   H13212344   6.615   5.015   1.761 -1.2476 -0.7166  0.5426
   87MOL   H13312345   6.654   5.097   1.915 -0.0025  1.5445 -1.6667
   87MOL   H13412346   6.896   5.143   1.824  1.2882 -2.7871 -1.6453
   87MOL   C13512347   6.771   5.279   1.734 -0.1229 -0.1713  0.0314
   87MOL   C13612348   6.894   5.359   1.674 -0.0746  1.1886  0.9215
   87MOL   C13712349   6.991   5.390   1.783  0.5356 -0.6459 -0.3719
   87MOL   N13812350   7.068   5.412   1.865 -0.2374 -1.3405  0.4544
   87MOL   H13912351   6.689   5.279   1.662 -0.7372 -0.7134  0.7367
   87MOL   H14012352   6.736   5.319   1.829  1.3350 -1.0617  0.9555
   87MOL   H14112353   6.859   5.453   1.632  0.8315  0.6680 -1.1143
   87MOL   H14212354   6.950   5.297   1.604  0.9263 -0.0004  2.7505
   88MOL     C112355   4.779   5.735   1.773 -0.1690  0.5455  0.2063
   88MOL     C212356   4.772   5.880   1.824 -0.4655 -0.9087  0.6404
   88MOL     C312357   4.900   5.925   1.889  0.4858  0.4203  0.5812
   88MOL     N412358   4.998   5.957   1.936 -0.1524 -1.0575 -0.1946
   88MOL     H512359   4.687   5.700   1.728  0.1494 -1.6424  1.1881
   88MOL     H612360   4.815   5.662   1.846 -1.5720  0.2757  0.6311
   88MOL     H712361   4.709   5.864   1.912  1.2148 -3.4767  1.4524
   88MOL     H812362   4.859   5.741   1.699  1.5136  1.4676  2.0571
   88MOL     C912363   4.718   5.978   1.713  0.5979 -0.7651  0.3643
   88MOL    C1012364   4.706   6.129   1.772 -0.6309  0.0817  0.0631
   88MOL    C1112365   4.687   6.240   1.680 -0.3218  0.0903 -0.8411
   88MOL    N1212366   4.675   6.333   1.614 -0.0751  0.1864  0.2229
   88MOL    H1312367   4.781   5.966   1.624  0.5749  1.0978  0.0606
   88MOL    H1412368   4.619   5.939   1.692 -0.7195  0.9475  3.1908
   88MOL    H1512369   4.795   6.168   1.821 -3.0904  3.3618  2.1137
   88MOL    C1612370   4.594   6.135   1.882  1.2160  0.7783  0.4567
   88MOL    C1712371   4.448   6.163   1.832 -0.1931 -0.7625 -0.4641
   88MOL    C1812372   4.400   6.066   1.732 -0.6426 -0.1181 -0.2156
   88MOL    N1912373   4.357   5.985   1.660 -0.2969 -0.5057  0.0021
   88MOL    H2012374   4.606   6.043   1.939  1.7382 -0.2933 -1.3678
   88MOL    H2112375   4.622   6.217   1.949  0.4993  2.9947 -1.8520
   88MOL    H2212376   4.453   6.262   1.787  0.6923  0.1136  1.4668
   88MOL    C2312377   4.346   6.169   1.946 -0.2742 -0.0038  0.1140
   88MOL    C2412378   4.342   6.296   2.033  0.0424 -0.0326  0.0614
   88MOL    C2512379   4.284   6.404   1.956 -0.0205  0.5225  0.1014
   88MOL    N2612380   4.231   6.494   1.906 -0.1174 -0.0644 -0.3572
   88MOL    H2712381   4.253   6.166   1.889  0.9746 -1.0579 -1.9283
   88MOL    H2812382   4.354   6.074   1.999  0.7676  1.5788  2.8893
   88MOL    H2912383   4.444   6.324   2.061  0.6104  0.0557 -2.0078
   88MOL    C3012384   4.263   6.263   2.160 -0.0246 -0.3985  0.3168
   88MOL    C3112385   4.341   6.193   2.280 -0.1095  0.6700  0.3818
   88MOL    C3212386   4.458   6.272   2.307 -0.2344  0.1218  0.1609
   88MOL    N3312387   4.551   6.340   2.325  0.1190 -0.6754  0.0939
   88MOL    H3412388   4.231   6.354   2.210  1.5966 -0.6664  1.8943
   88MOL    H3512389   4.175   6.206   2.133 -0.3195  0.8895 -1.6059
   88MOL    H3612390   4.392   6.106   2.239 -1.7112 -1.0797  1.9694
   88MOL    C3712391   4.255   6.155   2.405  0.1764 -0.4194  0.2811
   88MOL    C3812392   4.303   6.039   2.489 -0.7184  0.3678  0.7813
   88MOL    C3912393   4.446   6.057   2.525 -0.2649 -0.4530 -0.1917
   88MOL    N4012394   4.557   6.070   2.561 -0.3252 -0.2288 -0.0990
   88MOL    H4112395   4.239   6.247   2.462 -1.0088 -0.8444  0.6424
   88MOL    H4212396   4.157   6.141   2.360  1.0290 -0.6583 -1.5347
   88MOL    H4312397   4.292   5.946   2.434 -0.1600  1.6048 -1.4701
   88MOL    C4412398   4.225   6.034   2.618 -0.0166 -0.5646  0.7619
   88MOL    C4512399   4.078   5.995   2.597 -0.0053  0.0487 -0.0432
   88MOL    C4612400   4.067   5.872   2.510 -0.4000  0.5185  0.5348
   88MOL    N4712401   4.060   5.775   2.441  0.4996  0.4389  0.1494
   88MOL    H4812402   4.275   5.962   2.683 -0.7418  0.7323  2.8174
   88MOL    H4912403   4.223   6.133   2.664  0.7845  0.3876 -1.2204
   88MOL    H5012404   4.021   6.077   2.554 -1.9614 -0.5597  1.3027
   88MOL    C5112405   4.006   5.973   2.740  0.4059  0.0535 -0.2972
   88MOL    C5212406   3.844   5.998   2.734  0.4651  0.7618 -0.0653
   88MOL    C5312407   3.779   5.910   2.635 -0.7814 -0.7117  0.3732
   88MOL    N5412408   3.728   5.844   2.558  0.3180 -0.0772  0.8510
   88MOL    H5512409   4.033   5.870   2.760  0.4707  0.1993  0.3594
   88MOL    H5612410   4.054   6.041   2.810  0.0702  0.2918 -0.2920
   88MOL    H5712411   3.822   6.096   2.691 -0.7248  1.6635  2.5220
   88MOL    C5812412   3.783   5.987   2.872  0.1676 -0.2224 -0.2524
   88MOL    C5912413   3.829   6.096   2.974  0.0442 -0.4006 -1.1858
   88MOL    C6012414   3.763   6.230   2.939  0.3445 -0.3811 -0.5885
   88MOL    N6112415   3.712   6.330   2.909 -0.3893 -0.2832  0.4396
   88MOL    H6212416   3.674   5.981   2.870  0.0064  1.5839  0.8761
   88MOL    H6312417   3.814   5.888   2.905 -0.5940 -0.5143 -0.4063
   88MOL    H6412418   3.935   6.118   2.960  0.8522 -3.6717 -0.6642
   88MOL    C6512419   3.817   6.057   3.123  0.1391 -0.1534  0.6008
   88MOL    C6612420   3.934   5.956   3.168 -0.4010  0.5560  0.3316
   88MOL    C6712421   4.074   5.990   3.131  0.0561 -0.0858 -0.2164
   88MOL    N6812422   4.183   6.008   3.094  0.3686 -0.7887  0.1051
   88MOL    H6912423   3.808   6.145   3.186  1.2746 -0.3816  1.0785
   88MOL    H7012424   3.718   6.013   3.136 -0.7034  1.8016  0.9301
   88MOL    H7112425   3.939   5.862   3.112  0.8681  1.0650 -0.4304
   88MOL    C7212426   3.921   5.908   3.311  0.4386 -0.6465 -0.4793
   88MOL    C7312427   4.056   5.842   3.375  0.2277  0.2874  0.0737
   88MOL    C7412428   4.029   5.823   3.521  0.2359  0.5683 -0.6806
   88MOL    N7512429   4.004   5.805   3.631 -0.0981  0.0268 -0.4043
   88MOL    H7612430   3.884   5.988   3.376  2.3546  0.9576 -1.3295
   88MOL    H7712431   3.837   5.838   3.299  1.1737 -2.0681  2.0893
   88MOL    H7812432   4.135   5.913   3.350 -1.0503  1.0958 -1.7170
   88MOL    C7912433   4.098   5.706   3.318 -0.5078  0.1965  0.3821
   88MOL    C8012434   4.244   5.677   3.343 -0.2099 -0.1366 -0.1882
   88MOL    C8112435   4.258   5.533   3.357  0.6968  0.2772 -0.6085
   88MOL    N8212436   4.271   5.418   3.375  0.1526 -0.3407  0.3741
   88MOL    H8312437   4.036   5.630   3.365  1.2674 -1.2672  0.3645
   88MOL    H8412438   4.082   5.701   3.210 -0.8088  2.1183  0.3125
   88MOL    H8512439   4.288   5.718   3.434  1.6764  0.3805 -1.2978
   88MOL    C8612440   4.339   5.734   3.226 -0.1114 -0.2029 -0.0798
   88MOL    C8712441   4.345   5.657   3.092 -0.1977 -0.8022 -0.0242
   88MOL    C8812442   4.236   5.680   3.000  0.3093 -0.0287  0.0499
   88MOL    N8912443   4.143   5.694   2.928  0.4167  0.1314 -0.3105
   88MOL    H9012444   4.341   5.841   3.206 -2.2236  0.0237  0.7735
   88MOL    H9112445   4.442   5.720   3.260  0.3178  0.9554 -0.8859
   88MOL    H9212446   4.313   5.553   3.098  0.5808 -0.9660  1.5855
   88MOL    C9312447   4.492   5.656   3.033 -0.3784 -0.3916  0.2312
   88MOL    C9412448   4.504   5.614   2.889  0.0795 -0.4461  0.0160
   88MOL    C9512449   4.650   5.612   2.858  0.0905  0.7342 -0.7028
   88MOL    N9612450   4.759   5.611   2.828 -0.6249 -0.0423 -0.0075
   88MOL    H9712451   4.537   5.755   3.037 -0.1329 -0.3992 -1.5701
   88MOL    H9812452   4.551   5.592   3.099  0.6859  0.9573  0.6014
   88MOL    H9912453   4.466   5.698   2.830 -0.3135 -1.0389 -0.5904
   88MOL   C10012454   4.443   5.479   2.849  0.4522  0.4666  0.1892
   88MOL   C10112455   4.461   5.455   2.699  0.8215 -0.5630  0.2283
   88MOL   C10212456   4.451   5.308   2.657 -0.7279  0.2158  0.2621
   88MOL   N10312457   4.448   5.192   2.632 -0.5517  0.0975  0.1253
   88MOL   H10412458   4.486   5.398   2.908 -0.7864 -2.5021 -2.8240
   88MOL   H10512459   4.339   5.476   2.880  0.7856  1.1196  1.4167
   88MOL   H10612460   4.567   5.469   2.676  1.2430 -2.1660  1.1275
   88MOL   C10712461   4.357   5.539   2.610 -0.1578 -0.2377 -0.0445
   88MOL   C10812462   4.386   5.552   2.464  0.4115  0.4005 -0.3758
   88MOL   C10912463   4.503   5.639   2.445  0.1243  0.3285 -0.6873
   88MOL   N11012464   4.600   5.706   2.437 -0.5514  0.0976 -0.0598
   88MOL   H11112465   4.263   5.484   2.611  0.2515 -1.1231 -3.6328
   88MOL   H11212466   4.331   5.635   2.654  0.6821 -0.9534  2.0733
   88MOL   H11312467   4.310   5.619   2.423 -0.9903 -0.3368  0.9315
   88MOL   C11412468   4.402   5.422   2.376 -0.2490  0.5569  0.8601
   88MOL   C11512469   4.379   5.457   2.230 -0.9598  0.4670  0.0383
   88MOL   C11612470   4.251   5.524   2.206  0.3195  0.1765 -0.1295
   88MOL   N11712471   4.145   5.572   2.188  0.7415 -0.2359  0.1665
   88MOL   H11812472   4.486   5.356   2.394  0.7532  1.1503 -1.4650
   88MOL   H11912473   4.317   5.359   2.404  0.2237 -0.1745  0.6430
   88MOL   H12012474   4.350   5.367   2.176  3.1777 -1.0719  0.2526
   88MOL   C12112475   4.493   5.534   2.156  0.1712 -0.6780 -0.8223
   88MOL   C12212476   4.639   5.494   2.195 -0.2653 -0.4269 -0.4251
   88MOL   C12312477   4.670   5.358   2.152 -0.3216  0.7091 -0.0170
   88MOL   N12412478   4.689   5.252   2.114 -0.4086  0.2023  0.0199
   88MOL   H12512479   4.469   5.522   2.050  0.5655  0.0737 -0.9993
   88MOL   H12612480   4.475   5.639   2.176 -1.9098 -1.0897 -0.4342
   88MOL   H12712481   4.652   5.483   2.303  0.1063  1.3878 -0.2601
   88MOL   C12812482   4.751   5.593   2.151 -0.0669  0.1913  0.5589
   88MOL   C12912483   4.887   5.584   2.235  0.0091  0.4767 -0.0033
   88MOL   C13012484   4.956   5.455   2.223  0.1026 -0.0228  0.3640
   88MOL   N13112485   5.010   5.351   2.215  0.7432 -0.8645  0.5822
   88MOL   H13212486   4.776   5.557   2.051  0.8272  1.3031  0.3742
   88MOL   H13312487   4.707   5.692   2.137 -1.0486 -0.3537 -0.2666
   88MOL   H13412488   4.853   5.602   2.337 -1.6192  1.5916 -0.7240
   88MOL   C13512489   4.983   5.701   2.212  1.2190 -0.1942 -0.1904
   88MOL   C13612490   4.934   5.834   2.267  0.4469  0.1152 -0.4409
   88MOL   C13712491   4.965   5.832   2.411  0.8198 -0.4756 -0.2398
   88MOL   N13812492   4.992   5.843   2.522  0.8555  0.6333  0.0550
   88MOL   H13912493   5.080   5.676   2.255  0.2378  0.7254  2.6795
   88MOL   H14012494   4.995   5.700   2.104  1.9473 -1.1420 -0.1100
   88MOL   H14112495   4.826   5.845   2.261  0.5761  1.5610 -0.1605
   88MOL   H14212496   4.988   5.909   2.209 -2.0797  0.2941 -2.6776
   89MOL     C112497   4.950   0.986   6.318  0.3943  0.2472 -0.0335
   89MOL     C212498   4.842   0.876   6.295 -0.9863 -0.0704 -0.8208
   89MOL     C312499   4.802   0.885   6.155 -0.4542 -0.5548 -0.5108
   89MOL     N412500   4.765   0.896   6.046 -0.3475 -0.7553  0.5379
   89MOL     H512501   5.024   0.993   6.239  1.4249 -1.4189  0.7561
   89MOL     H612502   4.997   0.967   6.414  1.5518 -2.6883 -1.1264
   89MOL     H712503   4.748   0.894   6.347 -0.3694 -1.3176  0.7931
   89MOL     H812504   4.887   1.075   6.323 -0.1456 -0.2011  1.5203
   89MOL     C912505   4.871   0.735   6.354  0.1680  0.3198 -0.2247
   89MOL    C1012506   4.783   0.608   6.315  0.3543 -0.6626  0.3420
   89MOL    C1112507   4.828   0.542   6.193  0.7099 -0.0803  0.0366
   89MOL    N1212508   4.865   0.489   6.097 -0.8318  0.3213 -0.3630
   89MOL    H1312509   4.973   0.703   6.333 -0.1157 -1.1227  0.5378
   89MOL    H1412510   4.877   0.755   6.461  3.3651 -0.5171 -0.2150
   89MOL    H1512511   4.681   0.639   6.291 -0.1364 -2.5920 -0.2228
   89MOL    C1612512   4.782   0.507   6.432  0.4848 -0.1720  0.0701
   89MOL    C1712513   4.724   0.540   6.573  0.0600  0.5842 -0.6382
   89MOL    C1812514   4.597   0.607   6.559  0.5786 -0.1254 -0.0778
   89MOL    N1912515   4.491   0.663   6.548  0.1322  0.8957  0.5915
   89MOL    H2012516   4.716   0.430   6.391  0.5666 -0.1783 -0.0506
   89MOL    H2112517   4.882   0.468   6.450  0.3489 -0.1971  0.7859
   89MOL    H2212518   4.796   0.608   6.619  0.4617 -1.4556  1.8041
   89MOL    C2312519   4.723   0.420   6.664  0.1959  0.2888 -0.4172
   89MOL    C2412520   4.660   0.452   6.799  0.7603  0.5375 -0.3049
   89MOL    C2512521   4.514   0.472   6.802  1.0706  0.5684  0.5343
   89MOL    N2612522   4.397   0.485   6.801  0.1039  0.4852  0.4235
   89MOL    H2712523   4.669   0.338   6.618 -1.3133 -0.2277  2.1454
   89MOL    H2812524   4.828   0.394   6.675 -0.0410  0.2423  2.2306
   89MOL    H2912525   4.704   0.548   6.827  0.2391  0.8658 -0.5881
   89MOL    C3012526   4.701   0.333   6.892 -0.2965  0.6046 -0.6498
   89MOL    C3112527   4.636   0.322   7.028 -0.0234  0.2102  0.5792
   89MOL    C3212528   4.686   0.198   7.084  0.1509  0.3798 -0.6959
   89MOL    N3312529   4.726   0.099   7.126  0.1685 -0.2225 -0.4224
   89MOL    H3412530   4.677   0.241   6.839 -1.3950 -1.6970  3.6316
   89MOL    H3512531   4.810   0.335   6.892 -0.2965  1.2897 -1.8183
   89MOL    H3612532   4.528   0.319   7.017  0.2689 -2.4898 -2.1944
   89MOL    C3712533   4.676   0.428   7.129 -0.5154  0.3062  0.8792
   89MOL    C3812534   4.816   0.415   7.198  0.4480 -0.7437  0.0445
   89MOL    C3912535   4.924   0.508   7.147 -0.3735 -0.7403 -0.7091
   89MOL    N4012536   5.004   0.585   7.108 -0.0053  0.2847 -0.6908
   89MOL    H4112537   4.694   0.518   7.071 -0.5092 -0.2297  0.0347
   89MOL    H4212538   4.599   0.455   7.202 -0.2943 -2.4289  2.2029
   89MOL    H4312539   4.863   0.320   7.176 -2.6609 -2.0162 -1.3786
   89MOL    C4412540   4.803   0.416   7.352 -0.4596 -0.2568 -0.2264
   89MOL    C4512541   4.810   0.547   7.426 -0.2066  0.0514  0.1015
   89MOL    C4612542   4.727   0.656   7.373 -0.1400 -0.1681  0.1711
   89MOL    N4712543   4.665   0.745   7.328  0.3437  0.2796 -0.5158
   89MOL    H4812544   4.717   0.359   7.387 -0.3359 -0.2248  0.1368
   89MOL    H4912545   4.885   0.355   7.392 -1.2318 -1.5576 -0.5876
   89MOL    H5012546   4.907   0.593   7.413  1.4841 -3.0083  1.3333
   89MOL    C5112547   4.789   0.518   7.574  0.4852 -0.8974 -0.7010
   89MOL    C5212548   4.909   0.443   7.646 -0.6343  0.2317  0.2631
   89MOL    C5312549   5.038   0.483   7.595 -0.2838 -0.4607  0.2212
   89MOL    N5412550   5.142   0.519   7.551 -0.0541 -0.4023 -0.4634
   89MOL    H5512551   4.760   0.608   7.628  0.6913 -0.2738 -1.6144
   89MOL    H5612552   4.697   0.463   7.595  1.3246 -1.8201  0.6543
   89MOL    H5712553   4.881   0.344   7.610  2.5875 -0.7612  0.3398
   89MOL    C5812554   4.887   0.447   7.800 -0.2485 -1.4565 -0.9501
   89MOL    C5912555   4.960   0.346   7.884 -0.6773 -0.2665  0.2030
   89MOL    C6012556   4.916   0.210   7.863 -0.2227 -0.2110 -0.0439
   89MOL    N6112557   4.868   0.107   7.843 -0.0203  0.1569 -0.5228
   89MOL    H6212558   4.893   0.551   7.831 -3.0284 -1.8188  1.0386
   89MOL    H6312559   4.783   0.416   7.810 -1.0120  1.7882  1.7508
   89MOL    H6412560   4.918   0.357   7.984  0.3982  1.6160  0.4912
   89MOL    C6512561   5.114   0.371   7.884  0.4313 -0.1089  0.2738
   89MOL    C6612562   5.179   0.309   8.011  0.5001 -0.0689  0.4402
   89MOL    C6712563   5.181   0.158   7.997  0.6021  0.3322  0.7902
   89MOL    N6812564   5.184   0.042   7.988 -0.3755  0.2655  0.0344
   89MOL    H6912565   5.161   0.324   7.797  1.7636  1.7631 -0.0431
   89MOL    H7012566   5.144   0.475   7.892  0.9125  0.0208 -2.5828
   89MOL    H7112567   5.109   0.334   8.090  0.3474 -1.8016  0.8772
   89MOL    C7212568   5.326   0.361   8.046  0.0091  0.2696 -0.8640
   89MOL    C7312569   5.445   0.263   8.030  0.1171 -0.1171 -0.2398
   89MOL    C7412570   5.446   0.210   7.893 -0.7546 -0.2444 -0.1078
   89MOL    N7512571   5.449   0.170   7.782 -0.0480  0.0159 -0.3618
   89MOL    H7612572   5.352   0.456   8.000 -0.4212  1.0039  0.3969
   89MOL    H7712573   5.333   0.384   8.152  1.0924  1.1556 -1.1125
   89MOL    H7812574   5.432   0.166   8.078  0.0532  0.3192  0.6259
   89MOL    C7912575   5.574   0.323   8.077 -0.3223 -0.1752 -0.2957
   89MOL    C8012576   5.688   0.225   8.086 -0.0787 -0.5785  0.2862
   89MOL    C8112577   5.813   0.297   8.133 -0.0394 -0.6118 -0.2732
   89MOL    N8212578   5.911   0.347   8.164  0.0410  0.5813  0.4393
   89MOL    H8312579   5.603   0.409   8.017  1.3342  0.6248  1.6020
   89MOL    H8412580   5.559   0.359   8.179 -2.1648 -1.4342 -0.1042
   89MOL    H8512581   5.707   0.197   7.983 -0.3745  0.4521 -0.0548
   89MOL    C8612582   5.661   0.111   8.189 -0.0978  0.0149 -0.5018
   89MOL    C8712583   5.783   0.042   8.244  1.0110  0.5132 -0.5410
   89MOL    C8812584   5.739   8.276   0.049 -0.8394 -0.1493 -0.2714
   89MOL    N8912585   5.709   8.217   0.142 -0.3570 -0.1352  0.1996
   89MOL    H9012586   5.605   0.152   8.273  0.2067 -2.3333  0.8747
   89MOL    H9112587   5.611   0.024   8.147 -1.8933  0.9373 -0.3220
   89MOL    H9212588   5.848   0.119   8.286  0.9195 -1.1223  2.7142
   89MOL    C9312589   5.865   8.280   8.135  0.0450  0.7974 -0.6486
   89MOL    C9412590   5.988   8.211   8.202 -0.2085 -0.3149  0.1938
   89MOL    C9512591   6.042   8.293   0.001  0.7159 -0.2667 -0.2514
   89MOL    N9612592   6.086   0.040   0.088  0.2042  0.4371  0.0979
   89MOL    H9712593   5.808   8.206   8.078  1.0358 -0.6848  0.2580
   89MOL    H9812594   5.898   0.046   8.067 -0.1355  2.1915  0.8377
   89MOL    H9912595   6.073   8.220   8.133  1.7829  0.5956  2.6795
   89MOL   C10012596   5.972   8.061   8.254  0.0727  0.1386 -0.1132
   89MOL   C10112597   5.986   7.962   8.137 -0.7367 -0.8356 -1.1527
   89MOL   C10212598   6.119   7.958   8.070 -0.3076  0.0350  0.0573
   89MOL   N10312599   6.219   7.947   8.019  0.0234 -0.3671  0.0948
   89MOL   H10412600   6.057   8.041   0.008 -0.5610  0.5523  0.8398
   89MOL   H10512601   5.877   8.052   8.307  1.0239  0.5815  1.7264
   89MOL   H10612602   5.917   7.993   8.060 -0.2207  1.0213 -0.8884
   89MOL   C10712603   5.934   7.814   8.167 -0.1066 -0.6619  0.2041
   89MOL   C10812604   5.816   7.809   8.264  0.1294 -0.1839  0.6371
   89MOL   C10912605   5.703   7.898   8.222 -0.2471 -0.5889 -0.1412
   89MOL   N11012606   5.617   7.972   8.188 -0.3460 -1.3955  0.4300
   89MOL   H11112607   5.918   7.748   8.082  0.8621 -2.1883  1.1871
   89MOL   H11212608   6.013   7.764   8.224 -1.4323 -2.7824  0.2262
   89MOL   H11312609   5.849   7.850   0.047 -0.2955  1.4286  0.1043
   89MOL   C11412610   5.772   7.665   8.290  0.1549  0.2776 -0.0527
   89MOL   C11512611   5.699   7.644   0.113 -0.3747 -0.0224 -0.7306
   89MOL   C11612612   5.594   7.540   0.111  0.9866 -0.0325  0.8717
   89MOL   N11712613   5.507   7.453   0.110 -0.6717  0.4558  0.3148
   89MOL   H11812614   5.705   7.625   8.213  0.2593 -0.9683  0.4986
   89MOL   H11912615   5.860   7.602   8.277  0.3920  0.6457 -0.2628
   89MOL   H12012616   5.653   7.742   0.127 -1.6689 -0.8214  0.8116
   89MOL   C12112617   5.795   7.622   0.232 -0.1446  0.1497 -0.1667
   89MOL   C12212618   5.804   7.464   0.269 -0.0737  0.1048  0.1347
   89MOL   C12312619   5.844   7.382   0.152  0.3602  0.3059  0.4109
   89MOL   N12412620   5.884   7.315   0.067 -0.3251 -0.3170  0.0664
   89MOL   H12512621   5.896   7.654   0.206  0.6653 -2.5533 -0.5855
   89MOL   H12612622   5.754   7.665   0.323  1.6320 -0.6406  1.0357
   89MOL   H12712623   5.709   7.424   0.306 -0.3668 -0.2313 -0.9621
   89MOL   C12812624   5.902   7.457   0.384  0.1611 -0.2421 -0.3954
   89MOL   C12912625   5.932   7.308   0.434  0.8632 -0.4631 -0.0481
   89MOL   C13012626   6.015   7.317   0.551  0.4194  0.1204  0.0398
   89MOL   N13112627   6.075   7.323   0.648  0.0217  0.3652 -0.5034
   89MOL   H13212628   6.003   7.495   0.369  0.0743  0.4927  0.8045
   89MOL   H13312629   5.858   7.505   0.472  2.2667 -0.5024  0.8321
   89MOL   H13412630   5.992   7.260   0.357 -0.2275 -1.8265 -0.0587
   89MOL   C13512631   5.814   7.208   0.460 -0.3226 -0.3985  0.0743
   89MOL   C13612632   5.718   7.275   0.561 -0.4915  0.1409  0.8397
   89MOL   C13712633   5.596   7.200   0.605  0.3306  0.2773 -0.0568
   89MOL   N13812634   5.504   7.137   0.642  0.5383 -0.5376  0.3265
   89MOL   H13912635   5.778   7.187   0.359 -2.8497  1.3841  0.5676
   89MOL   H14012636   5.851   7.115   0.504  1.8680  0.6334  0.4343
   89MOL   H14112637   5.677   7.370   0.527 -1.9859 -0.4784  0.8652
   89MOL   H14212638   5.776   7.282   0.653 -1.4295  1.4974  1.3426
   90MOL     C112639   7.452   1.414   4.622 -0.3179  0.6811  0.6556
   90MOL     C212640   7.392   1.504   4.510 -1.1008  0.2285 -0.0910
   90MOL     C312641   7.506   1.554   4.434  0.6491  0.1732  0.2011
   90MOL     N412642   7.595   1.599   4.379 -0.6001  0.1279  0.9167
   90MOL     H512643   7.380   1.363   4.687  1.8652  0.8150  3.2944
   90MOL     H612644   7.514   1.469   4.693  3.8938 -0.9113 -1.6619
   90MOL     H712645   7.338   1.581   4.566 -1.5922 -1.5305  1.9147
   90MOL     H812646   7.522   1.346   4.575  0.6547  2.1413 -0.0437
   90MOL     C912647   7.292   1.433   4.414  0.5725 -0.0266  0.0596
   90MOL    C1012648   7.343   1.311   4.328 -0.4095 -0.3342 -0.3030
   90MOL    C1112649   7.361   1.193   4.408 -0.2721 -0.3436 -0.5309
   90MOL    N1212650   7.372   1.099   4.471 -0.6207 -1.1246 -0.0322
   90MOL    H1312651   7.211   1.396   4.476  0.9997  1.0005  1.2635
   90MOL    H1412652   7.245   1.504   4.346 -0.9189 -0.7585  0.3080
   90MOL    H1512653   7.442   1.338   4.290 -0.3284  0.6888  0.6249
   90MOL    C1612654   7.240   1.296   4.212  0.1317 -0.0539 -0.0365
   90MOL    C1712655   7.109   1.206   4.224 -0.3781 -0.2741  0.3688
   90MOL    C1812656   7.031   1.239   4.341 -0.4372 -0.2119 -0.0426
   90MOL    N1912657   6.974   1.271   4.435  0.2127  0.7349  0.3698
   90MOL    H2012658   7.220   1.386   4.153  0.5591  0.2849  0.3348
   90MOL    H2112659   7.304   1.249   4.139  0.7186 -0.1017  0.5071
   90MOL    H2212660   7.137   1.102   4.239 -1.1438 -0.6756 -0.9808
   90MOL    C2312661   7.019   1.224   4.101 -0.1623  0.5141  0.0465
   90MOL    C2412662   7.065   1.170   3.973 -0.3366 -0.0654  0.5451
   90MOL    C2512663   7.073   1.027   3.990 -0.1159 -0.0054  0.1663
   90MOL    N2612664   7.077   0.914   3.999 -0.5270 -0.3565  0.1899
   90MOL    H2712665   6.921   1.182   4.126  0.5610 -1.8097 -0.8540
   90MOL    H2812666   7.000   1.331   4.097 -0.8397  0.3670 -0.7637
   90MOL    H2912667   7.168   1.200   3.953 -0.7445  2.3067  1.8171
   90MOL    C3012668   6.989   1.229   3.852  0.1075 -0.2439  0.4948
   90MOL    C3112669   7.043   1.186   3.713 -0.0503  0.3344  0.0103
   90MOL    C3212670   7.033   1.038   3.698 -0.0476 -0.7234  0.4152
   90MOL    N3312671   7.027   0.924   3.681 -0.1520  0.3129  0.0289
   90MOL    H3412672   6.889   1.189   3.868 -0.0898  1.6563  4.4739
   90MOL    H3512673   6.980   1.337   3.862  2.7713 -0.1534  2.5048
   90MOL    H3612674   7.147   1.217   3.709 -0.4432  1.5062 -2.5252
   90MOL    C3712675   6.971   1.268   3.598  0.0599 -0.0128  0.5217
   90MOL    C3812676   7.020   1.235   3.448 -0.3288 -0.4095 -0.6683
   90MOL    C3912677   6.909   1.275   3.353 -0.3421  1.1333  0.1150
   90MOL    N4012678   6.824   1.295   3.281  0.2040  1.0309 -0.2083
   90MOL    H4112679   6.864   1.256   3.614  0.2076  1.3200  2.7537
   90MOL    H4212680   6.997   1.372   3.621 -1.3655 -0.1700  3.0823
   90MOL    H4312681   7.037   1.128   3.435  0.3322 -0.4517  0.4724
   90MOL    C4412682   7.152   1.315   3.415 -0.3625  0.3134 -0.4603
   90MOL    C4512683   7.212   1.308   3.270  1.4788  0.6288  0.3144
   90MOL    C4612684   7.156   1.412   3.175 -0.2743  0.4251 -0.2065
   90MOL    N4712685   7.114   1.490   3.102 -0.9572  0.3756 -0.4465
   90MOL    H4812686   7.144   1.417   3.451  0.6913  1.4937 -3.4256
   90MOL    H4912687   7.231   1.270   3.475 -1.3835 -1.3005 -0.2899
   90MOL    H5012688   7.178   1.218   3.220  1.2051  2.1784 -2.3682
   90MOL    C5112689   7.368   1.313   3.260  0.6987 -0.1495  0.2187
   90MOL    C5212690   7.442   1.184   3.294  0.6090  0.0221  0.1755
   90MOL    C5312691   7.382   1.072   3.220 -0.2113 -0.3845  0.0472
   90MOL    N5412692   7.331   0.986   3.160 -0.5717 -0.1866  0.6998
   90MOL    H5512693   7.399   1.348   3.161 -1.0072 -0.6817 -0.5179
   90MOL    H5612694   7.397   1.399   3.320 -2.3148  2.2769 -1.6434
   90MOL    H5712695   7.421   1.165   3.399 -2.3225  1.2872 -0.1290
   90MOL    C5812696   7.597   1.196   3.286 -0.8024  0.1880  0.1957
   90MOL    C5912697   7.679   1.150   3.160 -0.0880 -0.6243 -0.3495
   90MOL    C6012698   7.665   1.241   3.046 -0.6781  0.2481  0.2679
   90MOL    N6112699   7.653   1.316   2.960 -0.2326 -0.4939  0.1713
   90MOL    H6212700   7.627   1.299   3.272  1.3605 -0.3355  0.8634
   90MOL    H6312701   7.629   1.165   3.385 -0.4691 -0.9750 -0.2641
   90MOL    H6412702   7.626   1.065   3.118 -1.4049  0.0819 -0.1429
   90MOL    C6512703   7.826   1.117   3.177 -0.6125  0.3260  0.3767
   90MOL    C6612704   7.889   1.026   3.070 -0.0730 -0.5894 -0.2655
   90MOL    C6712705   7.887   1.074   2.931  0.4854 -0.2679  0.7520
   90MOL    N6812706   7.889   1.117   2.823 -0.3425  0.8486  0.1097
   90MOL    H6912707   7.890   1.204   3.193  1.0468 -1.0257  1.3151
   90MOL    H7012708   7.839   1.068   3.274  0.6836 -1.1183 -0.4881
   90MOL    H7112709   7.820   0.941   3.067 -0.4591 -0.2553 -0.8926
   90MOL    C7212710   8.027   0.976   3.111 -0.6045 -0.3166  0.1080
   90MOL    C7312711   8.077   0.845   3.047  0.9112  0.2010  0.3590
   90MOL    C7412712   8.009   0.732   3.112  0.3603  0.0840  0.7646
   90MOL    N7512713   7.953   0.642   3.156  0.0796 -0.2625 -0.2529
   90MOL    H7612714   8.108   1.048   3.099  0.2507 -1.2020  0.4661
   90MOL    H7712715   8.028   0.964   3.219  1.0280 -2.4768 -0.1255
   90MOL    H7812716   8.181   0.848   3.080  1.0630  0.7706 -0.1582
   90MOL    C7912717   8.092   0.832   2.890 -0.1135  1.3643 -0.1221
   90MOL    C8012718   8.079   0.680   2.847  0.0215  1.0597  0.1037
   90MOL    C8112719   8.073   0.663   2.696 -0.2429  0.3944  0.5189
   90MOL    N8212720   8.070   0.660   2.581 -0.3792 -0.1904 -0.0040
   90MOL    H8312721   8.001   0.867   2.840 -0.1603 -1.6185 -2.2336
   90MOL    H8412722   8.172   0.883   2.837  0.7601 -0.0990 -0.2293
   90MOL    H8512723   7.990   0.626   2.878  1.2473 -1.7532 -1.1013
   90MOL    C8612724   8.199   0.599   2.897  0.5813 -0.6444  0.7781
   90MOL    C8712725   8.221   0.459   2.840 -0.2821 -0.0263 -0.2072
   90MOL    C8812726   0.008   0.450   2.730  0.2109  0.6584 -0.2802
   90MOL    N8912727   0.093   0.440   2.650 -0.3329 -0.5049 -0.1807
   90MOL    H9012728   8.290   0.660   2.895 -0.6476  1.2038  0.5526
   90MOL    H9112729   8.178   0.577   3.002  1.4961  0.6160  1.2516
   90MOL    H9212730   8.132   0.426   2.786  0.5746 -2.3869 -0.2703
   90MOL    C9312731   8.274   0.351   2.945  0.3008  0.1891  0.1088
   90MOL    C9412732   8.155   0.284   3.028  0.0737  0.0677 -0.8187
   90MOL    C9512733   8.075   0.180   2.963  0.5667 -0.3989  0.7268
   90MOL    N9612734   8.011   0.093   2.913 -0.0523  0.8427 -0.5364
   90MOL    H9712735   0.019   0.273   2.895 -0.2047  0.8184 -1.4800
   90MOL    H9812736   0.028   0.404   3.013 -0.2322  1.8582 -0.6245
   90MOL    H9912737   8.084   0.366   3.043  0.1545 -0.2420  1.5387
   90MOL   C10012738   8.192   0.233   3.170 -0.4691  0.0656 -0.2715
   90MOL   C10112739   8.102   0.294   3.273 -0.3875 -0.5131 -0.1439
   90MOL   C10212740   7.959   0.273   3.249  0.2221  0.1951 -0.2682
   90MOL   N10312741   7.850   0.250   3.217  0.3247 -0.5497 -0.4554
   90MOL   H10412742   8.203   0.125   3.177 -1.3985 -0.0065  0.1916
   90MOL   H10512743   8.291   0.273   3.193 -0.1808 -0.8203  0.0902
   90MOL   H10612744   8.119   0.401   3.262  0.6992 -0.6898 -0.2859
   90MOL   C10712745   8.134   0.252   3.412  0.2737  0.3868 -0.1657
   90MOL   C10812746   8.074   0.337   3.528  0.1087 -0.3897  0.1916
   90MOL   C10912747   7.939   0.388   3.516 -0.3648  0.4876  0.8840
   90MOL   N11012748   7.829   0.417   3.503 -0.1969  0.2529  0.0364
   90MOL   H11112749   8.109   0.147   3.421 -1.1686  0.7381  0.1358
   90MOL   H11212750   8.241   0.259   3.433  0.4851 -0.8326 -0.8245
   90MOL   H11312751   8.134   0.427   3.513  0.0487 -0.3059  0.4634
   90MOL   C11412752   8.110   0.284   3.670  0.2282 -0.0682 -0.6247
   90MOL   C11512753   8.080   0.371   3.797 -0.1276 -0.8841 -0.7244
   90MOL   C11612754   8.090   0.291   3.922 -0.3713  0.5585  0.4395
   90MOL   N11712755   8.097   0.234   4.021 -0.2179 -0.7683  0.5513
   90MOL   H11812756   8.059   0.188   3.676 -0.4976  0.3906  1.1172
   90MOL   H11912757   8.218   0.271   3.666  0.0672 -1.3188 -1.1607
   90MOL   H12012758   7.974   0.397   3.794  0.3043  1.4784  2.1773
   90MOL   C12112759   8.157   0.504   3.807 -0.1430 -0.2277 -0.2246
   90MOL   C12212760   8.084   0.620   3.887  0.6798 -0.2221  0.5488
   90MOL   C12312761   8.121   0.596   4.030  0.3521  0.5911 -0.6305
   90MOL   N12412762   8.146   0.580   4.147  0.0838  0.2616  0.3065
   90MOL   H12512763   8.245   0.475   3.864 -0.0636  1.1831  0.4025
   90MOL   H12612764   8.191   0.539   3.710 -2.4898  1.1938 -0.5697
   90MOL   H12712765   7.977   0.603   3.880  0.8648 -0.8637 -0.7787
   90MOL   C12812766   8.111   0.761   3.838 -0.0642 -0.4523  0.4046
   90MOL   C12912767   8.050   0.807   3.695 -0.4029  0.2079 -0.2061
   90MOL   C13012768   8.087   0.728   3.582  0.6432  0.1136  0.4278
   90MOL   N13112769   8.110   0.669   3.488  0.0222  0.1318 -0.6541
   90MOL   H13212770   8.089   0.834   3.915  1.3888  0.8944 -0.4278
   90MOL   H13312771   8.219   0.775   3.841 -0.2859  1.4593  0.0096
   90MOL   H13412772   8.087   0.904   3.664 -2.9893  1.0465 -0.7412
   90MOL   C13512773   7.901   0.831   3.689 -0.1531  0.3167 -0.4025
   90MOL   C13612774   7.859   0.892   3.557 -0.1202 -0.3413  0.2499
   90MOL   C13712775   7.721   0.949   3.564  0.1507  0.1357 -0.3410
   90MOL   N13812776   7.615   0.991   3.568 -0.5098 -0.0377 -0.6259
   90MOL   H13912777   7.853   0.735   3.704 -1.0517  0.9420  0.8144
   90MOL   H14012778   7.859   0.882   3.776 -0.4963 -0.6568  0.0068
   90MOL   H14112779   7.858   0.806   3.489 -1.4561  0.5704 -0.9094
   90MOL   H14212780   7.920   0.971   3.514 -1.7878  0.9262  0.1801
   91MOL     C112781   0.132   4.110   2.423  0.2986 -0.4162  0.0398
   91MOL     C212782   0.035   4.236   2.418  0.3091 -0.0745 -0.5591
   91MOL     C312783   8.219   4.182   2.358 -0.7151  0.1946 -0.2599
   91MOL     N412784   8.125   4.138   2.309  0.4237  0.1497 -0.1192
   91MOL     H512785   0.153   4.080   2.320  0.4845  0.0703 -0.0645
   91MOL     H612786   0.076   4.026   2.463  0.8222 -0.7265  0.1208
   91MOL     H712787   0.078   4.312   2.353  0.1654 -0.7474 -1.4392
   91MOL     H812788   0.229   4.118   2.473  0.7362 -1.5874 -0.5813
   91MOL     C912789   0.004   4.282   2.561  0.2282 -0.3430 -0.1160
   91MOL    C1012790   0.102   4.400   2.604  0.0124  0.2188  0.7757
   91MOL    C1112791   0.046   4.472   2.720 -0.6446 -0.6690 -0.3574
   91MOL    N1212792   8.309   4.523   2.817 -0.4051 -0.0763 -0.1809
   91MOL    H1312793   8.212   4.313   2.569 -0.0927 -1.4272  0.0266
   91MOL    H1412794   0.008   4.201   2.634 -0.5342 -0.7636 -0.5285
   91MOL    H1512795   0.109   4.471   2.522  1.2104  0.2219  0.8703
   91MOL    C1612796   0.245   4.351   2.637  0.0899  0.4250  0.5617
   91MOL    C1712797   0.262   4.269   2.765  0.2504  0.0857 -0.0968
   91MOL    C1812798   0.215   4.130   2.753 -0.1236  0.1461  0.0039
   91MOL    N1912799   0.180   4.021   2.736  1.0994 -0.2277 -0.0935
   91MOL    H2012800   0.289   4.296   2.553 -0.7969 -0.6967  0.8140
   91MOL    H2112801   0.307   4.439   2.649 -2.7281  2.1832  2.6028
   91MOL    H2212802   0.199   4.307   2.845  1.4183 -1.8437  1.8171
   91MOL    C2312803   0.405   4.262   2.825  0.4824  0.1254  0.1217
   91MOL    C2412804   0.468   4.386   2.890  0.0777 -0.0313 -0.0419
   91MOL    C2512805   0.395   4.423   3.013  0.6565 -0.0420 -0.5095
   91MOL    N2612806   0.342   4.446   3.114 -0.1773  0.2265 -0.1524
   91MOL    H2712807   0.412   4.175   2.890  1.3327  0.3984  0.3929
   91MOL    H2812808   0.472   4.227   2.747 -0.0611 -0.8037  0.0675
   91MOL    H2912809   0.449   4.458   2.810  0.2713  0.1156  0.0440
   91MOL    C3012810   0.616   4.371   2.918  0.0767  0.0285 -0.2002
   91MOL    C3112811   0.711   4.495   2.945 -0.2477  0.0049 -0.1293
   91MOL    C3212812   0.649   4.583   3.040  0.2183  0.7375 -0.1873
   91MOL    N3312813   0.604   4.652   3.116 -0.3514 -0.2701 -0.4309
   91MOL    H3412814   0.619   4.312   3.009  0.4208 -0.7143 -0.6880
   91MOL    H3512815   0.658   4.308   2.839 -0.1840  2.0955 -2.0535
   91MOL    H3612816   0.712   4.549   2.851 -3.0424 -1.8610 -1.3040
   91MOL    C3712817   0.857   4.438   2.985  0.2956  0.3627  0.6104
   91MOL    C3812818   0.975   4.536   2.982  0.2752  0.0716 -0.1458
   91MOL    C3912819   0.949   4.654   3.073 -0.4215  0.1163 -0.3234
   91MOL    N4012820   0.929   4.738   3.150  1.1212  0.1365 -0.2504
   91MOL    H4112821   0.842   4.399   3.086  3.0719  0.3856  1.0674
   91MOL    H4212822   0.880   4.346   2.931 -0.8644  1.2912 -1.4953
   91MOL    H4312823   0.981   4.579   2.882 -0.6851 -0.9826 -0.6553
   91MOL    C4412824   1.115   4.472   3.021  0.2393 -0.5853 -0.1063
   91MOL    C4512825   1.153   4.345   2.937  0.1759 -0.1059 -0.6420
   91MOL    C4612826   1.150   4.392   2.792 -0.2287  0.1518  0.2330
   91MOL    N4712827   1.155   4.430   2.685 -0.0036 -0.7018 -0.1415
   91MOL    H4812828   1.193   4.546   3.036  0.0982 -0.1706 -1.3786
   91MOL    H4912829   1.089   4.429   3.118  0.8983 -2.2374 -0.6452
   91MOL    H5012830   1.071   4.274   2.948 -0.2132  0.5798  1.0155
   91MOL    C5112831   1.290   4.282   2.977  0.0820  0.6771 -1.2919
   91MOL    C5212832   1.284   4.182   3.098 -0.4024 -0.4768 -0.6880
   91MOL    C5312833   1.420   4.138   3.142 -0.1750 -0.5265 -0.2895
   91MOL    N5412834   1.523   4.094   3.172  0.1687  0.3354 -0.2318
   91MOL    H5512835   1.327   4.229   2.889  1.6179 -0.6621  0.1365
   91MOL    H5612836   1.366   4.358   2.990  0.0751  0.6424 -1.0463
   91MOL    H5712837   1.253   4.090   3.049  1.6521 -0.4929 -2.0266
   91MOL    C5812838   1.179   4.197   3.214 -0.0544 -0.1070 -0.0483
   91MOL    C5912839   1.160   4.080   3.310  0.2247  0.8595 -0.0506
   91MOL    C6012840   1.165   3.951   3.241 -0.5124 -0.0091 -0.0748
   91MOL    N6112841   1.175   3.850   3.185  0.9292 -0.4783  0.0184
   91MOL    H6212842   1.205   4.291   3.262  0.6763 -1.5199  2.4152
   91MOL    H6312843   1.084   4.217   3.163 -0.3372  0.0853  0.5537
   91MOL    H6412844   1.055   4.096   3.335 -0.2900 -0.0889 -1.5719
   91MOL    C6512845   1.260   4.100   3.423 -0.0111  0.5055  0.0406
   91MOL    C6612846   1.227   4.207   3.525 -0.2096 -0.0527 -0.5226
   91MOL    C6712847   1.084   4.197   3.578 -0.1071  0.1833 -0.1632
   91MOL    N6812848   0.976   4.195   3.610 -0.1599 -0.6650  0.1991
   91MOL    H6912849   1.284   4.002   3.463  0.1085 -0.5990 -2.6562
   91MOL    H7012850   1.356   4.122   3.378 -0.5124 -1.6593 -2.2054
   91MOL    H7112851   1.246   4.298   3.469 -1.5764  1.7059  1.7401
   91MOL    C7212852   1.337   4.207   3.627 -0.3152  0.4110  0.6185
   91MOL    C7312853   1.343   4.329   3.728 -0.2503  0.4143  0.3646
   91MOL    C7412854   1.484   4.333   3.786 -0.1446  0.2236 -0.6442
   91MOL    N7512855   1.592   4.336   3.825  0.2863  0.8791  0.1715
   91MOL    H7612856   1.337   4.111   3.678 -0.0724 -0.1331 -0.3957
   91MOL    H7712857   1.430   4.210   3.570 -0.4832  1.9675  0.3981
   91MOL    H7812858   1.273   4.305   3.808  2.8219 -0.1662  3.0121
   91MOL    C7912859   1.309   4.471   3.675 -0.3979  0.8359 -0.0300
   91MOL    C8012860   1.329   4.584   3.769 -0.6484 -1.2912  0.2556
   91MOL    C8112861   1.317   4.534   3.905  0.4046  0.0772 -0.1633
   91MOL    N8212862   1.305   4.490   4.012 -0.1312  0.8592 -0.3546
   91MOL    H8312863   1.340   4.502   3.575 -0.2620 -0.3504 -0.3678
   91MOL    H8412864   1.201   4.460   3.667 -0.1312 -1.7730 -0.4611
   91MOL    H8512865   1.245   4.651   3.753  0.9892  1.3019  2.2459
   91MOL    C8612866   1.457   4.674   3.735 -0.4200  1.0185  0.6912
   91MOL    C8712867   1.439   4.809   3.808  0.3057  0.3750 -0.2401
   91MOL    C8812868   1.443   4.795   3.956  0.0343 -0.0982  0.4831
   91MOL    N8912869   1.456   4.792   4.071  0.2463 -0.2860  0.0912
   91MOL    H9012870   1.547   4.621   3.766 -1.5958 -2.0191 -0.9148
   91MOL    H9112871   1.469   4.678   3.627  1.6338  2.6467  0.9373
   91MOL    H9212872   1.335   4.835   3.785 -0.7715 -2.9455  0.5302
   91MOL    C9312873   1.521   4.925   3.743  0.0141  0.0645 -0.2334
   91MOL    C9412874   1.471   5.069   3.778  0.1061 -0.5234 -0.4781
   91MOL    C9512875   1.511   5.093   3.921 -0.1857  0.2866 -0.2848
   91MOL    N9612876   1.542   5.110   4.032 -0.3602  0.7561  0.0555
   91MOL    H9712877   1.625   4.922   3.776 -0.1464  1.2939  0.4104
   91MOL    H9812878   1.513   4.910   3.635 -0.0996  0.5126 -0.2908
   91MOL    H9912879   1.364   5.055   3.763  0.4105 -1.9080 -1.5191
   91MOL   C10012880   1.517   5.177   3.672  0.6033 -0.5270 -0.3699
   91MOL   C10112881   1.538   5.320   3.728  0.3248  1.0955  1.1218
   91MOL   C10212882   1.658   5.323   3.810 -0.1063  0.3433 -0.5416
   91MOL   N10312883   1.753   5.322   3.876  0.0066  0.9951  0.3185
   91MOL   H10412884   1.613   5.157   3.624  0.9673  0.7957 -0.2191
   91MOL   H10512885   1.436   5.183   3.600 -0.0071  0.0665  0.3615
   91MOL   H10612886   1.450   5.341   3.788  0.6972  1.7644  1.4425
   91MOL   C10712887   1.532   5.412   3.610 -0.1775  0.5880  0.5305
   91MOL   C10812888   1.560   5.565   3.650  0.2383  0.3462 -0.4317
   91MOL   C10912889   1.474   5.616   3.756  0.3651  0.5263 -0.1444
   91MOL   N11012890   1.411   5.658   3.843 -0.6779 -0.6111  0.5745
   91MOL   H11112891   1.606   5.390   3.533 -0.6746 -1.5010  0.6027
   91MOL   H11212892   1.431   5.401   3.573  0.3998 -1.3249 -0.5554
   91MOL   H11312893   1.517   5.618   3.565  1.8386  0.3676 -1.2459
   91MOL   C11412894   1.708   5.596   3.671  0.5438 -0.7570 -0.5605
   91MOL   C11512895   1.748   5.738   3.659 -0.2669 -0.1866  0.1134
   91MOL   C11612896   1.675   5.828   3.752 -0.0858 -0.8416 -0.3205
   91MOL   N11712897   1.626   5.897   3.829 -0.0899  0.0321 -0.2918
   91MOL   H11812898   1.750   5.551   3.761  0.0435  0.5291  0.3413
   91MOL   H11912899   1.763   5.545   3.593  1.1317 -2.3584  0.8556
   91MOL   H12012900   1.707   5.776   3.565  0.6925  2.2926  0.6571
   91MOL   C12112901   1.899   5.762   3.656  0.1748 -0.0064 -0.7451
   91MOL   C12212902   1.938   5.824   3.517  0.1219 -0.0083  0.2437
   91MOL   C12312903   1.875   5.955   3.495 -0.1126 -0.5686  0.0887
   91MOL   N12412904   1.820   6.057   3.482  0.7403  0.5442  0.5475
   91MOL   H12512905   1.931   5.833   3.732  0.4477 -0.5636 -0.3369
   91MOL   H12612906   1.962   5.676   3.678 -1.9939 -1.1109  1.3704
   91MOL   H12712907   1.901   5.754   3.442  1.3543  0.7756 -1.1302
   91MOL   C12812908   2.090   5.834   3.502  0.1944 -0.0845  0.0393
   91MOL   C12912909   2.172   5.710   3.500  0.4747 -0.1961  0.0716
   91MOL   C13012910   2.123   5.616   3.393 -0.1644 -0.2530 -0.1183
   91MOL   N13112911   2.090   5.541   3.309  0.1969  0.3289 -0.0711
   91MOL   H13212912   2.106   5.899   3.416 -1.5977  0.1887 -0.1151
   91MOL   H13312913   2.126   5.892   3.587 -1.6086 -0.0293  0.7828
   91MOL   H13412914   2.154   5.644   3.585 -1.8808  0.6212  0.2628
   91MOL   C13512915   2.329   5.729   3.505  0.0508 -0.7608 -0.0566
   91MOL   C13612916   2.416   5.611   3.472  0.2299  0.0376 -0.4253
   91MOL   C13712917   2.382   5.482   3.545 -0.1499 -0.0324  0.2508
   91MOL   N13812918   2.349   5.381   3.591  0.4305 -0.1906  0.4983
   91MOL   H13912919   2.357   5.803   3.430  2.9765 -0.7658  0.9926
   91MOL   H14012920   2.346   5.783   3.598  0.0386  1.1371 -1.1332
   91MOL   H14112921   2.522   5.633   3.485  0.2408 -0.4270  0.2992
   91MOL   H14212922   2.396   5.598   3.365 -3.4954  1.7878 -0.0282
   92MOL     C112923   1.215   0.910   6.794 -0.1183 -0.8316  0.8496
   92MOL     C212924   1.071   0.956   6.796 -0.4597 -0.5826 -0.0958
   92MOL     C312925   0.997   0.851   6.875 -0.2315 -0.3332  0.0831
   92MOL     N412926   0.941   0.770   6.934  0.7110 -0.5616  0.4600
   92MOL     H512927   1.261   0.904   6.892 -0.2761 -1.4224  0.8862
   92MOL     H612928   1.277   0.974   6.731  1.4070 -1.6182  1.5303
   92MOL     H712929   1.026   0.957   6.697 -2.1640  1.3142  0.6554
   92MOL     H812930   1.221   0.812   6.747 -1.2962 -0.0333 -1.0412
   92MOL     C912931   1.052   1.078   6.888  0.1652 -0.2129 -0.9091
   92MOL    C1012932   0.908   1.141   6.879 -0.6055 -0.1584  0.2425
   92MOL    C1112933   0.912   1.255   6.981 -0.5627  0.2293 -0.4444
   92MOL    N1212934   0.915   1.344   7.048  0.2342 -0.9545  0.0766
   92MOL    H1312935   1.068   1.042   6.990  1.2401  0.4104 -0.8499
   92MOL    H1412936   1.125   1.156   6.864  0.5229 -0.4015 -0.4463
   92MOL    H1512937   0.819   1.088   6.913  0.7085 -1.6217  1.5044
   92MOL    C1612938   0.870   1.189   6.741 -0.2127  0.0815 -0.6272
   92MOL    C1712939   0.719   1.213   6.707 -0.2249  0.1372  0.1463
   92MOL    C1812940   0.681   1.328   6.787 -0.3281 -0.2110 -0.0169
   92MOL    N1912941   0.656   1.423   6.847  0.3112  0.4199 -0.7569
   92MOL    H2012942   0.914   1.288   6.731 -1.9826  1.0789  1.0857
   92MOL    H2112943   0.919   1.129   6.665  0.9911  0.3617 -0.0780
   92MOL    H2212944   0.647   1.143   6.750 -1.0153  0.9179  0.1017
   92MOL    C2312945   0.688   1.237   6.552  0.3031  0.0439 -0.2232
   92MOL    C2412946   0.710   1.114   6.467  0.2356  0.4273  0.7054
   92MOL    C2512947   0.632   0.997   6.516 -0.4032  0.0576 -0.1504
   92MOL    N2612948   0.565   0.914   6.557 -0.7284  0.7467 -0.8237
   92MOL    H2712949   0.585   1.271   6.540 -0.7387 -3.2765 -1.2578
   92MOL    H2812950   0.754   1.314   6.511 -0.5696  0.5074 -0.7713
   92MOL    H2912951   0.813   1.077   6.467  1.1162  2.8186 -0.8317
   92MOL    C3012952   0.671   1.128   6.312  0.2839  0.4756  0.0725
   92MOL    C3112953   0.714   1.240   6.229 -1.0519 -0.1365 -0.7708
   92MOL    C3212954   0.862   1.265   6.233 -0.1035  0.7327  0.0313
   92MOL    N3312955   0.973   1.286   6.241 -0.8184  0.3588  0.2435
   92MOL    H3412956   0.709   1.041   6.259  2.7863  1.7147 -0.2413
   92MOL    H3512957   0.562   1.123   6.310  0.2662  0.4137  0.7720
   92MOL    H3612958   0.666   1.331   6.265 -1.8407 -1.2339  1.0103
   92MOL    C3712959   0.670   1.224   6.087  0.4297  0.2277 -0.1158
   92MOL    C3812960   0.520   1.257   6.056 -0.2438 -0.0745 -0.3348
   92MOL    C3912961   0.473   1.389   6.077  0.7121  0.3732 -0.1518
   92MOL    N4012962   0.432   1.496   6.081  0.1578  0.3152 -0.1609
   92MOL    H4112963   0.727   1.298   6.031  0.0011  1.3659  0.9265
   92MOL    H4212964   0.707   1.127   6.053 -1.6549 -1.4880  2.3357
   92MOL    H4312965   0.453   1.196   6.117 -0.4276 -1.7042 -2.1396
   92MOL    C4412966   0.505   1.214   5.912 -0.0710 -0.0930 -0.0801
   92MOL    C4512967   0.456   1.062   5.908  0.6634 -0.1926  0.8170
   92MOL    C4612968   0.317   1.039   5.965 -0.5836  0.2033  0.2724
   92MOL    N4712969   0.206   1.032   6.006 -0.1121 -0.1775  0.0812
   92MOL    H4812970   0.428   1.270   5.859 -0.1074 -0.8248 -0.8069
   92MOL    H4912971   0.600   1.236   5.863  0.1944 -1.1305 -0.0392
   92MOL    H5012972   0.530   1.009   5.968  2.2185  0.3421 -0.5822
   92MOL    C5112973   0.459   1.014   5.761 -0.5106 -0.4039 -0.4711
   92MOL    C5212974   0.585   1.044   5.666  0.0791 -0.4655  0.1239
   92MOL    C5312975   0.706   1.013   5.743 -0.4268  1.0952  0.0716
   92MOL    N5412976   0.800   0.998   5.810  0.0644  0.2798 -0.5113
   92MOL    H5512977   0.441   0.907   5.761  2.4877 -0.9460 -0.4601
   92MOL    H5612978   0.376   1.056   5.704 -0.4406 -1.3107 -1.2335
   92MOL    H5712979   0.597   1.150   5.644  0.6358 -0.3204  1.1460
   92MOL    C5812980   0.578   0.964   5.535  0.1512  0.3322 -0.0134
   92MOL    C5912981   0.671   1.015   5.420  0.0791 -0.5053 -0.8403
   92MOL    C6012982   0.809   0.972   5.450  0.2881 -0.1606  0.2268
   92MOL    N6112983   0.919   0.941   5.472  0.0931  0.5478  0.0081
   92MOL    H6212984   0.587   0.856   5.551  1.6114  0.7171  2.0452
   92MOL    H6312985   0.472   0.971   5.512  0.1195  0.5927  0.2056
   92MOL    H6412986   0.660   1.123   5.423 -1.3022 -0.6822  3.1339
   92MOL    C6512987   0.630   0.951   5.281  0.0765  0.1083  0.1280
   92MOL    C6612988   0.658   1.042   5.156 -0.3250 -0.4087 -0.3504
   92MOL    C6712989   0.576   1.160   5.171 -0.8650 -0.8660 -0.2819
   92MOL    N6812990   0.511   1.256   5.181 -0.5729  0.7524 -0.1707
   92MOL    H6912991   0.684   0.857   5.269 -1.3219 -0.4159 -2.5502
   92MOL    H7012992   0.522   0.937   5.285 -0.1711  0.4582 -3.3018
   92MOL    H7112993   0.625   0.995   5.064 -0.4869 -2.0077  0.5118
   92MOL    C7212994   0.801   1.071   5.115  0.7106  0.4153  0.4356
   92MOL    C7312995   0.813   1.158   4.990  0.5631  0.1992 -0.4817
   92MOL    C7412996   0.718   1.148   4.884 -0.1258 -1.1133 -0.1228
   92MOL    N7512997   0.640   1.136   4.801 -0.0425  0.4474 -0.4551
   92MOL    H7612998   0.855   1.108   5.203  0.2171  1.2946  0.3810
   92MOL    H7712999   0.839   0.972   5.092 -1.3002 -0.4953  0.9279
   92MOL    H7813000   0.898   1.119   4.935 -0.1244  1.0589 -2.1969
   92MOL    C7913001   0.835   1.303   5.039 -0.3070  0.1107 -0.6724
   92MOL    C8013002   0.935   1.372   4.945 -0.0282  0.2273  0.3049
   92MOL    C8113003   0.935   1.514   4.961 -0.1889  0.2339  0.2759
   92MOL    N8213004   0.939   1.630   4.978 -0.2709  0.1981 -0.4164
   92MOL    H8313005   0.739   1.352   5.023 -0.0823  1.0184  0.6129
   92MOL    H8413006   0.855   1.320   5.145  1.5660  0.5905 -1.0986
   92MOL    H8513007   0.893   1.359   4.845 -1.0856  0.2238  0.7362
   92MOL    C8613008   1.075   1.316   4.943  0.5163  0.2273  0.2929
   92MOL    C8713009   1.160   1.371   4.833  0.3779 -0.0323 -0.3720
   92MOL    C8813010   1.210   1.507   4.863 -0.1112 -0.1338 -0.2647
   92MOL    N8913011   1.250   1.616   4.889  0.0260 -0.2518  0.1702
   92MOL    H9013012   1.119   1.321   5.043  2.5578 -0.1597 -0.5503
   92MOL    H9113013   1.068   1.209   4.921 -0.7364  0.0153  1.6173
   92MOL    H9213014   1.089   1.389   4.752 -2.8873 -1.3352  2.0421
   92MOL    C9313015   1.265   1.267   4.787  0.4578 -0.2558  0.0640
   92MOL    C9413016   1.365   1.310   4.678  0.1512  0.4402 -0.0530
   92MOL    C9513017   1.470   1.400   4.735 -0.7705 -0.4459 -0.6975
   92MOL    N9613018   1.549   1.474   4.777  0.8045  0.4976  0.1116
   92MOL    H9713019   1.325   1.229   4.869 -1.3420  0.3285  1.6931
   92MOL    H9813020   1.211   1.181   4.746 -0.4687  0.7110 -0.7772
   92MOL    H9913021   1.317   1.364   4.595 -0.3047  0.8401  0.4667
   92MOL   C10013022   1.438   1.184   4.626 -0.2623 -0.2454  0.4038
   92MOL   C10113023   1.370   1.113   4.512 -0.2043  0.4654 -0.9046
   92MOL   C10213024   1.367   1.183   4.384  0.1791  0.5070  0.4820
   92MOL   N10313025   1.374   1.234   4.276  0.0921 -0.2921 -0.1420
   92MOL   H10413026   1.538   1.214   4.596 -0.3925 -0.7845 -0.6029
   92MOL   H10513027   1.452   1.108   4.703 -2.6637 -1.8572 -0.6524
   92MOL   H10613028   1.264   1.111   4.538 -0.1490  1.3775 -0.5735
   92MOL   C10713029   1.421   0.970   4.506 -0.2137  0.4738  0.0590
   92MOL   C10813030   1.356   0.887   4.392  0.2698 -0.4829  0.8731
   92MOL   C10913031   1.209   0.903   4.381 -0.8870  0.1360  0.3093
   92MOL   N11013032   1.092   0.908   4.372 -0.3895 -0.0292  0.1648
   92MOL   H11113033   1.530   0.970   4.506 -0.2166  1.3372  1.0429
   92MOL   H11213034   1.384   0.927   4.599 -2.7562  0.6428 -0.8332
   92MOL   H11313035   1.356   0.783   4.426 -1.2205 -0.2974  1.4928
   92MOL   C11413036   1.432   0.883   4.264  0.4430 -0.0501  0.8282
   92MOL   C11513037   1.365   0.798   4.157 -0.5196 -0.0664 -0.3023
   92MOL   C11613038   1.282   0.882   4.068  0.0078  0.1184 -0.5868
   92MOL   N11713039   1.224   0.952   3.998  0.2819  0.4232 -0.6849
   92MOL   H11813040   1.441   0.985   4.228 -2.0401  0.2323  0.9283
   92MOL   H11913041   1.529   0.836   4.281 -0.5528 -1.8914  1.4985
   92MOL   H12013042   1.297   0.739   4.218 -0.0946 -1.7107 -1.3746
   92MOL   C12113043   1.457   0.701   4.085  0.6253 -0.3881 -0.5579
   92MOL   C12213044   1.523   0.728   3.942  0.3726  0.0061 -0.1200
   92MOL   C12313045   1.553   0.869   3.929  0.0437  0.7817  0.0033
   92MOL   N12413046   1.586   0.982   3.919  0.3033 -0.2949 -0.1279
   92MOL   H12513047   1.538   0.671   4.152 -0.4903  0.0325  1.0187
   92MOL   H12613048   1.402   0.609   4.072  1.4576 -0.9167 -0.4019
   92MOL   H12713049   1.440   0.732   3.872 -0.2901  1.0487  0.6931
   92MOL   C12813050   1.638   0.634   3.907 -0.1013 -0.1002  0.3574
   92MOL   C12913051   1.682   0.654   3.762  0.3784  0.9427  0.1872
   92MOL   C13013052   1.813   0.592   3.734 -0.6336  0.4404 -0.0343
   92MOL   N13113053   1.913   0.541   3.708  0.4044 -0.4793 -0.4662
   92MOL   H13213054   1.726   0.657   3.967 -0.3484  1.0996  0.2729
   92MOL   H13313055   1.606   0.532   3.927  0.3309  0.2364  2.9964
   92MOL   H13413056   1.680   0.763   3.759 -2.9379  1.0131  2.2228
   92MOL   C13513057   1.582   0.607   3.653 -0.2097  0.2183 -0.6770
   92MOL   C13613058   1.629   0.643   3.515 -0.0591  0.3025  1.0289
   92MOL   C13713059   1.665   0.786   3.493  0.3811 -0.0559  0.3712
   92MOL   N13813060   1.689   0.898   3.468 -0.2757 -0.1105 -0.6673
   92MOL   H13913061   1.576   0.498   3.653  2.3875  0.0363  0.9720
   92MOL   H14013062   1.478   0.633   3.670 -0.3113  0.7859 -2.1285
   92MOL   H14113063   1.555   0.604   3.445  0.2267  2.5562 -0.5937
   92MOL   H14213064   1.723   0.591   3.498 -0.4800 -1.1815  3.0752
   93MOL     C113065   4.426   5.175   6.921  0.3288 -0.3868 -0.0215
   93MOL     C213066   4.575   5.174   6.879  0.2211 -0.5370 -0.3441
   93MOL     C313067   4.585   5.088   6.764  0.8199  0.3579 -0.3063
   93MOL     N413068   4.594   5.014   6.676  0.1946  0.0993 -0.5640
   93MOL     H513069   4.388   5.074   6.941 -0.0254 -0.2496  0.0054
   93MOL     H613070   4.374   5.226   6.840  2.5797  0.9158 -0.6529
   93MOL     H713071   4.618   5.124   6.966 -0.4952 -0.3362  0.1324
   93MOL     H813072   4.415   5.232   7.013 -1.2231 -0.9952  0.2072
   93MOL     C913073   4.631   5.314   6.864  0.2847  0.4135 -0.3665
   93MOL    C1013074   4.784   5.314   6.875  0.1616  0.1985  0.2601
   93MOL    C1113075   4.856   5.250   6.763 -0.4545  0.6093 -0.9130
   93MOL    N1213076   4.910   5.202   6.674 -0.4951  0.6400 -0.1933
   93MOL    H1313077   4.606   5.368   6.773 -0.7534  2.5552  1.1515
   93MOL    H1413078   4.594   5.379   6.944  0.1779  0.9961 -0.8870
   93MOL    H1513079   4.819   5.252   6.958 -0.2524 -0.2104  0.1307
   93MOL    C1613080   4.833   5.449   6.904 -0.1530  0.0719  0.7318
   93MOL    C1713081   4.828   5.487   7.059  0.1169  0.3787  0.0787
   93MOL    C1813082   4.891   5.377   7.135 -0.3038  0.4900 -0.0498
   93MOL    N1913083   4.936   5.280   7.192  0.4492 -0.6664 -0.1265
   93MOL    H2013084   4.940   5.449   6.880  0.1487  0.0318  2.0488
   93MOL    H2113085   4.787   5.527   6.844 -2.9950 -2.1668 -0.1171
   93MOL    H2213086   4.727   5.485   7.100  0.6766  1.3262  1.5289
   93MOL    C2313087   4.895   5.629   7.085  0.6006  0.0703  0.2991
   93MOL    C2413088   4.801   5.731   7.154 -0.0364 -0.4214  0.1312
   93MOL    C2513089   4.763   5.675   7.285 -0.0252 -0.5782 -0.6542
   93MOL    N2613090   4.732   5.625   7.384 -0.4506 -0.0134  0.0822
   93MOL    H2713091   4.989   5.606   7.135  0.6293 -0.0171  0.2027
   93MOL    H2813092   4.926   5.668   6.988 -1.1343  1.5238  0.2869
   93MOL    H2913093   4.710   5.759   7.099  0.7559  0.1605 -0.9000
   93MOL    C3013094   4.884   5.856   7.162  0.0592 -0.1234 -0.5630
   93MOL    C3113095   4.814   5.983   7.215  0.4180  0.2044  0.0014
   93MOL    C3213096   4.720   5.976   7.325 -0.3948  0.0146 -0.8395
   93MOL    N3313097   4.650   5.975   7.413  0.8716 -0.1904 -0.4153
   93MOL    H3413098   4.975   5.833   7.217  1.0690  0.0254 -2.1613
   93MOL    H3513099   4.920   5.889   7.065  1.1849 -0.2050 -0.1783
   93MOL    H3613100   4.748   6.030   7.143 -1.2847  0.0684  1.4429
   93MOL    C3713101   4.924   6.089   7.257  0.2955  0.1659  0.1369
   93MOL    C3813102   4.883   6.230   7.314 -0.4146  0.5897 -0.3781
   93MOL    C3913103   5.006   6.311   7.331  0.5012  0.0323  0.0986
   93MOL    N4013104   5.100   6.374   7.347 -0.3961 -0.4693  0.3123
   93MOL    H4113105   4.981   6.042   7.337  0.4966  1.0868  0.5406
   93MOL    H4213106   4.996   6.105   7.176 -0.4488  2.0049 -0.1655
   93MOL    H4313107   4.843   6.212   7.414 -0.0587 -1.3188 -0.5547
   93MOL    C4413108   4.784   6.320   7.232  0.3109 -0.1110  0.3500
   93MOL    C4513109   4.850   6.384   7.100  0.4547  0.1291  0.9252
   93MOL    C4613110   4.899   6.286   7.002  0.1824  0.0133  0.2743
   93MOL    N4713111   4.937   6.199   6.931 -0.4158 -0.4000  0.3230
   93MOL    H4813112   4.713   6.248   7.191  0.0551  0.6094 -0.4691
   93MOL    H4913113   4.729   6.389   7.295  0.1057 -0.0251  0.0773
   93MOL    H5013114   4.939   6.442   7.123  0.5401  0.5108 -0.3268
   93MOL    C5113115   4.748   6.476   7.028 -0.0469  0.2976  0.2518
   93MOL    C5213116   4.813   6.597   6.961  0.7737  0.1529 -1.3784
   93MOL    C5313117   4.935   6.577   6.883  0.0405 -0.5350  0.0678
   93MOL    N5413118   5.034   6.560   6.824 -0.0073  0.2574 -0.1684
   93MOL    H5513119   4.698   6.425   6.947  0.5273 -0.9135  0.6536
   93MOL    H5613120   4.671   6.518   7.092  1.8791  1.7626  1.6978
   93MOL    H5713121   4.851   6.667   7.036  1.5180 -1.6354 -0.0545
   93MOL    C5813122   4.717   6.676   6.874 -0.6749 -0.3138 -0.7145
   93MOL    C5913123   4.770   6.820   6.838 -0.3471  0.1191  0.5313
   93MOL    C6013124   4.855   6.883   6.939 -0.4706  0.2843 -0.3740
   93MOL    N6113125   4.922   6.928   7.021  0.5169 -0.4085 -0.3135
   93MOL    H6213126   4.700   6.615   6.785  1.5996  0.5923 -1.7855
   93MOL    H6313127   4.620   6.685   6.924 -0.2748  1.2855 -0.2064
   93MOL    H6413128   4.677   6.876   6.848 -0.5565 -0.1722  0.2195
   93MOL    C6513129   4.836   6.826   6.696 -0.7133 -0.3638 -0.4398
   93MOL    C6613130   4.865   6.966   6.634  0.2525 -0.2595 -0.2616
   93MOL    C6713131   4.741   7.043   6.623  0.4303 -0.3117  0.6977
   93MOL    N6813132   4.639   7.109   6.610 -0.4935  0.5184 -0.3857
   93MOL    H6913133   4.933   6.776   6.692 -0.5637  0.0163 -1.7840
   93MOL    H7013134   4.765   6.777   6.629  0.6740 -2.6588 -0.3137
   93MOL    H7113135   4.911   6.950   6.536 -0.8747 -0.3856 -0.7921
   93MOL    C7213136   4.976   7.046   6.704 -0.0202 -1.0118 -0.4942
   93MOL    C7313137   5.079   7.117   6.612 -0.5373  0.1683  0.4852
   93MOL    C7413138   5.008   7.206   6.518  0.0201  0.1766 -0.1942
   93MOL    N7513139   4.952   7.272   6.442 -0.1353 -0.3742  0.1428
   93MOL    H7613140   4.926   7.117   6.771  1.1151 -2.4526  1.9340
   93MOL    H7713141   5.036   6.980   6.766  0.1121  0.4468  0.9897
   93MOL    H7813142   5.142   7.044   6.562  0.3662  0.2715  1.4384
   93MOL    C7913143   5.174   7.207   6.690  0.7558 -0.1474  0.4277
   93MOL    C8013144   5.233   7.136   6.818 -1.4486 -0.2503 -0.6695
   93MOL    C8113145   5.309   7.013   6.784  0.0434  0.1707  0.3859
   93MOL    N8213146   5.370   6.919   6.757  0.4435 -0.1881  0.5248
   93MOL    H8313147   5.256   7.232   6.623  1.6977 -2.1060  0.7842
   93MOL    H8413148   5.129   7.300   6.723  1.4830  1.0470 -1.8859
   93MOL    H8513149   5.158   7.104   6.890 -0.5341  0.3299  0.5634
   93MOL    C8613150   5.318   7.236   6.893 -0.1041 -0.4469 -0.5274
   93MOL    C8713151   5.379   7.191   7.024 -0.3582  0.1292 -0.4393
   93MOL    C8813152   5.493   7.278   7.035  0.2837 -0.0922  0.1617
   93MOL    N8913153   5.583   7.347   7.048 -0.1706 -0.1051 -0.3323
   93MOL    H9013154   5.397   7.277   6.830  0.8267 -2.2496 -0.5711
   93MOL    H9113155   5.255   7.323   6.911 -0.3833 -0.6590 -0.4751
   93MOL    H9213156   5.435   7.099   7.011  1.2246  0.9799  0.1807
   93MOL    C9313157   5.280   7.205   7.146  0.0552  0.5824  1.1849
   93MOL    C9413158   5.313   7.119   7.266 -0.5739 -0.3523 -0.0400
   93MOL    C9513159   5.318   6.975   7.221  1.3259  0.2538  0.3000
   93MOL    N9613160   5.313   6.870   7.190 -0.6999 -0.3054  0.3026
   93MOL    H9713161   5.284   7.307   7.184  1.3789  1.3081 -0.8293
   93MOL    H9813162   5.182   7.176   7.109  0.8225 -0.5250 -0.0756
   93MOL    H9913163   5.228   7.112   7.333 -0.6090  0.4132 -0.0089
   93MOL   C10013164   5.444   7.164   7.340  0.8652  0.8894  0.4422
   93MOL   C10113165   5.502   7.079   7.457  0.3592  0.0776 -0.5335
   93MOL   C10213166   5.388   7.007   7.520 -0.3147  0.2314  0.5079
   93MOL   N10313167   5.303   6.948   7.572 -0.1327 -0.0167  0.2125
   93MOL   H10413168   5.526   7.177   7.270  1.7000  0.5428  1.3384
   93MOL   H10513169   5.424   7.262   7.384 -0.6050  0.6124  0.4399
   93MOL   H10613170   5.525   7.154   7.532  1.1204  0.7401 -1.4045
   93MOL   C10713171   5.620   6.990   7.417  0.0362 -0.1229 -0.3407
   93MOL   C10813172   5.685   6.923   7.549  0.1235  0.5179 -0.3085
   93MOL   C10913173   5.597   6.818   7.603 -0.6618 -0.0579 -0.4166
   93MOL   N11013174   5.527   6.732   7.644  0.0030  0.1731  0.0232
   93MOL   H11113175   5.584   6.913   7.350 -0.6001 -1.7520  1.8089
   93MOL   H11213176   5.702   7.046   7.373  0.3718  0.9197  1.5595
   93MOL   H11313177   5.692   7.000   7.626  1.2215 -0.6785  0.8218
   93MOL   C11413178   5.829   6.873   7.521 -0.0390  0.3668  0.3299
   93MOL   C11513179   5.886   6.791   7.635  0.2899  0.5062  0.0011
   93MOL   C11613180   5.832   6.657   7.659  0.4654 -0.3592 -0.4637
   93MOL   N11713181   5.781   6.555   7.683  0.3406 -0.3924 -0.4024
   93MOL   H11813182   5.837   6.822   7.425  1.9576 -0.3057  0.8419
   93MOL   H11913183   5.892   6.961   7.508  0.3939 -0.0592 -0.4622
   93MOL   H12013184   5.860   6.846   7.726  1.6173  1.2344 -0.0467
   93MOL   C12113185   6.035   6.779   7.624  0.7843  0.2405  0.3318
   93MOL   C12213186   6.117   6.908   7.649 -0.3464  0.0572 -0.3592
   93MOL   C12313187   6.093   6.984   7.773  0.5174  0.4934 -0.4230
   93MOL   N12413188   6.076   7.039   7.873 -0.6761  0.6477 -0.4048
   93MOL   H12513189   6.073   6.700   7.688  1.7541  1.8742  1.8113
   93MOL   H12613190   6.039   6.751   7.519 -0.2301  1.2250  0.0160
   93MOL   H12713191   6.082   6.977   7.572  0.4409  3.2520  2.0307
   93MOL   C12813192   6.264   6.876   7.639 -0.2731 -0.2568  0.3179
   93MOL   C12913193   6.358   7.000   7.634 -0.8522  0.6792  0.5028
   93MOL   C13013194   6.486   6.973   7.699 -0.0823  0.3552  0.6468
   93MOL   N13113195   6.589   6.955   7.751 -0.3049 -0.2757 -0.2348
   93MOL   H13213196   6.295   6.818   7.726 -0.6517  0.5067  0.9589
   93MOL   H13313197   6.272   6.810   7.552 -0.9917 -0.0099  0.0622
   93MOL   H13413198   6.315   7.082   7.691  0.8567  0.2799  2.4164
   93MOL   C13513199   6.374   7.050   7.491 -0.5638  0.0439 -0.0792
   93MOL   C13613200   6.446   7.184   7.493  0.1663 -0.1200  0.5286
   93MOL   C13713201   6.434   7.249   7.366  0.9608  0.1222 -0.0685
   93MOL   N13813202   6.421   7.303   7.264  0.0612 -0.5091  0.1763
   93MOL   H13913203   6.431   6.980   7.430  2.2853  0.4913  1.9508
   93MOL   H14013204   6.278   7.065   7.442  0.2602 -0.3323 -1.8391
   93MOL   H14113205   6.552   7.178   7.517  0.3221  1.4148  0.2550
   93MOL   H14213206   6.394   7.255   7.557  1.0246  1.5918 -0.6147
   94MOL     C113207   0.635   1.568   2.480  0.0003 -0.0501 -0.1828
   94MOL     C213208   0.606   1.558   2.330 -0.3327  0.5267  0.2253
   94MOL     C313209   0.721   1.506   2.257 -0.0723 -0.6892  0.5906
   94MOL     N413210   0.805   1.469   2.194 -0.0749 -0.4331 -0.1922
   94MOL     H513211   0.668   1.466   2.500 -0.0312  0.0584  0.4451
   94MOL     H613212   0.554   1.606   2.542 -1.0194 -0.8728 -1.0044
   94MOL     H713213   0.586   1.655   2.285 -1.7969 -0.0359 -0.3574
   94MOL     H813214   0.721   1.634   2.495  0.4352 -1.2712  3.0698
   94MOL     C913215   0.488   1.463   2.300 -0.8771  0.6228 -0.9899
   94MOL    C1013216   0.525   1.315   2.262 -0.1778 -0.5556 -0.1619
   94MOL    C1113217   0.616   1.248   2.357 -0.0070 -0.1173 -0.1414
   94MOL    N1213218   0.694   1.195   2.432  0.0454  0.4593 -0.6527
   94MOL    H1313219   0.422   1.453   2.387  1.5897 -2.8133  0.6071
   94MOL    H1413220   0.436   1.504   2.214 -2.3142  0.6070 -0.1560
   94MOL    H1513221   0.576   1.305   2.166 -0.4797 -1.9775 -0.1823
   94MOL    C1613222   0.402   1.227   2.248  0.1097 -0.3256 -0.0101
   94MOL    C1713223   0.298   1.291   2.152  0.1217 -0.5066 -0.3407
   94MOL    C1813224   0.363   1.320   2.022 -0.6772 -0.1782 -0.5632
   94MOL    N1913225   0.412   1.338   1.922 -0.2024  0.2717 -0.0455
   94MOL    H2013226   0.431   1.131   2.204  0.6134 -0.3143  0.2937
   94MOL    H2113227   0.360   1.204   2.346  0.4658 -1.7773 -0.1921
   94MOL    H2213228   0.267   1.378   2.210 -2.9906 -0.4038 -2.0531
   94MOL    C2313229   0.177   1.194   2.136 -0.4118 -0.0663  0.6864
   94MOL    C2413230   0.069   1.262   2.057 -0.1622 -1.0693  0.4703
   94MOL    C2513231   8.259   1.188   2.040  0.2101  0.5836 -0.8768
   94MOL    N2613232   8.161   1.125   2.014  0.1075  0.0070  0.0073
   94MOL    H2713233   0.199   1.100   2.086  0.7196  0.0089  1.0233
   94MOL    H2813234   0.144   1.163   2.235 -0.9036  0.9308  0.8394
   94MOL    H2913235   0.099   1.275   1.953 -0.1348  1.9742  0.8368
   94MOL    C3013236   0.042   1.410   2.105 -0.3922 -0.4751 -0.7591
   94MOL    C3113237   8.238   1.472   2.032  0.1269  0.0428 -0.0406
   94MOL    C3213238   8.214   1.603   2.092 -0.4088 -0.2440 -0.3145
   94MOL    N3313239   8.190   1.710   2.134 -0.7265 -1.2692  0.2014
   94MOL    H3413240   0.023   1.417   2.212  0.2578  0.7910 -0.7234
   94MOL    H3513241   0.122   1.482   2.092  0.3581 -1.2110 -0.2484
   94MOL    H3613242   8.143   1.423   2.052 -0.1855  0.9196  0.7364
   94MOL    C3713243   8.265   1.483   1.876 -0.7050  0.3283 -0.5265
   94MOL    C3813244   8.151   1.552   1.797  0.1480 -0.6991 -0.2291
   94MOL    C3913245   8.196   1.658   1.709 -0.8645  0.4611 -0.2734
   94MOL    N4013246   8.232   1.742   1.639  0.3685 -0.1950 -0.0848
   94MOL    H4113247   0.052   1.529   1.870 -0.0625 -0.5380  2.4684
   94MOL    H4213248   8.271   1.383   1.833  1.1416  0.7330 -1.2591
   94MOL    H4313249   8.094   1.619   1.861  1.9311 -1.4844  2.2649
   94MOL    C4413250   8.049   1.458   1.722 -0.3937  0.0961  0.2768
   94MOL    C4513251   7.996   1.340   1.796  0.3343 -0.4750  0.0029
   94MOL    C4613252   7.934   1.387   1.918 -0.3646  0.3059  0.5555
   94MOL    N4713253   7.886   1.425   2.010 -0.3949  0.5379 -0.0987
   94MOL    H4813254   7.965   1.520   1.690  0.2018  0.6016 -0.2919
   94MOL    H4913255   8.096   1.427   1.629 -3.0605  0.0448 -1.0972
   94MOL    H5013256   8.076   1.269   1.816  0.9707  0.0110 -0.8109
   94MOL    C5113257   7.897   1.260   1.714 -0.5252  0.0019 -0.4453
   94MOL    C5213258   7.842   1.135   1.784 -0.1006  0.0349 -0.2305
   94MOL    C5313259   7.697   1.124   1.764  0.5462 -0.1608  0.0277
   94MOL    N5413260   7.586   1.117   1.745 -0.1286  0.2413 -0.6284
   94MOL    H5513261   7.819   1.332   1.688 -0.9519 -0.9198 -1.7418
   94MOL    H5613262   7.939   1.247   1.615 -0.5245  0.4398 -0.5042
   94MOL    H5713263   7.847   1.123   1.893  0.7262 -2.1152 -0.4770
   94MOL    C5813264   7.922   1.007   1.738 -0.0193  0.1606  0.8037
   94MOL    C5913265   7.845   0.877   1.756 -0.2800  0.4029 -0.2737
   94MOL    C6013266   7.886   0.782   1.651 -0.1470  0.4600 -0.6766
   94MOL    N6113267   7.916   0.709   1.567  0.5192  0.1693  0.2002
   94MOL    H6213268   7.953   1.027   1.635  1.6235 -0.2630  1.2065
   94MOL    H6313269   8.021   0.993   1.780  0.3567 -0.3224 -0.2167
   94MOL    H6413270   7.740   0.903   1.742  0.1257  3.1139  1.4385
   94MOL    C6513271   7.847   0.812   1.901 -0.2689 -0.7413 -0.1240
   94MOL    C6613272   7.742   0.702   1.934 -0.3033  0.5443 -0.7791
   94MOL    C6713273   7.615   0.756   1.977  0.0046 -0.2550  0.2683
   94MOL    N6813274   7.510   0.789   2.011  0.7711 -0.3270  0.0084
   94MOL    H6913275   7.946   0.772   1.922 -0.8453 -1.1718  1.8408
   94MOL    H7013276   7.831   0.883   1.982  0.7630 -2.2043  1.3890
   94MOL    H7113277   7.789   0.648   2.016  2.0565  3.6843  0.0498
   94MOL    C7213278   7.724   0.595   1.824  0.0463  0.0977  0.4532
   94MOL    C7313279   7.838   0.490   1.810  0.2081 -0.2778  0.4620
   94MOL    C7413280   7.853   0.405   1.929  0.1436  1.3136  0.3015
   94MOL    N7513281   7.866   0.341   2.023 -0.3655 -0.2515 -0.3601
   94MOL    H7613282   7.634   0.542   1.854  0.2709  0.3155  1.5591
   94MOL    H7713283   7.707   0.630   1.722  0.3523  1.4585  0.8505
   94MOL    H7813284   7.925   0.555   1.811 -0.5457  0.7596 -0.4117
   94MOL    C7913285   7.825   0.406   1.686  0.6010  0.0006 -0.5290
   94MOL    C8013286   7.952   0.335   1.635  0.1598 -0.2280 -0.1130
   94MOL    C8113287   8.066   0.431   1.611  0.9683  0.3047 -0.4914
   94MOL    N8213288   8.149   0.502   1.591 -0.4795  0.1637 -0.1783
   94MOL    H8313289   7.745   0.333   1.688 -0.2452  0.8770 -1.7787
   94MOL    H8413290   7.788   0.469   1.605 -0.8911  0.3250  0.3819
   94MOL    H8513291   7.930   0.297   1.536  1.4943 -1.8989  0.2058
   94MOL    C8613292   8.000   0.211   1.713  0.4886 -0.0394  0.3807
   94MOL    C8713293   8.135   0.151   1.665 -0.2957  0.1835 -0.1618
   94MOL    C8813294   8.184   0.054   1.768 -0.1719  0.2088 -0.3379
   94MOL    N8913295   8.218   8.289   1.853 -0.2917 -0.0588  0.2824
   94MOL    H9013296   8.000   0.241   1.817 -1.1478  1.4846 -0.0289
   94MOL    H9113297   7.924   0.134   1.720  1.5933 -1.2055 -0.2253
   94MOL    H9213298   8.212   0.226   1.651  1.0771 -0.6756  2.6087
   94MOL    C9313299   8.104   0.085   1.524 -0.1305  0.0311 -0.1041
   94MOL    C9413300   8.219   0.009   1.461  0.4199 -0.0008 -0.5007
   94MOL    C9513301   8.175   8.271   1.331 -0.3949 -0.7758 -1.0942
   94MOL    N9613302   8.140   8.240   1.231 -0.7932  0.5806  0.7755
   94MOL    H9713303   8.027   0.012   1.550 -0.1813  0.5540  1.2564
   94MOL    H9813304   8.052   0.153   1.457  0.9759  1.4573  0.4548
   94MOL    H9913305   8.240   8.235   1.524  0.6778 -0.7474 -1.5841
   94MOL   C10013306   0.044   0.079   1.451  0.0455  0.1915 -0.9928
   94MOL   C10113307   0.165   0.007   1.406 -0.4324  0.1314 -0.4133
   94MOL   C10213308   0.280   0.091   1.371  0.0218 -0.1738 -0.0101
   94MOL   N10313309   0.372   0.152   1.340  0.6110  0.0875  0.2937
   94MOL   H10413310   0.035   0.172   1.395 -3.4216  0.1824 -0.5666
   94MOL   H10513311   0.079   0.110   1.550 -0.2945 -0.2968 -0.7182
   94MOL   H10613312   0.139   8.303   1.301  0.7168  1.2585 -0.8862
   94MOL   C10713313   0.197   8.188   1.477  0.1343 -0.1665 -0.1243
   94MOL   C10813314   0.337   8.124   1.461 -0.1891 -0.1348 -0.3768
   94MOL   C10913315   0.441   8.199   1.535  0.4228 -0.1150  0.3564
   94MOL   N11013316   0.527   8.259   1.587  0.1777  0.6359  0.4675
   94MOL   H11113317   0.175   8.210   1.581 -0.0887 -0.6035 -0.0793
   94MOL   H11213318   0.119   8.116   1.453  0.2029  0.9293 -3.9448
   94MOL   H11313319   0.359   8.127   1.355  1.3758 -0.8174 -0.0816
   94MOL   C11413320   0.338   7.977   1.514 -0.0095 -0.4230  0.8349
   94MOL   C11513321   0.279   7.877   1.407 -0.3105  0.3847  0.1785
   94MOL   C11613322   0.366   7.867   1.285  0.1053  0.0052  0.5642
   94MOL   N11713323   0.437   7.860   1.192 -0.2816 -0.2933  0.3127
   94MOL   H11813324   0.444   7.953   1.527  0.2499  1.4537  2.3309
   94MOL   H11913325   0.303   7.985   1.617 -2.7613  1.6053 -0.2170
   94MOL   H12013326   0.188   7.917   1.363 -0.6414  0.6758  1.1107
   94MOL   C12113327   0.255   7.737   1.467  0.6091 -0.1205  0.1375
   94MOL   C12213328   0.137   7.718   1.554 -1.1470  0.4507 -0.0147
   94MOL   C12313329   0.011   7.759   1.496 -0.0608 -0.2480  0.4757
   94MOL   N12413330   8.214   7.788   1.452 -0.4278  0.2944 -0.5659
   94MOL   H12513331   0.240   7.659   1.392 -0.2714  0.6076 -0.4679
   94MOL   H12613332   0.344   7.699   1.517 -0.2188  0.4598  2.1058
   94MOL   H12713333   0.135   7.793   1.634 -0.2071  1.0006 -0.5035
   94MOL   C12813334   0.136   7.580   1.627  0.3460  0.2300 -0.1745
   94MOL   C12913335   0.184   7.574   1.773  0.0474 -0.8301 -0.1748
   94MOL   C13013336   0.102   7.663   1.857  0.0247  0.8581  0.4853
   94MOL   N13113337   0.034   7.734   1.921  0.2666 -0.2765 -0.2182
   94MOL   H13213338   0.030   7.554   1.622 -0.0083  1.4718  0.6676
   94MOL   H13313339   0.183   7.506   1.563 -3.2006 -1.7120 -0.6753
   94MOL   H13413340   0.282   7.619   1.761 -0.4667 -0.1214 -1.9533
   94MOL   C13513341   0.195   7.435   1.823 -0.2091 -0.5897  0.4830
   94MOL   C13613342   0.278   7.443   1.952  0.3818 -0.3663  0.2381
   94MOL   C13713343   0.306   7.316   2.012 -0.1028  0.0180 -0.1796
   94MOL   N13813344   0.330   7.214   2.056  0.2143 -0.1834  0.1596
   94MOL   H13913345   0.093   7.402   1.842 -0.6438  0.7323  0.4425
   94MOL   H14013346   0.242   7.385   1.738 -0.4455  0.6489 -0.3756
   94MOL   H14113347   0.215   7.492   2.026  1.4614  0.4233  0.6458
   94MOL   H14213348   0.364   7.510   1.943  0.4520 -0.6019 -1.0402
   95MOL     C113349   5.762   0.764   7.164 -0.5647  0.1091 -0.6036
   95MOL     C213350   5.760   0.914   7.190  0.4630  0.1683 -0.7803
   95MOL     C313351   5.627   0.966   7.145 -0.5546  0.0884  0.6554
   95MOL     N413352   5.523   1.008   7.116 -0.7454 -0.7038 -0.1077
   95MOL     H513353   5.759   0.729   7.061  2.1928 -0.0738 -0.6533
   95MOL     H613354   5.682   0.714   7.219 -1.6458  0.9217 -1.4272
   95MOL     H713355   5.830   0.953   7.116  0.6412 -1.1928 -1.3510
   95MOL     H813356   5.858   0.720   7.191 -1.0368  0.7173  2.2870
   95MOL     C913357   5.789   0.960   7.334  0.0945  0.3177 -1.0326
   95MOL    C1013358   5.779   1.111   7.355  0.4163  0.3474  0.3765
   95MOL    C1113359   5.782   1.140   7.503 -0.2782  0.6174  0.8159
   95MOL    N1213360   5.797   1.164   7.619  0.2643 -1.1984  0.1152
   95MOL    H1313361   5.726   0.914   7.411  2.6209 -1.1276  0.2510
   95MOL    H1413362   5.891   0.935   7.366 -0.4336  1.8929  2.1694
   95MOL    H1513363   5.677   1.141   7.329  0.1632 -1.0324 -0.2577
   95MOL    C1613364   5.888   1.188   7.274 -0.6911  0.1944 -0.5815
   95MOL    C1713365   6.008   1.240   7.360  0.1776  0.4417  0.0501
   95MOL    C1813366   6.078   1.124   7.412 -0.2275  1.3583 -0.1989
   95MOL    N1913367   6.134   1.033   7.463 -0.3877 -0.2550 -0.0038
   95MOL    H2013368   5.917   1.129   7.187 -0.3368 -0.4663 -0.0303
   95MOL    H2113369   5.836   1.269   7.223 -1.9456 -0.6964 -0.7451
   95MOL    H2213370   5.968   1.290   7.448  1.6754 -1.9473  2.1486
   95MOL    C2313371   6.095   1.336   7.289 -0.5978 -0.0441  0.0828
   95MOL    C2413372   6.170   1.431   7.386  0.1053  0.1029 -0.0721
   95MOL    C2513373   6.267   1.358   7.472 -0.3713 -0.5002  0.1621
   95MOL    N2613374   6.353   1.316   7.537  0.0632 -0.9180  0.0010
   95MOL    H2713375   6.169   1.295   7.221  0.4865 -0.1661  1.3166
   95MOL    H2813376   6.024   1.387   7.223 -0.9303 -0.7543 -0.1085
   95MOL    H2913377   6.097   1.471   7.457 -0.8283  1.0230 -1.5383
   95MOL    C3013378   6.234   1.541   7.305 -0.3817 -0.1709  0.1927
   95MOL    C3113379   6.303   1.651   7.391 -0.1105  0.3079  0.2240
   95MOL    C3213380   6.255   1.662   7.532  0.3949 -0.1027 -0.3676
   95MOL    N3313381   6.214   1.667   7.639  0.8558  0.2163  0.7630
   95MOL    H3413382   6.296   1.515   7.219 -0.1771 -0.6776  0.4885
   95MOL    H3513383   6.152   1.592   7.255 -0.1591  0.6789  0.6928
   95MOL    H3613384   6.289   1.748   7.343  0.4637 -0.5663 -1.7590
   95MOL    C3713385   6.452   1.633   7.388 -0.6268  0.6254 -0.8337
   95MOL    C3813386   6.524   1.659   7.253  0.4253 -1.0049  0.0349
   95MOL    C3913387   6.505   1.793   7.202 -0.3042  0.1580 -0.4695
   95MOL    N4013388   6.495   1.899   7.159 -0.2748 -0.4341  0.0656
   95MOL    H4113389   6.500   1.697   7.463 -0.3673  0.4267 -0.8296
   95MOL    H4213390   6.478   1.529   7.412 -1.6747  0.2455 -1.3052
   95MOL    H4313391   6.469   1.590   7.189 -0.1566  0.9506 -1.6159
   95MOL    C4413392   6.672   1.620   7.268 -0.3370  0.3737  1.0768
   95MOL    C4513393   6.760   1.646   7.141 -0.4561 -0.4778 -0.2951
   95MOL    C4613394   6.828   1.781   7.153 -0.8790  0.8056 -0.0272
   95MOL    N4713395   6.881   1.884   7.150  0.1868 -0.0684  0.1044
   95MOL    H4813396   6.708   1.670   7.357 -1.2484  2.0031  0.5639
   95MOL    H4913397   6.679   1.512   7.285 -0.8282  0.7934  4.1317
   95MOL    H5013398   6.690   1.679   7.064 -0.2084  0.4263 -0.1431
   95MOL    C5113399   6.857   1.529   7.101  0.2493  0.5333 -0.2391
   95MOL    C5213400   6.951   1.560   6.978 -0.2420  0.0727  0.4614
   95MOL    C5313401   6.889   1.671   6.901 -0.1816  0.0593 -0.0491
   95MOL    N5413402   6.844   1.762   6.846  0.0150  0.6013 -0.2440
   95MOL    H5513403   6.922   1.501   7.183  1.7716 -0.2599 -1.6805
   95MOL    H5613404   6.804   1.437   7.073 -2.1356  1.7093  0.2373
   95MOL    H5713405   6.944   1.476   6.909  0.4540  1.7069 -1.6730
   95MOL    C5813406   7.093   1.580   7.021 -0.4086 -0.3413  0.5872
   95MOL    C5913407   7.198   1.563   6.912 -0.4484 -0.2293  1.1285
   95MOL    C6013408   7.189   1.651   6.796  0.2290 -0.1875 -0.6481
   95MOL    N6113409   7.184   1.719   6.708 -0.0723 -0.3825 -0.0494
   95MOL    H6213410   7.101   1.677   7.070  1.1473 -0.9137  1.5186
   95MOL    H6313411   7.123   1.508   7.098  1.9157 -0.1241 -0.0603
   95MOL    H6413412   7.174   1.468   6.864 -0.0237  0.9611 -1.5503
   95MOL    C6513413   7.338   1.545   6.960 -0.0236  0.1634 -0.1672
   95MOL    C6613414   7.389   1.665   7.041  1.1536 -0.0042  0.2266
   95MOL    C6713415   7.346   1.657   7.181 -0.8045 -0.1922 -0.0400
   95MOL    N6813416   7.315   1.649   7.292 -0.0074 -0.6185 -0.2707
   95MOL    H6913417   7.350   1.462   7.029  2.4034 -0.2771 -1.0378
   95MOL    H7013418   7.404   1.531   6.874  0.1258  1.4625 -0.2821
   95MOL    H7113419   7.349   1.754   6.992 -0.8757 -1.6671 -1.2656
   95MOL    C7213420   7.536   1.676   7.046 -0.3179  0.3992 -0.3436
   95MOL    C7313421   7.591   1.796   7.134  0.2639 -0.3384  0.1261
   95MOL    C7413422   7.692   1.749   7.225  0.0557 -0.5885  0.6753
   95MOL    N7513423   7.770   1.713   7.303  0.2556  0.5289 -0.2802
   95MOL    H7613424   7.577   1.587   7.094 -2.1122 -1.0181 -1.3772
   95MOL    H7713425   7.579   1.681   6.945  2.2080 -0.7225  0.6318
   95MOL    H7813426   7.519   1.830   7.207 -0.6160 -0.2174 -0.7880
   95MOL    C7913427   7.635   1.916   7.046 -0.2780 -0.4848 -0.0052
   95MOL    C8013428   7.626   2.053   7.120 -0.0273  0.3105  0.0921
   95MOL    C8113429   7.709   2.050   7.242 -0.3134  0.4150 -0.4849
   95MOL    N8213430   7.770   2.043   7.343 -0.2297 -0.5027 -0.4922
   95MOL    H8313431   7.736   1.895   7.011 -0.4105  2.1818 -2.1729
   95MOL    H8413432   7.578   1.919   6.953 -2.0341 -0.3857  1.0351
   95MOL    H8513433   7.522   2.058   7.152  0.0935 -1.2910  0.8131
   95MOL    C8613434   7.653   2.178   7.036 -0.8134  0.0457  0.4719
   95MOL    C8713435   7.591   2.301   7.108 -0.7589 -0.1304  0.2534
   95MOL    C8813436   7.608   2.310   7.258 -0.5230  0.0865  0.7290
   95MOL    N8913437   7.613   2.329   7.370  0.2764 -0.7188  0.0503
   95MOL    H9013438   7.762   2.179   7.032 -0.8822  1.4730 -1.3130
   95MOL    H9113439   7.611   2.180   6.936 -1.9748  1.7555  0.9692
   95MOL    H9213440   7.483   2.285   7.096 -0.8263  1.1874 -0.9625
   95MOL    C9313441   7.622   2.440   7.048 -0.3787  0.1844 -0.0923
   95MOL    C9413442   7.604   2.459   6.900  0.1386  0.1374  0.1219
   95MOL    C9513443   7.477   2.410   6.855  0.1135  0.2019 -0.4068
   95MOL    N9613444   7.370   2.373   6.816 -0.0243 -0.2612 -0.3064
   95MOL    H9713445   7.557   2.509   7.101  0.8871 -0.0299  1.7846
   95MOL    H9813446   7.724   2.459   7.082  0.5100 -2.4202 -1.1870
   95MOL    H9913447   7.683   2.399   6.856  0.8810  1.0167  0.2343
   95MOL   C10013448   7.631   2.611   6.866  0.1897  0.4043 -0.0909
   95MOL   C10113449   7.514   2.712   6.849 -0.3274 -0.0257 -0.2109
   95MOL   C10213450   7.447   2.712   6.983 -0.1862  0.2224 -0.3489
   95MOL   N10313451   7.382   2.719   7.082 -0.0830  0.4361 -0.3046
   95MOL   H10413452   7.710   2.646   6.933  0.2264 -0.4490  0.3148
   95MOL   H10513453   7.678   2.615   6.768 -0.1280  0.9033 -0.2218
   95MOL   H10613454   7.444   2.687   6.769  0.2513 -1.1248 -0.3893
   95MOL   C10713455   7.564   2.854   6.834 -0.1467 -0.1690 -0.4508
   95MOL   C10813456   7.640   2.896   6.707  0.1769  0.1906 -0.3609
   95MOL   C10913457   7.586   2.846   6.583  0.4808 -0.6631 -0.3510
   95MOL   N11013458   7.538   2.806   6.486  0.8309  0.3963 -0.4561
   95MOL   H11113459   7.486   2.925   6.863  0.4980  0.4801 -0.2877
   95MOL   H11213460   7.636   2.868   6.915  0.2151 -0.7375 -0.6700
   95MOL   H11313461   7.732   2.840   6.721 -0.1875 -0.4195 -0.3678
   95MOL   C11413462   7.660   3.050   6.703 -0.6853  0.4354  0.2513
   95MOL   C11513463   7.795   3.105   6.648  0.5736  0.4555 -0.0916
   95MOL   C11613464   7.778   3.221   6.555 -0.6563 -0.1510  0.1526
   95MOL   N11713465   7.756   3.316   6.488 -0.4176 -0.7556 -0.1483
   95MOL   H11813466   7.576   3.087   6.643 -1.8631 -2.2682  0.1953
   95MOL   H11913467   7.638   3.083   6.804 -2.8505  1.8948 -0.6549
   95MOL   H12013468   7.830   3.029   6.579  0.2328 -0.5130  0.7881
   95MOL   C12113469   7.901   3.122   6.763  0.2020  0.2227 -0.6292
   95MOL   C12213470   8.039   3.182   6.750  0.2432 -0.0801 -0.1202
   95MOL   C12313471   8.042   3.301   6.665 -0.6643  0.4634 -0.4997
   95MOL   N12413472   8.054   3.394   6.596  0.3616 -0.0252  0.3912
   95MOL   H12513473   7.849   3.182   6.837  3.0702 -0.1124  1.7512
   95MOL   H12613474   7.912   3.018   6.795  0.4718 -0.3317 -2.4654
   95MOL   H12713475   8.099   3.107   6.699 -0.2488 -0.7817  0.3325
   95MOL   C12813476   8.098   3.218   6.889  0.3873  0.2576 -0.2935
   95MOL   C12913477   8.249   3.241   6.894 -0.0155 -0.1588 -0.6297
   95MOL   C13013478   8.288   3.291   7.032  0.4284  0.5750 -0.2861
   95MOL   N13113479   0.003   3.327   7.137 -0.3469 -0.1921  0.2608
   95MOL   H13213480   8.054   3.310   6.927  0.1141 -0.2519  0.6159
   95MOL   H13313481   8.080   3.144   6.967  2.0129  1.6684  1.4597
   95MOL   H13413482   8.272   3.327   6.831 -1.9739  1.0005  0.2016
   95MOL   C13513483   0.009   3.116   6.839 -0.3611  0.0790  0.8297
   95MOL   C13613484   0.161   3.119   6.849 -0.3351  0.1136 -0.0757
   95MOL   C13713485   0.208   3.001   6.779 -0.3535 -0.0028 -0.0776
   95MOL   N13813486   0.238   2.901   6.729 -0.3861  0.1645  0.0230
   95MOL   H13913487   8.296   3.024   6.893  0.5442  0.3659  1.7587
   95MOL   H14013488   8.300   3.102   6.733  0.3940 -0.3811  0.7366
   95MOL   H14113489   0.201   3.111   6.950  2.3351 -0.3074 -1.1350
   95MOL   H14213490   0.206   3.209   6.806 -1.3184 -0.6671 -2.7936
   96MOL     C113491   3.412   7.727   4.467 -0.3680 -0.0879  0.2879
   96MOL     C213492   3.282   7.646   4.451 -0.0425 -0.2914  0.5047
   96MOL     C313493   3.170   7.732   4.471  0.4219  0.0292  0.2981
   96MOL     N413494   3.079   7.801   4.484 -0.0664  0.0581 -0.1278
   96MOL     H513495   3.496   7.682   4.412  0.4207  1.5734  0.1100
   96MOL     H613496   3.435   7.741   4.572 -0.3725 -0.0647  0.2855
   96MOL     H713497   3.261   7.587   4.540  1.4513  0.2678  1.2538
   96MOL     H813498   3.386   7.826   4.430  1.7925  1.0652  1.7778
   96MOL     C913499   3.287   7.548   4.326  0.1356  0.2195 -0.8846
   96MOL    C1013500   3.158   7.494   4.269 -0.5402 -0.1781  0.2463
   96MOL    C1113501   3.079   7.601   4.193  0.9360 -0.0500 -0.3837
   96MOL    N1213502   3.017   7.682   4.134 -0.7906  0.5633 -0.0024
   96MOL    H1313503   3.353   7.595   4.253  1.9612 -1.2012 -0.1742
   96MOL    H1413504   3.335   7.458   4.363  0.9973  0.9633 -0.1612
   96MOL    H1513505   3.095   7.450   4.346  1.1612 -1.0303  1.1759
   96MOL    C1613506   3.186   7.373   4.172 -0.7599 -0.2024 -0.3220
   96MOL    C1713507   3.061   7.291   4.123  0.0017  0.0400  0.3992
   96MOL    C1813508   3.027   7.344   3.990  0.0175  0.2712 -1.1694
   96MOL    N1913509   2.999   7.382   3.885 -0.0815 -0.6737  0.5610
   96MOL    H2013510   3.245   7.416   4.092  0.2441 -0.4298  0.2871
   96MOL    H2113511   3.250   7.313   4.237 -1.4108 -0.5818 -0.0222
   96MOL    H2213512   2.965   7.304   4.173 -0.6085  0.8284 -0.9508
   96MOL    C2313513   3.073   7.139   4.111 -0.0395 -0.2128  0.0442
   96MOL    C2413514   2.952   7.048   4.132  0.2272 -0.3338  0.5785
   96MOL    C2513515   2.834   7.115   4.070  0.5069  0.4681 -0.1041
   96MOL    N2613516   2.746   7.171   4.030  0.2406 -0.2829  0.1992
   96MOL    H2713517   3.118   7.127   4.012  0.6449  1.5465  0.1195
   96MOL    H2813518   3.143   7.106   4.188  0.4227 -1.8445 -1.0402
   96MOL    H2913519   2.933   7.043   4.240  2.0177 -0.9079  0.8823
   96MOL    C3013520   2.976   6.900   4.092 -0.6734  0.4699  0.5067
   96MOL    C3113521   2.919   6.851   3.958 -0.2889  0.1496  0.1809
   96MOL    C3213522   2.959   6.936   3.848 -0.4008 -0.0233 -0.0143
   96MOL    N3313523   2.996   7.006   3.764  0.2961  0.0715  0.2670
   96MOL    H3413524   3.082   6.876   4.086 -0.8457 -0.3690  0.8312
   96MOL    H3513525   2.931   6.836   4.168  0.7377 -0.6404  0.4238
   96MOL    H3613526   2.811   6.858   3.966 -0.4054  0.9492 -1.7356
   96MOL    C3713527   2.957   6.708   3.936  0.1332  0.2223  0.3732
   96MOL    C3813528   2.911   6.592   4.033  0.3865  0.2060 -0.1263
   96MOL    C3913529   2.787   6.628   4.109 -0.1234  0.4938 -0.1092
   96MOL    N4013530   2.694   6.647   4.170 -0.7555 -1.0300  0.1535
   96MOL    H4113531   2.926   6.683   3.834  3.2805 -3.7953  0.2602
   96MOL    H4213532   3.065   6.703   3.928 -0.0168 -0.6486 -1.4315
   96MOL    H4313533   2.986   6.583   4.113  1.0910 -0.4161 -0.8490
   96MOL    C4413534   2.890   6.463   3.947  0.1810  0.0144 -0.3942
   96MOL    C4513535   2.851   6.336   4.026 -0.4412  0.0386  0.1426
   96MOL    C4613536   2.850   6.226   3.928 -0.5116  0.1938  0.9250
   96MOL    N4713537   2.854   6.138   3.854 -0.3127  0.2141  0.1365
   96MOL    H4813538   2.800   6.484   3.890 -0.4673 -0.9749  0.2422
   96MOL    H4913539   2.975   6.448   3.881 -0.5295  0.9150 -1.5395
   96MOL    H5013540   2.747   6.341   4.055 -0.6713  1.9428 -0.9412
   96MOL    C5113541   2.955   6.317   4.137 -0.2637  0.7676  0.5672
   96MOL    C5213542   2.935   6.199   4.234  0.0596  0.2873  0.8245
   96MOL    C5313543   3.030   6.201   4.344 -0.2975  0.2560  0.8138
   96MOL    N5413544   3.108   6.204   4.426  0.3287 -0.3443 -0.1984
   96MOL    H5513545   3.054   6.309   4.094  0.2595  1.7651  1.5502
   96MOL    H5613546   2.965   6.409   4.196  0.3530  0.2731  1.2347
   96MOL    H5713547   2.959   6.109   4.177 -1.2410 -0.0406  0.7715
   96MOL    C5813548   2.793   6.176   4.286  0.5570 -0.4806  0.3130
   96MOL    C5913549   2.777   6.030   4.341  0.8556  0.7129 -0.4227
   96MOL    C6013550   2.831   6.002   4.476 -0.3538  0.2221 -0.1671
   96MOL    N6113551   2.879   5.985   4.581 -0.1829 -0.1500 -0.3392
   96MOL    H6213552   2.740   6.250   4.346 -3.2679 -0.8252 -2.4452
   96MOL    H6313553   2.728   6.174   4.199  2.9353  0.0992 -1.5400
   96MOL    H6413554   2.836   5.968   4.273  0.8372  0.4937 -0.2421
   96MOL    C6513555   2.628   5.986   4.325  0.3085  0.1084 -0.0249
   96MOL    C6613556   2.593   5.844   4.368 -0.5584  0.0575 -0.9759
   96MOL    C6713557   2.702   5.747   4.361  0.0027  0.1349 -0.4555
   96MOL    N6813558   2.791   5.675   4.359  0.6635 -0.0538 -0.2690
   96MOL    H6913559   2.564   6.061   4.373  2.4310  1.9520  0.0214
   96MOL    H7013560   2.596   5.991   4.221  2.4091  0.1210 -0.7083
   96MOL    H7113561   2.531   5.803   4.289 -0.5967 -0.7023 -0.5496
   96MOL    C7213562   2.522   5.830   4.500  0.5894  0.1981 -0.5245
   96MOL    C7313563   2.422   5.715   4.498 -0.3123 -0.0089 -0.2264
   96MOL    C7413564   2.451   5.587   4.432 -0.7868 -0.4898  0.7434
   96MOL    N7513565   2.480   5.487   4.388 -0.8749 -0.0031 -0.0851
   96MOL    H7613566   2.603   5.815   4.570  0.2201 -2.4476 -0.6373
   96MOL    H7713567   2.457   5.915   4.523 -0.6327 -1.1038  0.9956
   96MOL    H7813568   2.332   5.756   4.451 -0.3701  1.6480  1.2417
   96MOL    C7913569   2.374   5.684   4.642 -0.4601  0.3812 -0.5750
   96MOL    C8013570   2.467   5.601   4.736  0.5732  1.1594 -0.8111
   96MOL    C8113571   2.610   5.650   4.750 -0.0316  0.0266  0.0887
   96MOL    N8213572   2.723   5.678   4.761  0.0359 -0.4486 -0.3343
   96MOL    H8313573   2.358   5.779   4.693 -0.2913 -0.4152  0.9985
   96MOL    H8413574   2.284   5.623   4.631  0.5410 -0.7988 -2.5092
   96MOL    H8513575   2.470   5.506   4.683 -1.5749  1.1871 -1.0270
   96MOL    C8613576   2.401   5.578   4.877  0.3117  0.7759 -0.3040
   96MOL    C8713577   2.467   5.465   4.969  0.6635 -0.5911 -0.1835
   96MOL    C8813578   2.524   5.358   4.886  0.8505 -1.0139 -0.0733
   96MOL    N8913579   2.564   5.277   4.819 -0.1378 -0.3344  0.3755
   96MOL    H9013580   2.378   5.674   4.923 -1.0910  0.8241 -1.0761
   96MOL    H9113581   2.301   5.543   4.850  0.2529  1.3617 -0.8832
   96MOL    H9213582   2.399   5.402   5.026 -0.6205 -1.1702 -2.3046
   96MOL    C9313583   2.555   5.537   5.079 -1.4562 -0.8064  0.4095
   96MOL    C9413584   2.589   5.448   5.199 -0.6022 -0.2812 -0.3979
   96MOL    C9513585   2.638   5.316   5.162  0.3242  0.7251 -0.0731
   96MOL    N9613586   2.686   5.213   5.141  0.2275 -0.3981 -0.0848
   96MOL    H9713587   2.648   5.571   5.035 -1.4499 -0.8714  0.3721
   96MOL    H9813588   2.506   5.629   5.110 -0.3759 -0.9237  2.5637
   96MOL    H9913589   2.502   5.421   5.259  2.3592 -1.6359  3.5207
   96MOL   C10013590   2.698   5.515   5.280  0.3134 -0.0146  0.3206
   96MOL   C10113591   2.657   5.646   5.341 -0.4565 -0.3878  0.1598
   96MOL   C10213592   2.519   5.666   5.371  0.0206 -0.2886 -0.1031
   96MOL   N10313593   2.409   5.687   5.397  0.1254 -0.3504 -0.1593
   96MOL   H10413594   2.725   5.452   5.365 -2.0022 -1.2089  0.1916
   96MOL   H10513595   2.791   5.530   5.225  0.9671  1.8826  1.8604
   96MOL   H10613596   2.693   5.722   5.271 -0.6376  0.1993  0.7013
   96MOL   C10713597   2.747   5.684   5.466  0.7604 -0.3422 -0.9692
   96MOL   C10813598   2.746   5.833   5.507  0.3918 -0.1182  0.4893
   96MOL   C10913599   2.815   5.860   5.641 -1.0108  0.4792 -0.1380
   96MOL   N11013600   2.872   5.882   5.741 -0.8496  0.6187 -0.2291
   96MOL   H11113601   2.703   5.630   5.550 -0.1024  0.4571 -0.8980
   96MOL   H11213602   2.850   5.668   5.436  0.7940  2.0375 -2.2891
   96MOL   H11313603   2.644   5.865   5.530  0.2733  1.2196 -1.8046
   96MOL   C11413604   2.797   5.934   5.407  0.0389  0.1971  0.6832
   96MOL   C11513605   2.955   5.944   5.401 -0.2558  0.0776 -0.5953
   96MOL   C11613606   3.036   5.839   5.329  0.0818 -0.5603  0.4072
   96MOL   N11713607   3.102   5.758   5.273 -0.2617 -0.1702 -0.4170
   96MOL   H11813608   2.758   5.911   5.307  2.0556 -0.8093  0.1102
   96MOL   H11913609   2.751   6.025   5.445  0.9431  1.2601 -0.7158
   96MOL   H12013610   2.986   5.946   5.506  0.0869 -1.8896 -0.6396
   96MOL   C12113611   3.002   6.077   5.353 -0.7759 -0.8874 -0.2327
   96MOL   C12213612   3.155   6.108   5.379  0.4584 -0.2459  0.1700
   96MOL   C12313613   3.194   6.225   5.298  0.0194  0.3288  0.6380
   96MOL   N12413614   3.218   6.313   5.227 -0.4439 -0.2627 -0.0955
   96MOL   H12513615   2.989   6.082   5.245 -0.3640  1.6953 -0.2106
   96MOL   H12613616   2.941   6.154   5.402 -1.1642  0.4962 -2.8298
   96MOL   H12713617   3.219   6.030   5.338 -0.3403 -0.9458  0.2558
   96MOL   C12813618   3.185   6.140   5.533  0.5727  0.0147 -0.0036
   96MOL   C12913619   3.326   6.100   5.579 -0.3874  0.0361  0.1225
   96MOL   C13013620   3.430   6.193   5.535 -0.3725 -0.1269  0.5382
   96MOL   N13113621   3.517   6.265   5.501 -0.0413 -0.0591 -0.2725
   96MOL   H13213622   3.148   6.236   5.567  0.9316 -0.0908  0.6859
   96MOL   H13313623   3.121   6.068   5.585  0.4925  0.0510 -0.0525
   96MOL   H13413624   3.354   6.005   5.536 -0.5580 -0.6695  1.5279
   96MOL   C13513625   3.349   6.093   5.735  0.5648  1.2327 -0.0777
   96MOL   C13613626   3.480   6.027   5.778 -0.2072 -0.4373  0.0761
   96MOL   C13713627   3.486   5.880   5.761  0.4433 -1.2688 -0.3206
   96MOL   N13813628   3.492   5.767   5.751 -0.4621  1.1258  0.2829
   96MOL   H13913629   3.351   6.198   5.764 -2.6459  1.9188 -2.0419
   96MOL   H14013630   3.265   6.041   5.781  0.3014  1.2236 -0.5698
   96MOL   H14113631   3.494   6.046   5.884 -0.0152 -3.1063  0.5698
   96MOL   H14213632   3.566   6.068   5.724 -1.6565  0.0984 -1.8866
   97MOL     C113633   5.089   2.785   4.357  1.3474 -0.0586  0.5788
   97MOL     C213634   5.212   2.869   4.331 -1.0448  0.4660 -0.5060
   97MOL     C313635   5.182   2.996   4.264  0.4238  0.1011 -0.5623
   97MOL     N413636   5.163   3.097   4.214  0.2946 -0.0485 -0.5034
   97MOL     H513637   5.029   2.820   4.441  0.2625 -1.1029  0.2397
   97MOL     H613638   5.113   2.685   4.391  1.9940 -0.6280 -1.4801
   97MOL     H713639   5.259   2.810   4.253 -0.9810 -0.8729  0.5234
   97MOL     H813640   5.022   2.782   4.271  2.0590 -0.6793  0.0386
   97MOL     C913641   5.309   2.902   4.454 -0.7718  0.0829 -0.1392
   97MOL    C1013642   5.460   2.903   4.428  0.0042 -0.0456 -0.0329
   97MOL    C1113643   5.506   3.006   4.335 -0.0269  0.0924 -0.2315
   97MOL    N1213644   5.544   3.085   4.262  0.2180  0.1792  0.2209
   97MOL    H1313645   5.263   2.982   4.513  0.9390  0.5080  0.6473
   97MOL    H1413646   5.297   2.815   4.518 -0.0412 -1.0409 -1.5009
   97MOL    H1513647   5.486   2.815   4.370  0.1055  1.1455 -1.8637
   97MOL    C1613648   5.538   2.916   4.560  0.2015  0.3812 -0.0302
   97MOL    C1713649   5.698   2.912   4.557  0.2350 -0.4779  0.3268
   97MOL    C1813650   5.746   2.802   4.473 -0.6883  0.3220  0.0442
   97MOL    N1913651   5.795   2.721   4.405  0.1610 -0.3586 -0.3369
   97MOL    H2013652   5.516   3.011   4.609 -1.1800  0.0525  0.0082
   97MOL    H2113653   5.507   2.840   4.632  2.9602  0.3247  1.1807
   97MOL    H2213654   5.728   2.888   4.659 -1.1419 -3.5452  0.0623
   97MOL    C2313655   5.766   3.050   4.517  0.2228 -0.1125  0.0007
   97MOL    C2413656   5.918   3.052   4.541 -0.8177  0.6196 -0.0474
   97MOL    C2513657   5.979   3.121   4.428  0.0900 -0.4945 -0.3495
   97MOL    N2613658   6.027   3.171   4.336 -0.0598 -0.6296  0.3148
   97MOL    H2713659   5.743   3.067   4.412 -3.3913  0.5349  0.7981
   97MOL    H2813660   5.712   3.135   4.561 -0.3948 -0.4625 -0.0769
   97MOL    H2913661   5.952   2.949   4.530  1.0254  1.0468  1.4639
   97MOL    C3013662   5.967   3.095   4.681  0.0328 -0.3756 -0.0828
   97MOL    C3113663   5.963   3.003   4.803 -0.0075  0.0587 -0.1235
   97MOL    C3213664   5.934   2.861   4.771  0.1860  0.5280 -0.3336
   97MOL    N3313665   5.919   2.749   4.744  0.3578 -0.3087  0.7530
   97MOL    H3413666   6.072   3.115   4.660  0.1085  0.0402  0.6819
   97MOL    H3513667   5.929   3.194   4.708 -0.1712 -0.3337 -0.5097
   97MOL    H3613668   5.884   3.022   4.876  0.1163  0.1655 -0.0166
   97MOL    C3713669   6.098   3.007   4.884 -0.4587  0.5396 -0.0177
   97MOL    C3813670   6.145   3.143   4.941 -0.2041  0.3485  0.5729
   97MOL    C3913671   6.078   3.191   5.062 -0.4154  0.3348 -0.3055
   97MOL    N4013672   6.032   3.231   5.158  0.0881 -0.5427 -0.9681
   97MOL    H4113673   6.084   2.946   4.973  1.5675 -0.2138 -0.1933
   97MOL    H4213674   6.179   2.966   4.823 -0.6654 -0.2748  0.2423
   97MOL    H4313675   6.126   3.225   4.872 -0.1748 -0.4036 -0.3489
   97MOL    C4413676   6.304   3.145   4.950  0.1068  1.0048 -0.8828
   97MOL    C4513677   6.376   3.162   4.815 -0.4722  0.0912  0.2333
   97MOL    C4613678   6.326   3.274   4.739  0.5875  0.0550 -0.4804
   97MOL    N4713679   6.284   3.361   4.676 -0.2434 -0.6144  0.7502
   97MOL    H4813680   6.322   3.229   5.018 -0.1328 -0.2782  0.8140
   97MOL    H4913681   6.352   3.065   5.006 -0.4594  0.4916 -1.1326
   97MOL    H5013682   6.349   3.079   4.748 -0.9405 -0.2696  0.8624
   97MOL    C5113683   6.530   3.161   4.838  0.1406 -0.1101  0.3982
   97MOL    C5213684   6.604   3.180   4.696  1.2931 -0.0642  0.0834
   97MOL    C5313685   6.644   3.323   4.688  0.3624  0.1427  0.0984
   97MOL    N5413686   6.676   3.430   4.685 -0.5509 -0.5701  0.5682
   97MOL    H5513687   6.550   3.241   4.908  0.1602  0.4081 -0.1935
   97MOL    H5613688   6.568   3.072   4.888  0.7791  1.6892  3.2094
   97MOL    H5713689   6.545   3.152   4.609  0.6603  1.6150 -0.0432
   97MOL    C5813690   6.737   3.102   4.704  0.2645 -0.5116  0.2329
   97MOL    C5913691   6.823   3.125   4.588 -0.4013  0.0383  0.0139
   97MOL    C6013692   6.927   3.226   4.613  0.2844 -0.7835 -0.0821
   97MOL    N6113693   7.005   3.309   4.629  0.2091 -0.4218 -0.0109
   97MOL    H6213694   6.781   3.146   4.794  3.7469 -0.6178 -1.3660
   97MOL    H6313695   6.728   2.997   4.734 -0.3242 -0.4509  0.2738
   97MOL    H6413696   6.772   3.164   4.501 -3.2967 -1.6823  0.8781
   97MOL    C6513697   6.896   2.996   4.549 -0.4642 -0.5175  0.0864
   97MOL    C6613698   6.973   2.996   4.421 -0.4434 -0.2581 -0.5833
   97MOL    C6713699   7.106   3.067   4.438  0.5658 -0.5655  0.0702
   97MOL    N6813700   7.208   3.121   4.451  0.0848  0.1801  0.1792
   97MOL    H6913701   6.969   2.968   4.625 -0.2525  1.7861  0.7744
   97MOL    H7013702   6.822   2.917   4.533 -2.9205  1.4333  1.3452
   97MOL    H7113703   6.917   3.063   4.356 -0.4462  0.2725 -0.0425
   97MOL    C7213704   6.987   2.868   4.342 -0.0555  0.0378 -0.1814
   97MOL    C7313705   6.860   2.826   4.266  0.2125  0.1066 -0.0944
   97MOL    C7413706   6.792   2.934   4.187 -0.0160 -1.0070  0.3806
   97MOL    N7513707   6.741   3.022   4.130 -0.9362  0.2646 -0.4523
   97MOL    H7613708   7.066   2.878   4.268 -0.3089 -0.7752 -0.5661
   97MOL    H7713709   7.005   2.788   4.414  1.3817  0.2111 -0.3317
   97MOL    H7813710   6.788   2.807   4.346 -2.1401  1.5032 -1.8073
   97MOL    C7913711   6.879   2.700   4.180  0.8325 -0.5623  0.0536
   97MOL    C8013712   6.834   2.570   4.253  0.4989  0.3222 -0.0802
   97MOL    C8113713   6.688   2.581   4.282 -0.5876  0.3878 -0.4334
   97MOL    N8213714   6.574   2.587   4.311 -0.1809  1.1587 -0.2004
   97MOL    H8313715   6.824   2.710   4.086  1.7189 -1.7210 -0.6119
   97MOL    H8413716   6.982   2.696   4.144  1.6955  0.7532  2.2843
   97MOL    H8513717   6.888   2.565   4.348  0.9446 -3.0366 -0.4643
   97MOL    C8613718   6.874   2.444   4.179 -0.4359  0.1205  0.1059
   97MOL    C8713719   6.885   2.310   4.258 -0.0073  0.5141  0.8446
   97MOL    C8813720   6.770   2.295   4.343 -0.0049 -0.4804  0.1884
   97MOL    N8913721   6.679   2.277   4.412 -0.2917  0.2275 -0.9962
   97MOL    H9013722   6.788   2.433   4.112  0.8357  2.2994 -1.9682
   97MOL    H9113723   6.958   2.463   4.113 -0.3504 -1.3798 -0.2433
   97MOL    H9213724   6.978   2.309   4.315 -0.8475 -3.1969  2.2563
   97MOL    C9313725   6.883   2.186   4.166  0.1320 -0.3456  0.7032
   97MOL    C9413726   7.007   2.179   4.069 -0.5926 -0.2163 -0.1229
   97MOL    C9513727   7.133   2.174   4.145  0.4369 -0.1371  0.1019
   97MOL    N9613728   7.232   2.177   4.201 -0.0237 -0.1320  0.4415
   97MOL    H9713729   6.860   2.092   4.215 -2.4841 -0.8441 -1.3525
   97MOL    H9813730   6.789   2.200   4.112  1.6388  0.2635 -1.8763
   97MOL    H9913731   7.007   2.270   4.009  1.2534 -0.1022  0.0148
   97MOL   C10013732   6.982   2.059   3.974  0.2129  0.7435 -0.3127
   97MOL   C10113733   7.059   2.063   3.838 -0.3242 -0.4765 -0.1512
   97MOL   C10213734   7.027   2.186   3.768  0.4306 -0.2419  0.7923
   97MOL   N10313735   7.000   2.286   3.717 -0.1154  0.2292  0.5953
   97MOL   H10413736   6.991   1.970   4.036 -0.7338 -0.2775 -1.6058
   97MOL   H10513737   6.876   2.050   3.951  0.1825  0.3157 -0.0082
   97MOL   H10613738   7.014   1.993   3.768 -1.5393  1.0473 -0.9151
   97MOL   C10713739   7.210   2.033   3.850 -0.1035  0.3797  0.1793
   97MOL   C10813740   7.254   1.891   3.905  0.1623 -0.2315  0.1943
   97MOL   C10913741   7.249   1.789   3.797 -0.4648  0.1267 -0.0661
   97MOL   N11013742   7.244   1.712   3.708  0.3676 -0.6384 -0.3115
   97MOL   H11113743   7.238   2.033   3.745  1.6071  2.3689  0.5984
   97MOL   H11213744   7.264   2.117   3.895 -0.3035  0.1762  0.8072
   97MOL   H11313745   7.169   1.868   3.970 -0.6116  2.4438  0.2296
   97MOL   C11413746   7.376   1.892   3.994 -0.0132  0.3653  0.1664
   97MOL   C11513747   7.504   1.883   3.905 -0.6856 -0.1191  0.3148
   97MOL   C11613748   7.499   1.994   3.805 -0.1324  0.4765 -0.1576
   97MOL   N11713749   7.489   2.080   3.727  0.7096  0.0507 -0.4135
   97MOL   H11813750   7.378   1.983   4.054 -0.3667  0.3580  0.1912
   97MOL   H11913751   7.365   1.821   4.077  0.2659  0.3872  0.2245
   97MOL   H12013752   7.506   1.799   3.836 -1.5134  0.9538 -1.0514
   97MOL   C12113753   7.633   1.875   3.989  0.2948 -0.4808  0.3033
   97MOL   C12213754   7.642   1.759   4.087 -0.4237  0.1443  0.2016
   97MOL   C12313755   7.556   1.648   4.052 -0.2951 -0.0498  0.0384
   97MOL   N12413756   7.487   1.557   4.023  0.5546  0.0835  0.1540
   97MOL   H12513757   7.709   1.857   3.912  0.4135  0.6280  0.1576
   97MOL   H12613758   7.659   1.970   4.036  0.0031 -0.0265 -0.4448
   97MOL   H12713759   7.596   1.789   4.181 -0.5313  0.0750  0.1712
   97MOL   C12813760   7.787   1.700   4.096  0.2575  0.6332  0.5173
   97MOL   C12913761   7.895   1.800   4.137 -0.4589 -0.9996 -0.1882
   97MOL   C13013762   7.863   1.868   4.262 -0.6461 -0.2204  0.3499
   97MOL   N13113763   7.844   1.923   4.364 -0.4694  1.0398 -0.4538
   97MOL   H13213764   7.792   1.620   4.170  1.6267  1.5912  1.4719
   97MOL   H13313765   7.806   1.668   3.994 -2.2092 -0.9826  0.4939
   97MOL   H13413766   7.900   1.886   4.070 -0.3257 -0.8717 -0.0167
   97MOL   C13513767   8.034   1.734   4.120 -0.1007 -0.0414 -1.0234
   97MOL   C13613768   8.084   1.735   3.973 -0.4105 -0.1676 -0.3361
   97MOL   C13713769   8.092   1.870   3.922 -1.4333  0.2445  0.3878
   97MOL   N13813770   8.103   1.975   3.882  0.0372  0.1183  0.0749
   97MOL   H13913771   8.105   1.774   4.192  0.0468  1.9153 -2.2106
   97MOL   H14013772   8.025   1.627   4.134  1.8257  0.0694  1.3521
   97MOL   H14113773   8.020   1.671   3.912 -1.1592 -0.5833  0.8454
   97MOL   H14213774   8.183   1.690   3.975 -0.4701 -0.2568  1.0125
   98MOL     C113775   5.334   6.193   1.906  0.3942  0.6630  0.0814
   98MOL     C213776   5.417   6.121   2.012  0.1932 -0.0887 -0.2909
   98MOL     C313777   5.427   6.204   2.134 -0.3418  1.2180 -0.0306
   98MOL     N413778   5.436   6.267   2.232  0.4168  0.2394 -0.1910
   98MOL     H513779   5.229   6.186   1.937 -0.4017  2.9518 -1.9347
   98MOL     H613780   5.359   6.146   1.811  1.2462 -1.1589  1.1680
   98MOL     H713781   5.519   6.117   1.974 -0.0842 -1.1069 -0.9391
   98MOL     H813782   5.358   6.299   1.908 -0.0987  0.7530  1.8436
   98MOL     C913783   5.367   5.976   2.045 -0.0986 -0.2605  0.0665
   98MOL    C1013784   5.384   5.880   1.927  0.3895 -0.9103 -0.0458
   98MOL    C1113785   5.520   5.832   1.906 -0.4610 -0.5009  0.2473
   98MOL    N1213786   5.628   5.792   1.884  0.0235 -0.5642 -0.7497
   98MOL    H1313787   5.436   5.943   2.123  0.4823 -0.3155 -0.4721
   98MOL    H1413788   5.267   5.992   2.086  0.0261  0.0629  0.2407
   98MOL    H1513789   5.347   5.937   1.841  0.4050  0.6799  0.9877
   98MOL    C1613790   5.295   5.759   1.952 -0.0044  0.2447  0.3944
   98MOL    C1713791   5.249   5.680   1.818  0.6893 -0.8482  0.1488
   98MOL    C1813792   5.160   5.758   1.730 -0.7140 -0.2453  0.5301
   98MOL    N1913793   5.092   5.823   1.663  0.3022  0.4545  0.1007
   98MOL    H2013794   5.352   5.698   2.022 -0.6950  1.7697  2.3270
   98MOL    H2113795   5.204   5.783   2.007 -0.9265 -1.5207 -0.3137
   98MOL    H2213796   5.167   5.611   1.842 -2.0190  2.0730 -0.3444
   98MOL    C2313797   5.365   5.620   1.734 -0.5428 -0.5348  0.3772
   98MOL    C2413798   5.337   5.548   1.603  0.1066 -0.1757  0.2517
   98MOL    C2513799   5.240   5.435   1.623  0.5363  0.0966 -0.6894
   98MOL    N2613800   5.171   5.348   1.636 -0.1592  0.3361 -0.4500
   98MOL    H2713801   5.436   5.697   1.707 -2.8575  0.9019 -1.8490
   98MOL    H2813802   5.423   5.561   1.805 -0.6665 -1.8815 -0.6197
   98MOL    H2913803   5.435   5.508   1.579  0.6192  0.1721  1.7061
   98MOL    C3013804   5.307   5.643   1.486  0.5729 -0.1301  0.0798
   98MOL    C3113805   5.344   5.583   1.345 -0.6392 -0.1595 -0.3555
   98MOL    C3213806   5.300   5.447   1.328  0.1370 -0.4487 -0.0544
   98MOL    N3313807   5.272   5.332   1.315 -0.0906 -0.0459 -0.4988
   98MOL    H3413808   5.203   5.676   1.493  2.0051  4.5389  0.7295
   98MOL    H3513809   5.357   5.739   1.492 -0.6017  0.4717  0.4105
   98MOL    H3613810   5.453   5.586   1.343 -0.6242  1.5206  0.9875
   98MOL    C3713811   5.299   5.666   1.228  0.0631  0.2995  0.5595
   98MOL    C3813812   5.310   5.598   1.094  0.6993  0.5014  0.2805
   98MOL    C3913813   5.190   5.510   1.065 -0.1334 -0.4020 -0.2210
   98MOL    N4013814   5.098   5.437   1.052  0.0356  0.6841  0.3951
   98MOL    H4113815   5.197   5.702   1.246 -0.6072  0.0681 -2.5218
   98MOL    H4213816   5.352   5.761   1.236 -1.4391  1.2916 -1.0391
   98MOL    H4313817   5.393   5.528   1.083 -1.3214 -2.0105  0.6289
   98MOL    C4413818   5.336   5.713   0.994 -0.9845 -0.1788  0.2720
   98MOL    C4513819   5.335   5.676   0.842 -0.2465 -0.4966 -0.1492
   98MOL    C4613820   5.195   5.667   0.784 -0.1551  0.9567  0.0671
   98MOL    N4713821   5.088   5.658   0.739 -0.1859 -0.4211 -0.1964
   98MOL    H4813822   5.270   5.799   1.004  0.8561  1.2747  0.1256
   98MOL    H4913823   5.439   5.737   1.019 -0.3488 -2.7849  0.3738
   98MOL    H5013824   5.379   5.577   0.844 -0.4614 -0.6244 -1.5986
   98MOL    C5113825   5.416   5.777   0.762 -0.0378 -0.4882  0.0077
   98MOL    C5213826   5.353   5.916   0.741 -0.5008  0.5964 -0.5266
   98MOL    C5313827   5.434   6.029   0.791 -0.5701  0.2871  0.0842
   98MOL    N5413828   5.501   6.115   0.833  0.4198  0.8084 -0.3312
   98MOL    H5513829   5.515   5.795   0.804 -0.4975 -1.3404  1.5037
   98MOL    H5613830   5.426   5.728   0.666 -3.0005 -1.2272  0.0361
   98MOL    H5713831   5.269   5.911   0.810 -0.2707  1.0787 -0.2069
   98MOL    C5813832   5.291   5.934   0.600 -0.1191 -0.1778  0.2921
   98MOL    C5913833   5.397   5.977   0.496  0.7051 -0.2286  0.4158
   98MOL    C6013834   5.491   5.870   0.459  0.2095  1.0763  0.0980
   98MOL    N6113835   5.570   5.788   0.426  0.2485  0.0413  0.3342
   98MOL    H6213836   5.244   5.839   0.576 -0.8604 -0.3820  2.4385
   98MOL    H6313837   5.210   6.005   0.616  0.6587  0.8552 -0.2797
   98MOL    H6413838   5.445   6.059   0.549  0.6235 -0.8625  1.4895
   98MOL    C6513839   5.335   6.051   0.371 -0.1178  0.1745 -1.0239
   98MOL    C6613840   5.305   5.965   0.245 -0.1408  1.0610 -0.3477
   98MOL    C6713841   5.200   5.866   0.263 -0.0940 -0.2744  0.1179
   98MOL    N6813842   5.116   5.787   0.270 -0.0103 -0.2847  0.1861
   98MOL    H6913843   5.250   6.114   0.396  0.3690 -0.1785  1.6098
   98MOL    H7013844   5.424   6.110   0.345 -1.0039  2.0325  0.0239
   98MOL    H7113845   5.389   5.899   0.226  0.1624  0.9559  1.2605
   98MOL    C7213846   5.285   6.052   0.119  0.2793  0.6565  0.2876
   98MOL    C7313847   5.140   6.106   0.098  0.5217  0.4578  0.8094
   98MOL    C7413848   5.092   6.200   0.195 -0.7894  0.2398 -0.5241
   98MOL    N7513849   5.055   6.275   0.272 -0.5458 -0.0474 -0.3822
   98MOL    H7613850   5.358   6.132   0.116  1.8663 -0.8044 -1.8208
   98MOL    H7713851   5.315   5.998   0.029 -0.3666  0.3884  0.2288
   98MOL    H7813852   5.065   6.028   0.108 -0.2330  0.9869 -0.6592
   98MOL    C7913853   5.116   6.159   8.270  0.2395 -0.3642  0.1063
   98MOL    C8013854   5.082   6.314   8.250  0.2366 -0.1850  0.3113
   98MOL    C8113855   5.136   6.370   8.126  0.3463 -0.0187  0.1148
   98MOL    N8213856   5.179   6.419   8.034 -0.0970 -0.4280 -0.2858
   98MOL    H8313857   5.200   6.153   8.202  1.5116 -0.8789  1.6873
   98MOL    H8413858   5.037   6.096   8.229 -1.8723  0.2260  3.0523
   98MOL    H8513859   5.126   6.365   0.023 -0.0398  1.9257 -0.7851
   98MOL    C8613860   4.925   6.347   8.258  0.2702  0.5628 -0.0969
   98MOL    C8713861   4.896   6.498   8.268 -0.2554  0.3944  0.4009
   98MOL    C8813862   4.753   6.515   8.232  0.1840  0.5926 -0.3249
   98MOL    N8913863   4.643   6.532   8.199 -0.1616  0.5033  0.1154
   98MOL    H9013864   4.879   6.306   8.169  0.2176  0.0917  0.1470
   98MOL    H9113865   4.889   6.301   0.037 -1.6882  0.7856 -0.7402
   98MOL    H9213866   4.948   6.532   8.179  3.1675  0.0981  2.2231
   98MOL    C9313867   4.954   6.569   0.088  0.3240  0.5522 -0.3347
   98MOL    C9413868   4.951   6.723   0.095 -0.4098  0.1237  0.2841
   98MOL    C9513869   5.032   6.785   8.300 -0.5345 -0.1185 -0.0344
   98MOL    N9613870   5.091   6.833   8.213  0.1403  0.3029 -0.2928
   98MOL    H9713871   4.915   6.524   0.179 -1.5859 -0.5964 -1.6636
   98MOL    H9813872   5.059   6.541   0.085  0.6618  1.8319 -0.7985
   98MOL    H9913873   5.010   6.755   0.181  0.1028 -1.7377  0.6488
   98MOL   C10013874   4.806   6.787   0.125 -0.1180 -0.4820  0.1784
   98MOL   C10113875   4.739   6.768   0.260  0.3646 -0.1511  0.1275
   98MOL   C10213876   4.676   6.632   0.266  0.0023  1.0754  0.4848
   98MOL   N10313877   4.628   6.531   0.274  0.1980 -0.1669 -0.0383
   98MOL   H10413878   4.812   6.896   0.114 -0.1166 -0.4740  0.2640
   98MOL   H10513879   4.743   6.750   0.044 -0.2273  1.0167 -0.4496
   98MOL   H10613880   4.656   6.833   0.288 -0.7887 -1.3124 -0.5599
   98MOL   C10713881   4.833   6.795   0.376  0.2428 -0.0069 -0.5569
   98MOL   C10813882   4.891   6.938   0.390 -0.3718 -0.1906  0.2732
   98MOL   C10913883   4.784   7.037   0.417 -0.0331 -0.0531  0.2052
   98MOL   N11013884   4.699   7.109   0.442 -0.3002 -0.3395 -0.3791
   98MOL   H11113885   4.767   6.782   0.462 -1.7985  2.1479 -1.7487
   98MOL   H11213886   4.916   6.725   0.389  1.7093  2.0258  1.2460
   98MOL   H11313887   4.945   6.966   0.300 -2.2422 -1.8762 -1.4187
   98MOL   C11413888   4.990   6.948   0.510  0.5321 -0.6138 -1.0388
   98MOL   C11513889   5.141   6.942   0.458  0.2917 -0.2131 -0.0348
   98MOL   C11613890   5.184   7.064   0.388 -0.6415 -0.1115 -0.3480
   98MOL   N11713891   5.218   7.155   0.328  0.3788 -0.1942  0.4317
   98MOL   H11813892   4.979   7.049   0.549 -2.4944 -1.5285  0.6381
   98MOL   H11913893   4.980   6.869   0.585  2.0732  1.6344  1.5988
   98MOL   H12013894   5.136   6.859   0.387 -0.2553  2.0990 -2.7546
   98MOL   C12113895   5.242   6.902   0.574  0.6019  1.0293 -0.2148
   98MOL   C12213896   5.388   6.883   0.539 -0.4471  0.3304  0.3425
   98MOL   C12313897   5.457   6.855   0.661 -0.0168 -0.3864  0.2936
   98MOL   N12413898   5.516   6.835   0.756 -0.2927  0.0550 -0.5022
   98MOL   H12513899   5.240   6.978   0.652  0.4280  0.4250  0.3796
   98MOL   H12613900   5.206   6.809   0.618  1.4016  1.0312  0.4676
   98MOL   H12713901   5.415   6.981   0.499  0.2502  0.3131  0.7673
   98MOL   C12813902   5.409   6.772   0.435  0.5095 -0.2989 -0.1681
   98MOL   C12913903   5.543   6.760   0.364 -0.2931  0.0951 -0.4490
   98MOL   C13013904   5.660   6.762   0.451 -0.1246 -0.2202  0.3029
   98MOL   N13113905   5.759   6.759   0.508  0.0064  0.0132  0.1527
   98MOL   H13213906   5.387   6.680   0.490  2.8696  0.1396  1.5766
   98MOL   H13313907   5.346   6.793   0.349  1.4036 -1.9699 -1.2685
   98MOL   H13413908   5.547   6.837   0.286  0.9735 -0.4662 -0.9458
   98MOL   C13513909   5.527   6.623   0.305 -0.0369  0.1071  0.1662
   98MOL   C13613910   5.642   6.587   0.214 -0.8013 -0.0308 -0.0295
   98MOL   C13713911   5.643   6.654   0.085  0.2844 -0.4579  0.2808
   98MOL   N13813912   5.646   6.715   8.299 -0.4822 -0.4663  0.1561
   98MOL   H13913913   5.534   6.548   0.384  2.1926  0.1103  0.0100
   98MOL   H14013914   5.434   6.607   0.250  0.0126  0.2150  0.0495
   98MOL   H14113915   5.639   6.483   0.183 -0.9433 -0.1327  0.3269
   98MOL   H14213916   5.741   6.600   0.257 -0.0873 -2.4992 -0.8311
   99MOL     C113917   3.505   1.551   2.138 -0.7707  0.2504  0.1118
   99MOL     C213918   3.550   1.598   2.275 -1.0493 -0.0965 -0.0855
   99MOL     C313919   3.472   1.709   2.321 -0.1436  0.1587  0.6184
   99MOL     N413920   3.405   1.793   2.349  0.2807  0.1881 -0.5230
   99MOL     H513921   3.397   1.533   2.145 -0.2668 -2.5003  1.3964
   99MOL     H613922   3.555   1.462   2.102  0.1623  1.2376 -1.1015
   99MOL     H713923   3.643   1.648   2.249 -1.7678  0.0169 -2.6329
   99MOL     H813924   3.527   1.629   2.065  2.0935 -0.6375 -0.0230
   99MOL     C913925   3.557   1.488   2.384 -0.8923 -0.5576 -0.2045
   99MOL    C1013926   3.647   1.367   2.349  0.0546 -0.0047  0.8220
   99MOL    C1113927   3.764   1.411   2.276  0.2598 -0.0683  1.1869
   99MOL    N1213928   3.860   1.449   2.222  0.1887  0.1093 -0.1735
   99MOL    H1313929   3.606   1.534   2.469 -1.0526  0.5287 -0.6936
   99MOL    H1413930   3.458   1.462   2.421 -1.6198  0.6030 -1.3101
   99MOL    H1513931   3.586   1.319   2.272  1.5425  3.0558 -2.3579
   99MOL    C1613932   3.682   1.263   2.460  0.4008 -0.1557  0.3447
   99MOL    C1713933   3.740   1.315   2.597 -0.1138 -0.1792 -0.3070
   99MOL    C1813934   3.702   1.249   2.721  1.0751  0.7601 -0.4286
   99MOL    N1913935   3.670   1.195   2.819 -0.1011 -0.5794  0.1368
   99MOL    H2013936   3.587   1.212   2.481 -0.9909  1.3742 -2.0574
   99MOL    H2113937   3.755   1.199   2.411  0.1678 -1.1615  1.2753
   99MOL    H2213938   3.700   1.414   2.618 -0.9639 -0.4543 -0.5957
   99MOL    C2313939   3.900   1.327   2.587  0.5609  0.4840 -0.0116
   99MOL    C2413940   3.951   1.456   2.669 -0.4762 -0.1031  0.5839
   99MOL    C2513941   3.900   1.580   2.611  0.6174 -0.2780  0.7176
   99MOL    N2613942   3.855   1.682   2.573  0.1452 -0.3282 -0.4468
   99MOL    H2713943   3.947   1.239   2.630 -3.3663 -2.1614 -0.8550
   99MOL    H2813944   3.935   1.357   2.488  3.7013  0.9480  1.1899
   99MOL    H2913945   4.058   1.463   2.649 -0.9875  0.8631 -2.0133
   99MOL    C3013946   3.923   1.445   2.823  1.6607  0.2979  0.2436
   99MOL    C3113947   4.012   1.533   2.913 -0.5270 -0.2463  0.7331
   99MOL    C3213948   3.977   1.678   2.911 -0.0214  0.5638  0.1993
   99MOL    N3313949   3.949   1.793   2.899 -1.0779 -0.2761  0.2573
   99MOL    H3413950   3.817   1.465   2.839  1.5083 -1.4639  1.5609
   99MOL    H3513951   3.941   1.341   2.850 -0.4248 -0.4683 -1.2049
   99MOL    H3613952   4.116   1.532   2.879 -0.7034  0.2430  0.1831
   99MOL    C3713953   4.002   1.487   3.059  0.5806 -0.0930 -0.1257
   99MOL    C3813954   4.088   1.372   3.099  0.4950  0.0111 -0.3123
   99MOL    C3913955   4.196   1.421   3.188 -0.6084  0.2460 -0.2045
   99MOL    N4013956   4.282   1.461   3.254 -0.4788 -0.4505 -0.1518
   99MOL    H4113957   4.022   1.567   3.130  0.7373 -1.5239  1.4743
   99MOL    H4213958   3.897   1.462   3.079  0.6486  0.1906  0.5937
   99MOL    H4313959   4.142   1.343   3.009  1.6454  1.3999 -0.0900
   99MOL    C4413960   4.026   1.243   3.147 -0.0556  0.3635  0.5672
   99MOL    C4513961   3.950   1.154   3.048 -0.1688  0.1093 -0.0208
   99MOL    C4613962   4.029   1.139   2.924  0.0993  0.7124  0.1277
   99MOL    N4713963   4.094   1.122   2.829  0.0793  0.1579 -0.4444
   99MOL    H4813964   4.111   1.188   3.188 -0.2525 -1.9928 -2.0726
   99MOL    H4913965   3.957   1.260   3.229 -0.9875 -1.1578  0.1150
   99MOL    H5013966   3.858   1.208   3.024 -0.1798  1.0884  2.1283
   99MOL    C5113967   3.897   1.014   3.100 -0.2003  0.2875  0.2258
   99MOL    C5213968   3.782   0.956   3.015  0.0241 -0.4499 -0.0549
   99MOL    C5313969   3.805   0.944   2.867  0.6787 -0.5596  0.2862
   99MOL    N5413970   3.821   0.935   2.754  0.4709  0.3698 -0.1266
   99MOL    H5513971   3.970   0.933   3.096  1.3400  1.6590  0.4829
   99MOL    H5613972   3.867   1.034   3.203  0.3906 -0.9403  0.6442
   99MOL    H5713973   3.705   1.033   3.015  1.6101  1.1942  2.3416
   99MOL    C5813974   3.735   0.823   3.066  0.5656 -0.9256  0.5393
   99MOL    C5913975   3.610   0.762   3.004  0.1910 -0.6073 -0.0899
   99MOL    C6013976   3.630   0.689   2.880  0.0536 -0.5258  0.5350
   99MOL    N6113977   3.647   0.629   2.785  0.1027 -0.4543  0.0125
   99MOL    H6213978   3.818   0.752   3.065  0.5013 -1.0233 -2.9112
   99MOL    H6313979   3.719   0.837   3.173 -1.0183  0.4927  0.1294
   99MOL    H6413980   3.545   0.847   2.987  3.2922  1.3126 -2.8899
   99MOL    C6513981   3.550   0.663   3.108 -0.3339 -0.5905  0.4818
   99MOL    C6613982   3.476   0.710   3.237 -0.1471  0.1176  0.0832
   99MOL    C6713983   3.374   0.816   3.212 -0.2435  0.2345  0.3380
   99MOL    N6813984   3.294   0.900   3.192  0.2301 -0.2273 -0.0576
   99MOL    H6913985   3.485   0.593   3.056 -2.5702  2.3361 -0.8175
   99MOL    H7013986   3.628   0.592   3.136  0.3244  0.2833  0.8677
   99MOL    H7113987   3.546   0.767   3.299  0.1726  2.9133 -2.7583
   99MOL    C7213988   3.414   0.588   3.320  0.7009  0.1888  0.2686
   99MOL    C7313989   3.517   0.513   3.401  0.2924  0.4105  0.5173
   99MOL    C7413990   3.585   0.598   3.505 -0.5291  0.1427 -0.4724
   99MOL    N7513991   3.633   0.668   3.586 -0.1986  0.3963  0.8192
   99MOL    H7613992   3.349   0.625   3.399 -0.8721  0.3776 -1.0790
   99MOL    H7713993   3.352   0.526   3.254 -0.0972  1.9752 -0.7145
   99MOL    H7813994   3.599   0.488   3.334 -0.3800  2.1608 -0.9873
   99MOL    C7913995   3.454   0.385   3.454  0.2432  0.0556  0.1163
   99MOL    C8013996   3.548   0.281   3.508  0.5735  0.2781  0.7571
   99MOL    C8113997   3.663   0.317   3.596 -0.1573 -0.3394  0.2918
   99MOL    N8213998   3.749   0.344   3.673  0.4820  0.4466  0.2916
   99MOL    H8313999   3.394   0.409   3.542  0.3296  0.8716 -0.0474
   99MOL    H8414000   3.388   0.334   3.384 -0.2992  2.1108 -0.8893
   99MOL    H8514001   3.601   0.242   3.422 -1.0934 -0.0740 -0.1456
   99MOL    C8614002   3.467   0.160   3.575  0.4708 -1.1292  0.2557
   99MOL    C8714003   3.545   0.025   3.589 -0.3487 -0.3035 -0.5274
   99MOL    C8814004   3.501   8.259   3.704  0.1111 -0.1498  0.0768
   99MOL    N8914005   3.468   8.195   3.792 -0.3331  0.9509 -0.3623
   99MOL    H9014006   3.430   0.202   3.668  1.7488  3.0842 -1.0515
   99MOL    H9114007   3.374   0.146   3.520  1.2895  0.1531 -1.5158
   99MOL    H9214008   3.646   0.052   3.620 -1.4069  1.7166  1.2711
   99MOL    C9314009   3.537   8.259   3.455 -0.2172 -0.0323 -0.0358
   99MOL    C9414010   3.671   8.181   3.426  0.0827 -0.4458  0.2150
   99MOL    C9514011   3.788   8.271   3.419 -0.0822 -0.0423 -0.1808
   99MOL    N9614012   3.875   0.034   3.412  0.0819 -0.5621  0.4876
   99MOL    H9714013   3.452   8.193   3.470  3.9284 -5.2713  1.8313
   99MOL    H9814014   3.523   0.009   3.367  1.1768  1.0671  0.4938
   99MOL    H9914015   3.663   8.130   3.330  1.1797 -1.9247  0.8867
   99MOL   C10014016   3.701   8.067   3.522 -0.0334  0.5327  0.0897
   99MOL   C10114017   3.825   7.987   3.482  0.1709 -0.8348  1.1929
   99MOL   C10214018   3.878   7.896   3.585 -0.0005  0.3453 -0.3832
   99MOL   N10314019   3.922   7.824   3.663 -0.7243  0.2306  0.0064
   99MOL   H10414020   3.705   8.113   3.620 -0.7225  0.2015  0.2718
   99MOL   H10514021   3.619   7.996   3.528  0.0791  0.4846  1.0552
   99MOL   H10614022   3.894   8.070   3.470  1.5153 -2.0570  0.3483
   99MOL   C10714023   3.821   7.919   3.343 -0.0529  0.7189  0.6942
   99MOL   C10814024   3.782   7.775   3.343  0.4820  0.0834 -0.4652
   99MOL   C10914025   3.656   7.763   3.424 -0.2937  0.7467  0.4757
   99MOL   N11014026   3.560   7.751   3.491 -0.6100 -0.7119 -0.2517
   99MOL   H11114027   3.748   7.959   3.272 -0.5219  1.7255  1.7382
   99MOL   H11214028   3.914   7.944   3.291 -0.4616  0.8646  0.0192
   99MOL   H11314029   3.856   7.719   3.400  0.4718  1.9985  1.4505
   99MOL   C11414030   3.769   7.711   3.205  0.1708 -0.0831 -0.1151
   99MOL   C11514031   3.753   7.558   3.201 -0.3751  0.1418  0.8117
   99MOL   C11614032   3.619   7.508   3.232  0.5443 -0.0659 -0.6123
   99MOL   N11714033   3.513   7.470   3.258 -0.1710 -0.0760  0.0445
   99MOL   H11814034   3.690   7.753   3.144 -1.4846 -1.5759  0.9559
   99MOL   H11914035   3.864   7.728   3.153  0.1379  0.1514 -0.0977
   99MOL   H12014036   3.824   7.518   3.273  1.3316 -1.8599 -1.8654
   99MOL   C12114037   3.802   7.494   3.064 -0.7486 -0.1454  0.9687
   99MOL   C12214038   3.953   7.498   3.037 -0.7034  0.1656 -0.6601
   99MOL   C12314039   4.023   7.430   3.151  0.2085 -0.5008  0.4894
   99MOL   N12414040   4.073   7.373   3.243 -0.2418 -0.1399  0.9763
   99MOL   H12514041   3.756   7.396   3.050 -3.2065  0.8548  1.7677
   99MOL   H12614042   3.761   7.559   2.986 -2.2978 -0.6824  1.3100
   99MOL   H12714043   3.993   7.599   3.040 -0.8727  0.3039 -2.3923
   99MOL   C12814044   3.989   7.438   2.898 -0.8545 -0.0742  0.3579
   99MOL   C12914045   4.141   7.436   2.864  0.3956  0.0268 -0.5193
   99MOL   C13014046   4.212   7.551   2.920 -0.6164 -0.2290 -0.1605
   99MOL   N13114047   4.264   7.642   2.971 -0.2008 -0.6854  0.3019
   99MOL   H13214048   3.951   7.339   2.872  3.5096 -1.1898 -2.3720
   99MOL   H13314049   3.942   7.511   2.832 -0.1391 -0.4715 -0.6006
   99MOL   H13414050   4.147   7.447   2.756  0.8458  1.0146 -0.3960
   99MOL   C13514051   4.209   7.303   2.912 -0.0341 -0.0021 -0.3075
   99MOL   C13614052   4.365   7.288   2.918  0.0778 -0.1140  0.2379
   99MOL   C13714053   4.419   7.292   2.775 -0.5403 -0.1561 -0.6602
   99MOL   N13814054   4.453   7.298   2.668  0.3441  0.5409 -0.0540
   99MOL   H13914055   4.172   7.282   3.013 -1.1702 -1.1004 -0.9358
   99MOL   H14014056   4.169   7.215   2.862  0.7061  0.3553 -1.5396
   99MOL   H14114057   4.397   7.195   2.964  1.3394  0.2668  0.1589
   99MOL   H14214058   4.413   7.367   2.975  0.8592 -0.9951  0.8084
  100MOL     C114059   7.577   1.365   3.649 -0.5469 -0.4664  0.5123
  100MOL     C214060   7.721   1.395   3.607 -0.4843 -0.0405  0.0572
  100MOL     C314061   7.724   1.505   3.503 -0.4296  1.3090  0.2443
  100MOL     N414062   7.724   1.595   3.433  0.4259 -0.6205  0.5145
  100MOL     H514063   7.528   1.354   3.552  5.5404 -0.0750 -2.9219
  100MOL     H614064   7.533   1.444   3.709  2.2539  0.5683  1.2785
  100MOL     H714065   7.759   1.301   3.568  1.0004  0.7475 -0.4060
  100MOL     H814066   7.567   1.274   3.708 -1.8151 -0.8969 -0.3546
  100MOL     C914067   7.805   1.430   3.733 -0.3991  0.7268 -0.1535
  100MOL    C1014068   7.849   1.312   3.818  0.3787  0.1750 -0.7194
  100MOL    C1114069   7.966   1.245   3.758 -0.1768 -0.5720 -0.4711
  100MOL    N1214070   8.062   1.195   3.714  0.8290  0.5136 -0.3785
  100MOL    H1314071   7.888   1.494   3.701  1.9920 -1.9738  0.4924
  100MOL    H1414072   7.750   1.511   3.781  0.6482  2.2903 -1.4834
  100MOL    H1514073   7.765   1.245   3.835 -1.8467  3.5774  2.5906
  100MOL    C1614074   7.885   1.363   3.959  1.3628 -0.0358 -0.4490
  100MOL    C1714075   7.875   1.251   4.067 -0.2851 -0.0506 -0.0819
  100MOL    C1814076   7.748   1.174   4.054  0.2362  0.3240 -0.1398
  100MOL    N1914077   7.647   1.112   4.050 -0.2142 -0.4448  0.2365
  100MOL    H2014078   7.985   1.407   3.960  0.9830  0.8350  0.1453
  100MOL    H2114079   7.821   1.447   3.985  1.5165  0.3650 -1.3287
  100MOL    H2214080   7.845   1.291   4.164 -1.4644 -1.2708  0.0737
  100MOL    C2314081   7.998   1.154   4.097  0.1171 -0.6545  0.1836
  100MOL    C2414082   8.088   1.191   4.208  0.4129 -0.6681  0.0644
  100MOL    C2514083   8.026   1.180   4.335 -0.1529 -0.3664 -0.9174
  100MOL    N2614084   7.977   1.172   4.439 -0.2486  0.0342  0.0028
  100MOL    H2714085   7.971   1.049   4.109 -0.1410 -0.3648  2.2626
  100MOL    H2814086   8.058   1.147   4.006 -0.3189 -0.9534 -0.0825
  100MOL    H2914087   8.100   1.299   4.196  1.0640 -0.4616  2.3877
  100MOL    C3014088   8.228   1.129   4.202  0.6805  0.8611  0.0813
  100MOL    C3114089   8.312   1.141   4.331  0.0984 -0.9257  0.4661
  100MOL    C3214090   8.297   1.016   4.405 -0.6157 -0.1332 -1.1518
  100MOL    N3314091   8.284   0.918   4.461  0.1623  0.8012  0.0453
  100MOL    H3414092   8.213   1.023   4.181  1.4073  0.8328 -0.3340
  100MOL    H3514093   8.275   1.177   4.117  2.9664 -1.0606  0.2052
  100MOL    H3614094   8.258   1.207   4.399 -1.2025 -1.3887 -0.0905
  100MOL    C3714095   0.146   1.176   4.323 -0.1720 -0.2826  0.4327
  100MOL    C3814096   0.173   1.328   4.286  0.1351  0.2231 -0.0389
  100MOL    C3914097   0.054   1.413   4.311 -0.0100 -0.9947 -0.1551
  100MOL    N4014098   8.272   1.482   4.330 -0.7325 -0.3792 -0.4941
  100MOL    H4114099   0.174   1.152   4.425 -0.4674  0.5292  0.7096
  100MOL    H4214100   0.199   1.097   4.269  2.4070  0.8277  1.2519
  100MOL    H4314101   0.180   1.339   4.178 -0.2860  0.4835 -0.0437
  100MOL    C4414102   0.301   1.383   4.363  0.1689  0.8592 -0.9924
  100MOL    C4514103   0.433   1.306   4.336 -0.6465 -0.2936 -0.0475
  100MOL    C4614104   0.497   1.341   4.206  0.7860  0.3365  0.3140
  100MOL    N4714105   0.539   1.370   4.104  0.2534  0.0584  0.9016
  100MOL    H4814106   0.314   1.490   4.344  2.7273  0.9252  0.8641
  100MOL    H4914107   0.263   1.366   4.464 -1.3372 -0.1381 -1.7171
  100MOL    H5014108   0.414   1.199   4.328  0.8314 -0.4723 -1.2923
  100MOL    C5114109   0.522   1.324   4.473  0.1955 -0.1031  0.2350
  100MOL    C5214110   0.670   1.271   4.456  0.4401 -0.0107 -0.4857
  100MOL    C5314111   0.675   1.132   4.429 -0.4330 -0.5700  0.8943
  100MOL    N5414112   0.671   1.022   4.403  0.0428  0.3598  0.0508
  100MOL    H5514113   0.530   1.426   4.511 -3.3654 -0.4686  2.2677
  100MOL    H5614114   0.475   1.264   4.551 -0.3588  1.0594  0.8072
  100MOL    H5714115   0.713   1.285   4.555 -1.4770  0.6034  0.2798
  100MOL    C5814116   0.756   1.344   4.352  0.4826  0.6046 -0.0668
  100MOL    C5914117   0.901   1.388   4.386  0.7125  0.1218  0.4385
  100MOL    C6014118   0.982   1.291   4.470  0.4769 -0.3699  0.0880
  100MOL    N6114119   1.043   1.219   4.540  0.2675 -0.1055 -0.2498
  100MOL    H6214120   0.749   1.280   4.264  2.3116 -1.0499  0.9347
  100MOL    H6314121   0.705   1.437   4.326 -1.4922 -0.5038 -0.2617
  100MOL    H6414122   0.893   1.476   4.449  0.2457 -0.5193  1.2766
  100MOL    C6514123   0.978   1.434   4.256 -0.1816  0.3800 -0.1559
  100MOL    C6614124   1.125   1.472   4.272  0.0619  0.4066 -0.6395
  100MOL    C6714125   1.174   1.470   4.131 -0.5389  0.1215  0.4842
  100MOL    N6814126   1.217   1.471   4.021  0.3696 -0.4702  0.1165
  100MOL    H6914127   0.977   1.344   4.194 -2.2818  1.1323 -1.2325
  100MOL    H7014128   0.919   1.513   4.210 -2.1034 -2.7508 -3.3164
  100MOL    H7114129   1.174   1.401   4.338 -4.0633 -0.3245  1.8239
  100MOL    C7214130   1.131   1.614   4.327 -0.6447  0.3098  0.5329
  100MOL    C7314131   1.259   1.695   4.305  0.1015 -0.3191 -0.1293
  100MOL    C7414132   1.377   1.615   4.333 -0.6373 -0.7392 -0.2744
  100MOL    N7514133   1.464   1.548   4.355 -0.3428 -0.5724 -0.2104
  100MOL    H7614134   1.048   1.677   4.294  0.2604  0.8486 -0.7731
  100MOL    H7714135   1.116   1.597   4.434 -2.3932 -1.4000  0.0298
  100MOL    H7814136   1.254   1.774   4.380 -0.0109 -1.0582  0.6442
  100MOL    C7914137   1.268   1.771   4.168  0.4267  0.4019 -0.1298
  100MOL    C8014138   1.382   1.877   4.164  0.5665  0.4175 -0.7712
  100MOL    C8114139   1.509   1.812   4.148  0.0567 -0.1741 -0.6302
  100MOL    N8214140   1.615   1.768   4.134 -0.2415  0.3920  0.0217
  100MOL    H8314141   1.296   1.709   4.083 -0.4113 -1.2851  0.8080
  100MOL    H8414142   1.172   1.817   4.148 -0.5917 -2.5180 -2.3606
  100MOL    H8514143   1.378   1.925   4.261 -0.2045 -2.7890  0.8525
  100MOL    C8614144   1.367   1.977   4.045 -0.9384 -0.1133  0.3488
  100MOL    C8714145   1.437   2.111   4.071  0.2303  0.3641  0.2203
  100MOL    C8814146   1.437   2.186   3.939  0.9408 -0.1344 -0.2889
  100MOL    N8914147   1.429   2.238   3.839 -0.0986 -0.3770  0.4264
  100MOL    H9014148   1.424   1.945   3.958  1.2439  2.9651  0.5829
  100MOL    H9114149   1.264   1.992   4.013 -0.5623 -0.4043 -1.0239
  100MOL    H9214150   1.542   2.094   4.093  0.1486 -0.1529  0.2165
  100MOL    C9314151   1.371   2.200   4.184 -0.0863  0.1794  0.2057
  100MOL    C9414152   1.217   2.198   4.195 -0.3384 -0.1852 -0.2750
  100MOL    C9514153   1.161   2.090   4.266 -0.1161 -0.5610  0.0004
  100MOL    N9614154   1.110   2.006   4.328 -0.5721  0.0510 -0.1652
  100MOL    H9714155   1.399   2.171   4.286 -0.7658  2.4525  1.0638
  100MOL    H9814156   1.403   2.302   4.167  0.7071 -0.1008 -0.0321
  100MOL    H9914157   1.178   2.197   4.093 -1.1179 -0.9072  0.0292
  100MOL   C10014158   1.164   2.331   4.223  0.5499  0.4191  0.2435
  100MOL   C10114159   1.017   2.358   4.179  0.9180  0.2215  0.4714
  100MOL   C10214160   0.919   2.252   4.227  0.0276 -0.0121  0.1704
  100MOL   N10314161   0.840   2.178   4.266  0.2679  0.2893 -0.0424
  100MOL   H10414162   1.174   2.344   4.331 -0.5013 -0.3772  0.4437
  100MOL   H10514163   1.218   2.405   4.165 -1.5293  0.4724 -1.6864
  100MOL   H10614164   1.008   2.342   4.071 -0.2378  2.3127  0.2303
  100MOL   C10714165   0.963   2.492   4.216 -0.0537 -0.5607 -0.2771
  100MOL   C10814166   1.031   2.610   4.142  0.1612  0.0149 -0.8671
  100MOL   C10914167   1.008   2.589   4.000 -0.3189  0.6300  0.2909
  100MOL   N11014168   0.990   2.575   3.889 -0.3975  1.1564  0.3736
  100MOL   H11114169   0.856   2.491   4.194 -0.1969 -1.5389  0.4154
  100MOL   H11214170   0.950   2.508   4.323  0.2392 -0.9733 -0.1761
  100MOL   H11314171   1.137   2.599   4.167  0.7826  0.0601 -3.3426
  100MOL   C11414172   0.974   2.744   4.191  0.4564 -0.5022 -0.0357
  100MOL   C11514173   1.067   2.817   4.293 -0.1050  0.2861  0.4240
  100MOL   C11614174   1.183   2.862   4.219  0.5222 -0.8907 -0.9661
  100MOL   N11714175   1.280   2.899   4.164  0.9519  0.1284  0.0689
  100MOL   H11814176   0.945   2.819   4.117 -3.3358 -2.0518 -0.2214
  100MOL   H11914177   0.877   2.733   4.239  0.2570 -0.7154 -0.4806
  100MOL   H12014178   1.098   2.739   4.363 -0.5365 -1.3931 -1.2043
  100MOL   C12114179   1.003   2.937   4.362 -0.0088 -0.0360  0.0109
  100MOL   C12214180   1.083   3.001   4.479 -0.0017  0.1189 -0.2493
  100MOL   C12314181   1.025   3.128   4.507  0.1610 -0.5521  0.2084
  100MOL   N12414182   0.980   3.234   4.525 -0.5573 -0.3267  0.4880
  100MOL   H12514183   0.960   3.003   4.287  0.1167  0.3544  0.2815
  100MOL   H12614184   0.908   2.896   4.397 -0.6594  2.2959  1.0924
  100MOL   H12714185   1.184   3.022   4.446  1.0389 -4.3251 -0.2635
  100MOL   C12814186   1.095   2.911   4.609  0.6009  0.2249 -0.1049
  100MOL   C12914187   1.139   2.984   4.736 -0.5325  0.3143  0.6448
  100MOL   C13014188   1.117   2.906   4.850 -0.0908  0.3355 -0.1778
  100MOL   N13114189   1.095   2.841   4.944 -0.1505 -0.1712 -0.2453
  100MOL   H13214190   1.000   2.866   4.637 -0.1236 -0.4276 -3.4131
  100MOL   H13314191   1.157   2.825   4.585  0.6520 -0.3955  2.1626
  100MOL   H13414192   1.075   3.073   4.740 -1.1594 -0.0734 -0.5528
  100MOL   C13514193   1.287   3.043   4.746  0.0167  0.2164  0.1797
  100MOL   C13614194   1.336   3.070   4.889 -0.1289  0.0338  0.1982
  100MOL   C13714195   1.271   3.181   4.960 -0.3074  0.3812  0.1802
  100MOL   N13814196   1.222   3.272   5.019 -0.3536  0.2510  0.1228
  100MOL   H13914197   1.343   2.961   4.700  0.3793  0.8083 -0.4491
  100MOL   H14014198   1.305   3.126   4.678 -0.5407  0.1826 -0.0110
  100MOL   H14114199   1.437   3.108   4.874 -1.0402  1.9764 -1.2212
  100MOL   H14214200   1.354   2.985   4.955 -3.0301  0.0843  1.1360
  101MOL     C114201   4.966   1.312   6.035 -0.2811 -0.1393 -0.0884
  101MOL     C214202   4.895   1.365   6.169 -0.1037 -0.0872 -0.0706
  101MOL     C314203   4.983   1.343   6.284 -0.8163 -0.0804  0.0764
  101MOL     N414204   5.051   1.327   6.375 -0.2576 -0.0926  0.6537
  101MOL     H514205   5.055   1.369   6.007 -0.3036 -0.1802 -0.2405
  101MOL     H614206   4.891   1.294   5.958 -1.7310 -0.7411  1.4461
  101MOL     H714207   4.807   1.300   6.175  0.7643 -1.3301 -0.6181
  101MOL     H814208   5.012   1.213   6.038  2.7352  1.2069  0.2920
  101MOL     C914209   4.856   1.510   6.158 -0.0311 -0.1835  0.0356
  101MOL    C1014210   4.731   1.537   6.083 -0.5897 -0.0106  0.4800
  101MOL    C1114211   4.747   1.505   5.940  0.1750  0.2378  0.1216
  101MOL    N1214212   4.751   1.478   5.827 -0.2864 -0.0716  0.2717
  101MOL    H1314213   4.866   1.560   6.254 -1.6656 -2.6999  1.5646
  101MOL    H1414214   4.942   1.558   6.110 -0.8258 -0.3313 -1.5781
  101MOL    H1514215   4.729   1.645   6.077  1.3799  0.0924  1.3616
  101MOL    C1614216   4.598   1.496   6.143 -0.0182  0.0038  0.0510
  101MOL    C1714217   4.561   1.549   6.291 -0.4448  0.2948  0.3138
  101MOL    C1814218   4.606   1.688   6.314 -0.4654 -0.3190  0.1956
  101MOL    N1914219   4.650   1.797   6.334  0.5015  0.5500  0.1424
  101MOL    H2014220   4.522   1.534   6.075 -0.4549  0.3267  0.7129
  101MOL    H2114221   4.578   1.389   6.134 -0.9961 -0.0969  2.9749
  101MOL    H2214222   4.611   1.490   6.368 -1.2036 -0.3795  0.3027
  101MOL    C2314223   4.409   1.531   6.312  0.4347 -0.4608  0.1055
  101MOL    C2414224   4.345   1.564   6.455  0.2851  0.6014  0.5584
  101MOL    C2514225   4.407   1.489   6.563 -0.0451 -0.3776  0.1289
  101MOL    N2614226   4.452   1.429   6.650  0.0335 -0.6168  0.1656
  101MOL    H2714227   4.352   1.584   6.237  0.6122 -0.5500 -0.0944
  101MOL    H2814228   4.372   1.430   6.295  0.8485 -0.4678 -0.7805
  101MOL    H2914229   4.242   1.531   6.454  1.0333 -1.8851  1.4940
  101MOL    C3014230   4.344   1.715   6.492 -0.6251  0.3201 -0.4106
  101MOL    C3114231   4.308   1.816   6.371  0.4457  0.4838  0.3323
  101MOL    C3214232   4.195   1.774   6.289 -0.0343  0.4709 -0.3814
  101MOL    N3314233   4.105   1.734   6.220  0.2384  0.7095  0.1706
  101MOL    H3414234   4.287   1.732   6.583  1.1138 -1.1696  0.9805
  101MOL    H3514235   4.442   1.753   6.521 -0.6119 -0.7992  1.0363
  101MOL    H3614236   4.388   1.794   6.300  0.4852  1.5165  0.0358
  101MOL    C3714237   4.320   1.964   6.414  0.0135  0.1608 -0.0881
  101MOL    C3814238   4.192   2.025   6.467 -0.3687 -0.1716 -0.1082
  101MOL    C3914239   4.139   1.969   6.590  0.1086  0.6000 -0.4091
  101MOL    N4014240   4.092   1.922   6.686  0.2386 -0.3544  0.4668
  101MOL    H4114241   4.395   1.962   6.494 -1.8120 -0.8050  1.6313
  101MOL    H4214242   4.359   2.034   6.339 -0.7012 -0.5371 -1.1269
  101MOL    H4314243   4.121   2.002   6.387  0.1328 -0.3435 -0.5063
  101MOL    C4414244   4.201   2.182   6.480  0.5166 -0.0491  0.0489
  101MOL    C4514245   4.295   2.229   6.585  0.4707 -0.8327  0.2896
  101MOL    C4614246   4.397   2.329   6.544 -0.2719  0.5720  0.0876
  101MOL    N4714247   4.478   2.403   6.510 -0.2641  0.6236 -0.1949
  101MOL    H4814248   4.228   2.230   6.385  0.0677  0.9077  0.4006
  101MOL    H4914249   4.102   2.223   6.497  1.6121  1.9790  1.7435
  101MOL    H5014250   4.349   2.146   6.630 -0.8558 -1.3422  0.9542
  101MOL    C5114251   4.220   2.295   6.704 -0.4015  0.0838  0.5295
  101MOL    C5214252   4.309   2.353   6.812 -0.1606  0.3229  1.2643
  101MOL    C5314253   4.233   2.452   6.891 -0.0535 -0.5234 -0.7378
  101MOL    N5414254   4.177   2.526   6.958  0.7686  0.0533 -0.0992
  101MOL    H5514255   4.167   2.385   6.670 -0.7070 -0.2671  0.0703
  101MOL    H5614256   4.144   2.235   6.754  0.2088 -1.3497 -0.2610
  101MOL    H5714257   4.394   2.407   6.770  0.0763 -1.0138 -0.0199
  101MOL    C5814258   4.372   2.247   6.897 -0.1781  0.4981 -0.2285
  101MOL    C5914259   4.483   2.283   7.008  0.3962  0.4212  0.8131
  101MOL    C6014260   4.457   2.401   7.093  0.1469  0.0713  0.2693
  101MOL    N6114261   4.446   2.492   7.161 -0.4516  0.2342  0.4761
  101MOL    H6214262   4.286   2.199   6.943 -0.5650  0.7270 -0.7062
  101MOL    H6314263   4.410   2.164   6.836 -1.9118  0.2515 -1.0274
  101MOL    H6414264   4.565   2.333   6.958  0.6056  0.0226  0.7542
  101MOL    C6514265   4.516   2.153   7.078  0.6382 -0.2134 -0.2126
  101MOL    C6614266   4.614   2.151   7.199  0.0175 -0.4242 -0.4545
  101MOL    C6714267   4.723   2.248   7.175 -0.3498  0.3724 -0.4332
  101MOL    N6814268   4.799   2.329   7.156  0.0351 -0.2312 -0.5447
  101MOL    H6914269   4.421   2.104   7.099  0.3462  0.0292 -0.9393
  101MOL    H7014270   4.568   2.107   6.993  0.7418  0.9950 -0.8131
  101MOL    H7114271   4.641   2.046   7.214  1.7718  0.0866  0.1249
  101MOL    C7214272   4.541   2.174   7.331 -0.5677  0.6490  0.0384
  101MOL    C7314273   4.422   2.087   7.377 -0.1946  0.4908  0.2203
  101MOL    C7414274   4.458   1.947   7.399  0.4515  0.1587 -0.0933
  101MOL    N7514275   4.485   1.834   7.419  0.2226 -0.8445  0.1592
  101MOL    H7614276   4.609   2.161   7.415  2.4630  1.5211 -2.2027
  101MOL    H7714277   4.513   2.279   7.327  0.4441  0.9039 -0.3965
  101MOL    H7814278   4.341   2.075   7.306 -0.7738  1.7116  0.6610
  101MOL    C7914279   4.351   2.141   7.501 -0.2134 -0.2688  1.0052
  101MOL    C8014280   4.284   2.281   7.489 -0.9645 -0.1818  0.3764
  101MOL    C8114281   4.218   2.294   7.356  0.0117 -0.2793  0.3509
  101MOL    N8214282   4.173   2.296   7.249  0.7927  0.2303  0.2783
  101MOL    H8314283   4.277   2.063   7.519 -1.9421  1.5988  2.1947
  101MOL    H8414284   4.426   2.134   7.579  0.3006  1.2707  0.6504
  101MOL    H8514285   4.353   2.365   7.480 -0.9361 -0.0235  1.9194
  101MOL    C8614286   4.180   2.310   7.597  0.6329  0.3121 -0.5126
  101MOL    C8714287   4.215   2.313   7.747  0.4417  0.0416  0.0363
  101MOL    C8814288   4.351   2.366   7.774  0.1906  1.1867 -0.4651
  101MOL    N8914289   4.457   2.407   7.787 -0.1093 -0.0449  0.0157
  101MOL    H9014290   4.148   2.413   7.583 -1.0088  0.3104  2.7209
  101MOL    H9114291   4.085   2.261   7.580  0.0596  1.4375 -0.5993
  101MOL    H9214292   4.218   2.210   7.783  1.2309  0.5418  1.3995
  101MOL    C9314293   4.104   2.394   7.816 -0.1481 -0.0180  0.5373
  101MOL    C9414294   3.953   2.370   7.778 -0.3491 -0.0664 -0.3389
  101MOL    C9514295   3.929   2.226   7.777  0.3689  0.2131 -0.0068
  101MOL    N9614296   3.908   2.112   7.771 -1.2276  0.0958 -0.3436
  101MOL    H9714297   4.106   2.368   7.921  3.1706 -0.8964  0.2969
  101MOL    H9814298   4.122   2.502   7.811  1.4679 -0.3096 -0.1583
  101MOL    H9914299   3.929   2.391   7.673  0.8217 -0.4457 -0.6879
  101MOL   C10014300   3.853   2.440   7.877 -0.2538  0.3676  0.1996
  101MOL   C10114301   3.814   2.591   7.864 -0.0976 -1.1709 -0.2929
  101MOL   C10214302   3.917   2.685   7.887  0.4780  0.1141 -0.7443
  101MOL   N10314303   4.006   2.751   7.907  0.1733 -0.0723 -0.1242
  101MOL   H10414304   3.754   2.395   7.870 -0.2984  0.4008  0.5921
  101MOL   H10514305   3.883   2.435   7.982  2.1727  0.0885 -0.4773
  101MOL   H10614306   3.736   2.612   7.937 -1.0742 -1.7039 -1.1593
  101MOL   C10714307   3.746   2.625   7.728  0.2435  0.6611  0.7312
  101MOL   C10814308   3.735   2.774   7.685  0.3842 -0.3137 -0.6445
  101MOL   C10914309   3.702   2.776   7.538 -0.2391  0.4344  0.6550
  101MOL   N11014310   3.682   2.774   7.424 -0.0798 -1.1068 -0.4500
  101MOL   H11114311   3.814   2.585   7.652 -0.7389  0.0300  0.1735
  101MOL   H11214312   3.649   2.579   7.712 -0.7834  2.6017  1.3206
  101MOL   H11314313   3.830   2.826   7.683 -0.5952  1.4894 -1.3341
  101MOL   C11414314   3.630   2.849   7.768  0.1803  1.0346  0.4821
  101MOL   C11514315   3.626   2.994   7.757  0.1640 -0.2892 -0.3978
  101MOL   C11614316   3.759   3.056   7.751 -0.8341 -0.1260 -0.5314
  101MOL   N11714317   3.865   3.100   7.747  0.0926  0.1165 -0.4934
  101MOL   H11814318   3.536   2.796   7.753  0.7750  0.5440 -1.7546
  101MOL   H11914319   3.648   2.837   7.874 -2.4381  0.0940  0.8689
  101MOL   H12014320   3.564   3.035   7.836 -0.1582  0.7864 -1.1946
  101MOL   C12114321   3.555   3.043   7.627  0.4985 -0.1608  0.3434
  101MOL   C12214322   3.404   3.007   7.613 -0.4715 -0.9735 -0.9585
  101MOL   C12314323   3.320   3.092   7.698 -0.2481  0.5897 -0.2401
  101MOL   N12414324   3.262   3.155   7.772  0.1668 -0.0986 -0.3985
  101MOL   H12514325   3.570   3.151   7.628  1.9766 -0.3567  0.6076
  101MOL   H12614326   3.615   3.003   7.545  0.5574  0.8820 -0.1259
  101MOL   H12714327   3.381   2.911   7.657  0.5802 -0.9897 -0.4205
  101MOL   C12814328   3.363   3.012   7.466  0.9383 -0.5369  0.6730
  101MOL   C12914329   3.221   2.976   7.414  0.5135 -0.0965 -0.3633
  101MOL   C13014330   3.142   2.889   7.506  0.0122  0.0191 -0.7032
  101MOL   N13114331   3.084   2.818   7.574 -0.7475  0.4514  0.5860
  101MOL   H13214332   3.396   3.106   7.421 -0.1358 -0.9050 -0.9253
  101MOL   H13314333   3.432   2.945   7.414  0.9491  1.3868 -1.8915
  101MOL   H13414334   3.236   2.912   7.328 -1.9675 -0.4618 -0.5592
  101MOL   C13514335   3.140   3.102   7.367 -0.1648  0.7828  0.1530
  101MOL   C13614336   3.001   3.079   7.304 -0.2044 -0.0003 -0.2973
  101MOL   C13714337   2.921   3.201   7.302  0.1439 -0.5738  0.1992
  101MOL   N13814338   2.862   3.302   7.297  0.1764 -0.5024  0.1405
  101MOL   H13914339   3.115   3.174   7.444  0.3128  1.8099 -0.6430
  101MOL   H14014340   3.201   3.158   7.297  0.5852  1.1518  1.0894
  101MOL   H14114341   2.942   2.997   7.345 -1.0642  0.3611 -0.7917
  101MOL   H14214342   3.013   3.056   7.199  0.3120 -0.1486 -0.2079
  102MOL     C114343   4.132   2.552   6.113  0.5346  1.3926 -0.2410
  102MOL     C214344   4.146   2.702   6.081 -0.9653  0.7299 -0.3274
  102MOL     C314345   4.027   2.782   6.062 -0.0243  0.2749  0.0491
  102MOL     N414346   3.933   2.845   6.051  0.1744  0.0517 -0.8860
  102MOL     H514347   4.223   2.492   6.122  2.1394  3.4718 -2.0617
  102MOL     H614348   4.073   2.509   6.032  0.3790  1.7648 -0.3271
  102MOL     H714349   4.193   2.702   5.982 -0.7698 -2.0772 -0.2838
  102MOL     H814350   4.079   2.544   6.208  1.5561  0.3709  0.2536
  102MOL     C914351   4.248   2.766   6.182  1.1185  0.2055 -0.4455
  102MOL    C1014352   4.329   2.889   6.119  0.3072 -0.1481 -0.3581
  102MOL    C1114353   4.254   3.013   6.081  0.8512 -0.1625  0.0153
  102MOL    N1214354   4.194   3.112   6.054  0.1240  0.3302  0.3918
  102MOL    H1314355   4.180   2.800   6.260  0.0899 -0.9528 -0.8128
  102MOL    H1414356   4.321   2.699   6.227  0.4244  1.4427  2.6136
  102MOL    H1514357   4.364   2.848   6.024 -1.7860 -1.8067 -0.4602
  102MOL    C1614358   4.448   2.922   6.217 -0.3184 -0.0341 -0.6918
  102MOL    C1714359   4.421   3.010   6.337  0.2476 -0.1968  0.6357
  102MOL    C1814360   4.512   2.965   6.445 -0.7438  0.1111  0.3456
  102MOL    N1914361   4.579   2.945   6.536 -0.4646  0.4098  0.2057
  102MOL    H2014362   4.511   2.838   6.246 -0.3210  0.3146  0.3518
  102MOL    H2114363   4.519   2.977   6.155  3.5177 -0.4977  2.9879
  102MOL    H2214364   4.319   2.983   6.366 -0.2349 -2.2345 -2.7048
  102MOL    C2314365   4.442   3.166   6.314  0.5919  0.4351 -0.0846
  102MOL    C2414366   4.589   3.207   6.313 -0.0944  0.4683  0.1719
  102MOL    C2514367   4.683   3.115   6.249  0.1369  0.3732  0.0305
  102MOL    N2614368   4.757   3.043   6.201 -0.5760 -0.0879  0.5662
  102MOL    H2714369   4.399   3.203   6.221  1.5460 -1.6916 -1.4185
  102MOL    H2814370   4.375   3.227   6.375  0.1736  0.3066 -0.4113
  102MOL    H2914371   4.624   3.216   6.416  0.6328 -2.2787  0.2060
  102MOL    C3014372   4.605   3.358   6.271  0.2374  0.1423 -0.0086
  102MOL    C3114373   4.749   3.408   6.263  0.0855  0.2472  0.3973
  102MOL    C3214374   4.790   3.401   6.124 -0.8725 -0.1512  0.2323
  102MOL    N3314375   4.826   3.403   6.010 -0.7407  0.1518  0.3151
  102MOL    H3414376   4.566   3.360   6.169 -2.0103  1.1996  0.8339
  102MOL    H3514377   4.543   3.432   6.321 -1.0932 -0.3657 -0.8946
  102MOL    H3614378   4.808   3.332   6.315  0.9682 -0.5815 -1.7929
  102MOL    C3714379   4.775   3.538   6.337 -0.3558 -0.9510  0.0050
  102MOL    C3814380   4.918   3.577   6.375 -0.6526  1.1082 -0.1007
  102MOL    C3914381   4.986   3.466   6.452  0.8429  0.3914 -0.2454
  102MOL    N4014382   5.038   3.375   6.495 -0.5472 -0.3743  0.9416
  102MOL    H4114383   4.736   3.622   6.280 -1.0839 -0.7084  0.8417
  102MOL    H4214384   4.720   3.545   6.432  2.2677  0.0270  1.5024
  102MOL    H4314385   4.934   3.668   6.433 -0.8915  0.7509  0.5317
  102MOL    C4414386   4.999   3.607   6.249  0.3936 -0.7853  0.0146
  102MOL    C4514387   5.151   3.627   6.268  0.1622 -0.1083 -0.2467
  102MOL    C4614388   5.218   3.636   6.133 -0.2854 -0.0760 -0.5115
  102MOL    N4714389   5.273   3.641   6.035 -0.4449 -0.4289  0.6376
  102MOL    H4814390   4.994   3.537   6.166 -1.5137 -1.2405  0.5019
  102MOL    H4914391   4.962   3.703   6.214 -1.6915 -1.5110  0.1670
  102MOL    H5014392   5.179   3.542   6.331 -4.4846 -0.4306  1.5860
  102MOL    C5114393   5.198   3.735   6.355 -0.8374 -0.3076  0.1997
  102MOL    C5214394   5.203   3.878   6.300  0.0025  0.3522 -0.4180
  102MOL    C5314395   5.097   3.916   6.196 -0.3181  0.0933 -0.8253
  102MOL    N5414396   5.017   3.942   6.115  0.0828  0.5888  0.4963
  102MOL    H5514397   5.149   3.746   6.452  0.1861  1.6337  0.5273
  102MOL    H5614398   5.300   3.704   6.373 -0.7854 -0.8896 -1.0067
  102MOL    H5714399   5.288   3.875   6.232 -0.4765  0.2743 -1.0153
  102MOL    C5814400   5.207   3.988   6.417  0.9578  0.2498 -0.0272
  102MOL    C5914401   5.309   3.961   6.530  0.4624 -0.4810  0.1327
  102MOL    C6014402   5.439   3.928   6.471  0.1039  0.9861  0.3708
  102MOL    N6114403   5.544   3.894   6.432 -0.0399 -0.0945 -0.0220
  102MOL    H6214404   5.214   4.092   6.386 -0.2496  0.8280  1.5781
  102MOL    H6314405   5.110   3.979   6.466  0.6722 -0.1727 -0.6701
  102MOL    H6414406   5.290   3.871   6.588  1.6016 -0.5494  0.4208
  102MOL    C6514407   5.312   4.076   6.635 -0.0371  0.4050 -0.6871
  102MOL    C6614408   5.354   4.032   6.773  0.0963 -0.4199 -0.0858
  102MOL    C6714409   5.251   3.954   6.842  0.6844 -0.6607  0.3704
  102MOL    N6814410   5.166   3.892   6.899  0.1588  0.2608  0.0630
  102MOL    H6914411   5.390   4.148   6.608  0.7375  0.2483  1.0568
  102MOL    H7014412   5.221   4.136   6.631  0.2461  0.7453 -2.2998
  102MOL    H7114413   5.363   4.127   6.825  0.0071 -0.0823 -0.6824
  102MOL    C7214414   5.491   3.964   6.790 -0.1064  0.2809 -0.1202
  102MOL    C7314415   5.608   4.036   6.733 -0.0858  0.5187 -0.2162
  102MOL    C7414416   5.636   4.164   6.798 -0.4108  1.0729 -0.6189
  102MOL    N7514417   5.659   4.263   6.847  0.3214  0.3070 -0.0672
  102MOL    H7614418   5.499   3.954   6.898 -0.3646 -1.8739 -0.2861
  102MOL    H7714419   5.475   3.864   6.751 -0.1954  0.1937  0.1410
  102MOL    H7814420   5.595   4.070   6.630  0.4429  0.3923 -0.3242
  102MOL    C7914421   5.728   3.948   6.728  0.2316 -0.1158 -0.1760
  102MOL    C8014422   5.850   4.015   6.665 -0.3225 -1.1873  0.6959
  102MOL    C8114423   5.962   3.924   6.646 -0.5634 -0.2366  1.3894
  102MOL    N8214424   6.049   3.849   6.629  0.1718 -0.1956  0.1376
  102MOL    H8314425   5.767   3.918   6.825  2.3218  1.1020 -0.5929
  102MOL    H8414426   5.702   3.850   6.688  1.0067 -0.7103  0.7368
  102MOL    H8514427   5.883   4.093   6.734 -4.0005  1.0202  0.0534
  102MOL    C8614428   5.823   4.070   6.516 -0.2802  0.4153  0.0620
  102MOL    C8714429   5.940   4.112   6.426 -0.9143 -0.1566 -0.9827
  102MOL    C8814430   5.906   4.132   6.290 -0.1990  0.6446  0.5426
  102MOL    N8914431   5.885   4.144   6.177  0.1629  0.0956  0.3825
  102MOL    H9014432   5.757   3.997   6.470 -0.1895  0.0218  0.5456
  102MOL    H9114433   5.759   4.158   6.524  1.4228  1.7315 -0.4680
  102MOL    H9214434   6.006   4.025   6.426  0.5226  0.9168 -1.7554
  102MOL    C9314435   6.019   4.237   6.483  0.9645 -0.0895 -0.3305
  102MOL    C9414436   6.150   4.277   6.408  0.9914 -0.0292 -0.4891
  102MOL    C9514437   6.136   4.339   6.278  0.5801 -0.5321 -0.9232
  102MOL    N9614438   6.123   4.392   6.175 -0.5703 -0.2427 -0.3345
  102MOL    H9714439   5.948   4.319   6.496  1.2216  0.0727  0.0819
  102MOL    H9814440   6.046   4.211   6.586 -1.9467 -0.9033  0.2687
  102MOL    H9914441   6.192   4.179   6.384  1.0371 -0.1930  0.2307
  102MOL   C10014442   6.255   4.355   6.501  0.4625 -0.0372  0.4031
  102MOL   C10114443   6.225   4.502   6.526  0.4464  0.2089 -0.4357
  102MOL   C10214444   6.083   4.539   6.556  0.0590 -0.5705 -0.5976
  102MOL   N10314445   5.971   4.561   6.580 -0.4796  0.2569 -0.6991
  102MOL   H10414446   6.270   4.298   6.593  0.0029 -0.8346 -0.0090
  102MOL   H10514447   6.352   4.353   6.450  1.7906  0.4671  2.8507
  102MOL   H10614448   6.250   4.541   6.428  2.9749 -0.7772 -0.2293
  102MOL   C10714449   6.321   4.577   6.624  0.6840  0.6874 -0.6185
  102MOL   C10814450   6.283   4.578   6.774  0.3041 -0.0073 -0.2766
  102MOL   C10914451   6.221   4.454   6.819 -0.6996 -0.1448 -0.5633
  102MOL   N11014452   6.174   4.351   6.851 -0.1661  0.1699  0.1757
  102MOL   H11114453   6.423   4.540   6.616  1.2438  1.9357  0.5733
  102MOL   H11214454   6.335   4.677   6.583 -1.2059  1.4834  0.6052
  102MOL   H11314455   6.198   4.645   6.790  1.0581  0.3014  2.7272
  102MOL   C11414456   6.389   4.633   6.868 -0.1718 -0.1150  0.0847
  102MOL   C11514457   6.407   4.558   7.004 -0.0029  0.3830 -0.1642
  102MOL   C11614458   6.471   4.430   6.982  0.4129  0.0120  1.0840
  102MOL   N11714459   6.513   4.327   6.963 -0.4704 -0.2000  0.6187
  102MOL   H11814460   6.486   4.632   6.819 -0.6528 -1.3228 -0.8660
  102MOL   H11914461   6.366   4.739   6.882 -1.3758 -0.1869 -1.2319
  102MOL   H12014462   6.312   4.531   7.049  0.7689  0.9786  1.8856
  102MOL   C12114463   6.482   4.647   7.110 -0.0296 -0.0922 -0.3272
  102MOL   C12214464   6.544   4.587   7.232 -0.7736  0.6967  0.5853
  102MOL   C12314465   6.673   4.520   7.202 -0.4114  0.6891  0.1170
  102MOL   N12414466   6.776   4.470   7.177  0.2157  0.7103 -0.1645
  102MOL   H12514467   6.555   4.704   7.051  0.5387 -0.3144  0.1595
  102MOL   H12614468   6.407   4.723   7.135 -0.6614 -0.5775 -0.7226
  102MOL   H12714469   6.483   4.502   7.262 -0.8440  0.7278  0.5296
  102MOL   C12814470   6.573   4.690   7.345 -0.3848 -0.3791  0.2604
  102MOL   C12914471   6.663   4.811   7.322  0.3154  0.0320 -0.0266
  102MOL   C13014472   6.595   4.904   7.227 -0.1600  0.6529  0.1220
  102MOL   N13114473   6.537   4.980   7.162  0.5619  0.4142 -0.3757
  102MOL   H13214474   6.479   4.721   7.389 -0.5538  0.0850 -0.4269
  102MOL   H13314475   6.631   4.639   7.422  1.4792  0.8838 -0.2559
  102MOL   H13414476   6.753   4.786   7.265  0.1337 -2.2802  0.6735
  102MOL   C13514477   6.707   4.882   7.454  0.7066 -0.7887  0.2087
  102MOL   C13614478   6.779   5.015   7.453  0.2242  0.2020  0.1151
  102MOL   C13714479   6.702   5.141   7.435 -0.7795  1.0476 -0.2219
  102MOL   N13814480   6.641   5.238   7.421  0.0052  0.2773  0.3914
  102MOL   H13914481   6.623   4.894   7.523  0.6356 -0.1386  0.0123
  102MOL   H14014482   6.761   4.808   7.513 -2.3122 -1.8547  1.7261
  102MOL   H14114483   6.855   5.019   7.376  0.9431 -0.8406  0.7569
  102MOL   H14214484   6.835   5.036   7.544  1.1989 -0.9065 -0.2160
  103MOL     C114485   4.254   2.755   5.444  0.4166 -0.7714  0.4133
  103MOL     C214486   4.322   2.628   5.495 -0.1920  0.0159  0.0396
  103MOL     C314487   4.426   2.586   5.406  0.0278 -0.2648  1.0116
  103MOL     N414488   4.512   2.558   5.334  0.1000 -0.4371 -0.1043
  103MOL     H514489   4.320   2.841   5.455  0.1498 -0.4167 -0.6756
  103MOL     H614490   4.161   2.773   5.498  0.8877  1.1073  0.6136
  103MOL     H714491   4.240   2.556   5.492 -0.4726  0.2645  1.3127
  103MOL     H814492   4.241   2.734   5.338 -0.0508  2.8005 -0.2912
  103MOL     C914493   4.378   2.654   5.633 -0.2702  0.2971  0.0388
  103MOL    C1014494   4.474   2.546   5.691  0.3553  0.0102  0.0995
  103MOL    C1114495   4.503   2.587   5.827  0.2564  1.0246 -0.0788
  103MOL    N1214496   4.518   2.619   5.939 -0.4154  0.0051 -0.1914
  103MOL    H1314497   4.447   2.739   5.636  3.0981 -2.3695  0.8640
  103MOL    H1414498   4.297   2.680   5.700 -1.6852  0.1463 -1.5921
  103MOL    H1514499   4.560   2.555   5.625  1.6716 -1.9651  1.4775
  103MOL    C1614500   4.424   2.401   5.674  0.3718 -0.0572 -0.5313
  103MOL    C1714501   4.312   2.353   5.770 -0.1480 -0.5318  0.2266
  103MOL    C1814502   4.186   2.421   5.734 -0.1050  0.0310  0.2579
  103MOL    N1914503   4.091   2.476   5.696  1.0666 -0.8906 -0.0561
  103MOL    H2014504   4.379   2.390   5.576  1.1596 -0.4359 -0.8592
  103MOL    H2114505   4.514   2.339   5.672  0.6764  0.3206  0.8424
  103MOL    H2214506   4.330   2.380   5.874 -0.4442  1.0089 -0.1079
  103MOL    C2314507   4.278   2.204   5.759 -0.8673  0.1843 -0.2635
  103MOL    C2414508   4.387   2.120   5.823 -0.9207 -0.4025 -0.1860
  103MOL    C2514509   4.352   2.120   5.971 -0.3223 -0.0864 -0.1629
  103MOL    N2614510   4.332   2.130   6.089  0.2214  0.1521  0.4800
  103MOL    H2714511   4.182   2.173   5.802 -1.5961  0.0280 -1.9620
  103MOL    H2814512   4.275   2.188   5.651 -0.2292 -3.1944  0.1616
  103MOL    H2914513   4.482   2.170   5.804 -1.5505  1.3080  0.9818
  103MOL    C3014514   4.403   1.977   5.761 -0.3524  0.3985 -0.0031
  103MOL    C3114515   4.505   1.881   5.821  0.7045  0.2071 -0.6007
  103MOL    C3214516   4.466   1.827   5.953 -0.1098  0.2773  0.3399
  103MOL    N3314517   4.444   1.788   6.061 -0.0272  0.1983 -0.5184
  103MOL    H3414518   4.311   1.919   5.754 -0.0339 -0.4918  2.6107
  103MOL    H3514519   4.441   1.989   5.659  0.5650 -0.4411  0.2301
  103MOL    H3614520   4.599   1.931   5.842  0.6334  0.0036  0.2152
  103MOL    C3714521   4.534   1.757   5.728 -0.5421  0.1452  0.4009
  103MOL    C3814522   4.608   1.772   5.594 -0.3707  1.3117  0.1620
  103MOL    C3914523   4.749   1.802   5.620 -0.2314  0.1320 -0.1505
  103MOL    N4014524   4.865   1.821   5.639 -0.6372  0.0097  0.8499
  103MOL    H4114525   4.589   1.684   5.788 -1.6831 -0.1675  1.0765
  103MOL    H4214526   4.438   1.712   5.703  0.3227 -1.8414  0.5509
  103MOL    H4314527   4.568   1.856   5.536  0.1250  1.2570 -0.2559
  103MOL    C4414528   4.587   1.648   5.506  0.1179  0.4570  0.0498
  103MOL    C4514529   4.449   1.636   5.440  0.5068 -0.0308 -0.0408
  103MOL    C4614530   4.415   1.749   5.354 -0.3763 -0.4897  0.1730
  103MOL    N4714531   4.385   1.837   5.282  0.3906  0.4733  0.6151
  103MOL    H4814532   4.664   1.634   5.430  0.8229 -0.4628  0.9245
  103MOL    H4914533   4.607   1.554   5.558 -0.0865 -0.1869 -1.0280
  103MOL    H5014534   4.370   1.648   5.513 -0.1281 -1.1121 -0.5253
  103MOL    C5114535   4.417   1.498   5.373  0.5294  0.0314  0.1365
  103MOL    C5214536   4.269   1.477   5.341 -0.5502  0.7590 -0.2738
  103MOL    C5314537   4.180   1.465   5.459  0.0958  0.4731 -0.2744
  103MOL    N5414538   4.110   1.455   5.551  0.0067 -0.2444  0.6675
  103MOL    H5514539   4.466   1.476   5.278 -1.6860  2.0947 -1.5338
  103MOL    H5614540   4.440   1.420   5.446  0.9325 -0.4044 -0.4523
  103MOL    H5714541   4.277   1.374   5.305 -1.7845  0.4358  0.3467
  103MOL    C5814542   4.203   1.554   5.224 -0.3051 -0.1430 -0.2175
  103MOL    C5914543   4.089   1.467   5.167 -0.0111  0.8013 -0.2519
  103MOL    C6014544   3.987   1.556   5.108 -1.1028  0.3709  0.6608
  103MOL    N6114545   3.914   1.629   5.061  0.4504  0.3903 -0.1710
  103MOL    H6214546   4.162   1.649   5.259 -0.3216 -0.3509  0.3444
  103MOL    H6314547   4.280   1.568   5.149 -1.2828 -1.1502 -1.4281
  103MOL    H6414548   4.037   1.407   5.242 -0.8080  0.0434 -1.3968
  103MOL    C6514549   4.136   1.368   5.047 -0.0123 -0.0018  0.2672
  103MOL    C6614550   4.226   1.250   5.075  0.1200  0.6701 -0.0511
  103MOL    C6714551   4.156   1.155   5.173  0.3825  0.2698  1.0476
  103MOL    N6814552   4.099   1.086   5.247  0.0015  0.2165  0.5588
  103MOL    H6914553   4.050   1.338   4.989 -2.0060  2.3215  1.8935
  103MOL    H7014554   4.191   1.431   4.978 -0.4623 -0.4530 -0.5018
  103MOL    H7114555   4.311   1.289   5.130 -0.2645  0.1846  0.9027
  103MOL    C7214556   4.263   1.184   4.950  0.5299  0.2721  0.2396
  103MOL    C7314557   4.367   1.071   4.962  0.5847  0.7936 -0.3761
  103MOL    C7414558   4.297   0.946   5.009  0.6471  0.5570  1.0161
  103MOL    N7514559   4.250   0.847   5.049  0.4724  0.5690  0.2557
  103MOL    H7614560   4.176   1.154   4.890  0.7328 -1.1611  0.6658
  103MOL    H7714561   4.307   1.258   4.882  2.6334 -1.5799 -0.4555
  103MOL    H7814562   4.437   1.094   5.042  0.6483 -0.2391 -0.1276
  103MOL    C7914563   4.443   1.055   4.833  0.1688 -0.6698  0.2702
  103MOL    C8014564   4.561   0.959   4.842  0.4120 -0.1816 -1.0659
  103MOL    C8114565   4.533   0.814   4.845  0.1798 -0.2297  0.3293
  103MOL    N8214566   4.517   0.699   4.849 -0.3946  0.5539  0.4205
  103MOL    H8314567   4.373   1.012   4.762 -0.1544  0.3293 -0.0192
  103MOL    H8414568   4.470   1.150   4.787  0.2786 -0.0166  1.6686
  103MOL    H8514569   4.619   0.978   4.932 -1.1162  2.0522 -0.5072
  103MOL    C8614570   4.644   0.969   4.720  0.5373  0.4535  0.7918
  103MOL    C8714571   4.786   0.894   4.720  0.4005  0.5967  0.1055
  103MOL    C8814572   4.838   0.864   4.854  0.0853  0.0289  0.3402
  103MOL    N8914573   4.869   0.846   4.964 -0.6298 -0.0870  0.6505
  103MOL    H9014574   4.584   0.935   4.636  1.0933  0.6548  0.3060
  103MOL    H9114575   4.669   1.072   4.693  0.1472  0.0324 -1.2777
  103MOL    H9214576   4.854   0.963   4.668 -0.2362  0.2712 -1.1910
  103MOL    C9314577   4.778   0.770   4.622 -0.1869  0.0629 -0.3638
  103MOL    C9414578   4.916   0.713   4.579  0.3684  0.3313 -0.1071
  103MOL    C9514579   5.002   0.673   4.695 -0.0086  0.0100  0.2517
  103MOL    N9614580   5.069   0.646   4.787 -0.2833  0.2380 -0.1730
  103MOL    H9714581   4.725   0.685   4.665  0.5998 -0.6321 -0.7623
  103MOL    H9814582   4.736   0.789   4.524 -2.4046 -2.1765  0.0980
  103MOL    H9914583   4.968   0.800   4.538  0.4906  0.6001  0.6192
  103MOL   C10014584   4.911   0.604   4.474 -0.1385 -0.4025  0.1806
  103MOL   C10114585   5.032   0.602   4.377 -0.6968 -0.4569  0.4277
  103MOL   C10214586   5.157   0.649   4.441 -0.3081  1.2504  0.3135
  103MOL   N10314587   5.261   0.685   4.477  0.4254 -0.5599 -0.4915
  103MOL   H10414588   4.892   0.508   4.523 -0.7871 -0.5342 -0.3131
  103MOL   H10514589   4.820   0.622   4.416 -0.1147 -0.3360  0.1644
  103MOL   H10614590   5.014   0.681   4.305  1.1935 -1.2034 -0.8983
  103MOL   C10714591   5.060   0.463   4.314  0.3109  0.5628 -0.2872
  103MOL   C10814592   4.970   0.440   4.188 -0.1213 -0.2252  0.9139
  103MOL   C10914593   5.049   0.387   4.080 -0.0871  0.4216  0.0200
  103MOL   N11014594   5.106   0.338   3.995 -0.0764  0.5480 -0.2276
  103MOL   H11114595   5.163   0.460   4.278 -0.3992 -1.5377 -2.1999
  103MOL   H11214596   5.050   0.390   4.394 -0.6672 -0.6628 -1.5055
  103MOL   H11314597   4.953   0.540   4.148 -0.5884 -0.5570  0.2912
  103MOL   C11414598   4.834   0.369   4.214  0.2306 -0.4879 -0.3072
  103MOL   C11514599   4.715   0.441   4.144  0.0016 -0.6317 -1.0458
  103MOL   C11614600   4.746   0.475   4.004  0.3731 -0.5321 -0.1672
  103MOL   N11714601   4.769   0.498   3.892 -0.3063  0.1471 -0.4249
  103MOL   H11814602   4.846   0.270   4.171  0.5142 -0.9684  0.8690
  103MOL   H11914603   4.793   0.375   4.315 -1.6621 -0.0197 -1.0635
  103MOL   H12014604   4.704   0.536   4.195 -1.1196 -0.4234 -1.6631
  103MOL   C12114605   4.587   0.364   4.161  1.0480 -0.2833  0.1347
  103MOL   C12214606   4.460   0.424   4.096  0.6498 -0.2796 -0.6410
  103MOL   C12314607   4.365   0.326   4.037  0.0128 -0.0269  0.0046
  103MOL   N12414608   4.296   0.247   3.997 -0.0642  0.0322  0.1218
  103MOL   H12514609   4.602   0.265   4.119  0.6185  0.8157 -2.7179
  103MOL   H12614610   4.572   0.361   4.269 -3.1539  0.6868 -0.3302
  103MOL   H12714611   4.502   0.484   4.015  1.0729  0.0587 -0.1757
  103MOL   C12814612   4.377   0.506   4.197  0.1759 -0.3629 -0.0459
  103MOL   C12914613   4.237   0.558   4.142  0.2513 -0.1264 -0.2225
  103MOL   C13014614   4.150   0.607   4.256 -0.4949 -0.6646 -0.4568
  103MOL   N13114615   4.092   0.649   4.346  1.2354  0.1202  0.0029
  103MOL   H13214616   4.346   0.449   4.284  0.6360  0.6455  0.7877
  103MOL   H13314617   4.443   0.585   4.231 -1.9625  1.4932 -0.0279
  103MOL   H13414618   4.180   0.486   4.084 -0.1495 -1.4029  1.6898
  103MOL   C13514619   4.260   0.677   4.049 -0.3035  0.2634 -0.1360
  103MOL   C13614620   4.131   0.723   3.980 -0.1588  0.4124  0.2159
  103MOL   C13714621   4.122   0.847   3.909  0.1675 -0.4057 -0.3749
  103MOL   N13814622   4.116   0.949   3.859  0.6548  0.4897 -0.0424
  103MOL   H13914623   4.293   0.761   4.110 -1.1557  0.3682  0.1828
  103MOL   H14014624   4.344   0.653   3.984 -0.1423 -2.1834  0.8954
  103MOL   H14114625   4.053   0.726   4.057  2.4597  0.8418  2.9511
  103MOL   H14214626   4.091   0.653   3.906  1.5395  0.7376 -1.0405
  104MOL     C114627   6.324   4.823   2.874 -0.0799  0.0212 -0.0001
  104MOL     C214628   6.259   4.726   2.979  0.0024  0.8912 -0.8389
  104MOL     C314629   6.367   4.665   3.048  0.0387 -0.2194  0.1056
  104MOL     N414630   6.448   4.607   3.107  0.1439  0.5763 -0.5060
  104MOL     H514631   6.258   4.890   2.820 -0.1951  0.7288  1.0004
  104MOL     H614632   6.391   4.769   2.806  1.4212 -0.1177  1.5461
  104MOL     H714633   6.192   4.651   2.936  0.3248  2.0219 -3.3932
  104MOL     H814634   6.397   4.893   2.916 -1.0554  0.4922  0.9266
  104MOL     C914635   6.168   4.797   3.082  0.2033  0.3589  0.3063
  104MOL    C1014636   6.113   4.712   3.201  0.1873 -0.2454  0.1285
  104MOL    C1114637   6.066   4.792   3.307 -0.0545  0.6303  0.3345
  104MOL    N1214638   6.024   4.860   3.389 -0.1230  0.0968 -0.1746
  104MOL    H1314639   6.230   4.870   3.134  0.2978 -0.9345  2.0877
  104MOL    H1414640   6.086   4.851   3.036  1.5901  0.7332 -1.7776
  104MOL    H1514641   6.195   4.673   3.262  1.4286  1.7721 -0.2020
  104MOL    C1614642   6.013   4.602   3.159  0.2721 -0.2106  0.6762
  104MOL    C1714643   5.879   4.647   3.105  0.1751  0.1767  0.2340
  104MOL    C1814644   5.884   4.698   2.971  0.0734 -0.0969  0.1722
  104MOL    N1914645   5.896   4.732   2.862  0.3448  0.3257 -0.2075
  104MOL    H2014646   6.052   4.535   3.083 -1.3852  0.3485 -0.6810
  104MOL    H2114647   5.996   4.540   3.247  0.9481 -3.0540 -1.1474
  104MOL    H2214648   5.834   4.727   3.165 -1.1458 -1.0431  0.9273
  104MOL    C2314649   5.775   4.537   3.106  0.2711  0.1290  0.2287
  104MOL    C2414650   5.722   4.480   3.236 -1.0261 -0.6090 -0.7584
  104MOL    C2514651   5.645   4.588   3.302 -0.4029 -0.4635  0.3309
  104MOL    N2614652   5.584   4.668   3.358  0.1464  0.4614  0.3323
  104MOL    H2714653   5.682   4.570   3.058 -0.1621  1.6651  2.0375
  104MOL    H2814654   5.812   4.451   3.050  3.1693 -0.0742  2.3484
  104MOL    H2914655   5.811   4.448   3.291 -2.3838 -1.4523  0.9636
  104MOL    C3014656   5.623   4.364   3.213  0.4971  0.1976 -0.3287
  104MOL    C3114657   5.476   4.409   3.165  0.3934  0.1694  0.3683
  104MOL    C3214658   5.470   4.433   3.018  0.1680 -0.0268 -0.8360
  104MOL    N3314659   5.466   4.453   2.903  0.0201  0.6349  0.3221
  104MOL    H3414660   5.669   4.296   3.142  0.1297 -1.9638  1.4551
  104MOL    H3514661   5.610   4.298   3.298 -1.0125 -0.3163 -0.9505
  104MOL    H3614662   5.445   4.503   3.211  1.3515 -0.0622  1.5164
  104MOL    C3714663   5.373   4.308   3.210  0.4815 -0.2536 -0.0466
  104MOL    C3814664   5.376   4.170   3.144 -0.5642 -0.5609  0.4667
  104MOL    C3914665   5.489   4.092   3.192  0.2050 -0.2357 -0.7805
  104MOL    N4014666   5.577   4.026   3.229  0.3389  0.5800  0.4251
  104MOL    H4114667   5.376   4.306   3.319 -0.5587  3.0311  0.1018
  104MOL    H4214668   5.279   4.359   3.187  0.6252  1.3471  2.7600
  104MOL    H4314669   5.380   4.184   3.036  0.8075  3.3673  0.9421
  104MOL    C4414670   5.253   4.080   3.170 -0.2651  0.1219 -0.2550
  104MOL    C4514671   5.243   3.931   3.122  0.6127  0.2868  0.7819
  104MOL    C4614672   5.318   3.908   3.000 -0.3462  0.1418 -0.4506
  104MOL    N4714673   5.378   3.888   2.903  0.2913  0.1222 -0.5155
  104MOL    H4814674   5.234   4.086   3.277  0.6121 -1.7962  0.0297
  104MOL    H4914675   5.163   4.133   3.138  0.0066  0.4790 -0.4344
  104MOL    H5014676   5.136   3.912   3.109  0.9587 -1.9747  1.0593
  104MOL    C5114677   5.289   3.823   3.228 -0.1690 -0.1630 -0.2957
  104MOL    C5214678   5.239   3.827   3.375  0.0399 -0.1651 -0.1956
  104MOL    C5314679   5.102   3.865   3.364 -0.2778  0.5599 -0.7616
  104MOL    N5414680   4.988   3.894   3.364  0.3387  0.0513  0.5055
  104MOL    H5514681   5.266   3.723   3.191  1.7643 -0.4560 -0.7824
  104MOL    H5614682   5.397   3.837   3.232 -0.7445  4.3691  2.3809
  104MOL    H5714683   5.296   3.899   3.434  1.6336 -0.9770 -0.7159
  104MOL    C5814684   5.244   3.700   3.453  0.5167  0.3455  0.7097
  104MOL    C5914685   5.385   3.672   3.514 -0.5411  0.3558  0.2469
  104MOL    C6014686   5.412   3.774   3.621  1.0930  0.0165 -0.0023
  104MOL    N6114687   5.430   3.847   3.708  0.3190  0.2812 -0.0710
  104MOL    H6214688   5.168   3.705   3.530  0.8773 -0.4166  1.1227
  104MOL    H6314689   5.212   3.625   3.380  2.9280  0.6598 -0.7447
  104MOL    H6414690   5.460   3.686   3.436  1.4976 -0.9806  1.9167
  104MOL    C6514691   5.390   3.531   3.582  0.0234  1.1155 -0.0508
  104MOL    C6614692   5.519   3.474   3.639  0.5011 -0.3882  0.0834
  104MOL    C6714693   5.626   3.480   3.540  0.2481 -0.8512  1.2558
  104MOL    N6814694   5.709   3.489   3.464 -0.3507  0.8800  0.2516
  104MOL    H6914695   5.307   3.527   3.653 -0.1991  0.5265 -0.3441
  104MOL    H7014696   5.361   3.451   3.514 -0.6762 -1.6934  3.3910
  104MOL    H7114697   5.500   3.367   3.645  2.1448 -0.6872  0.1225
  104MOL    C7214698   5.557   3.529   3.783 -0.9050 -0.6370  0.0769
  104MOL    C7314699   5.684   3.472   3.854  0.1675 -0.5485  0.1655
  104MOL    C7414700   5.807   3.540   3.816 -0.5490  0.2151 -0.0384
  104MOL    N7514701   5.907   3.586   3.779  0.4798 -0.4299  0.0779
  104MOL    H7614702   5.553   3.637   3.797  0.1564 -0.8688  2.2737
  104MOL    H7714703   5.468   3.498   3.839 -1.1506  0.3997  0.2748
  104MOL    H7814704   5.689   3.367   3.825  0.9481 -0.5874  0.4289
  104MOL    C7914705   5.662   3.480   4.011  0.0957  1.0738 -0.6383
  104MOL    C8014706   5.772   3.403   4.089  0.2942 -0.5759 -0.4867
  104MOL    C8114707   5.905   3.458   4.098 -0.3087  0.5851 -0.3549
  104MOL    N8214708   6.015   3.497   4.104 -0.4496  0.4491 -0.0681
  104MOL    H8314709   5.664   3.583   4.046 -0.3407 -0.1289  3.2484
  104MOL    H8414710   5.566   3.436   4.039  1.5523 -0.5273  1.9879
  104MOL    H8514711   5.789   3.310   4.033  0.7463 -0.3557 -0.7250
  104MOL    C8614712   5.726   3.358   4.230 -0.2993 -0.0376  0.2640
  104MOL    C8714713   5.735   3.471   4.337  0.3236  0.0800  0.5201
  104MOL    C8814714   5.719   3.612   4.301 -0.2970 -0.3028 -0.0983
  104MOL    N8914715   5.712   3.721   4.268  0.0172 -0.5612  0.0128
  104MOL    H9014716   5.628   3.317   4.206 -0.5046  1.5047 -1.7534
  104MOL    H9114717   5.781   3.267   4.252  1.1818  0.4160 -1.4061
  104MOL    H9214718   5.834   3.467   4.381  0.7549  0.5204 -0.4036
  104MOL    C9314719   5.631   3.437   4.450  0.0987 -0.5933  0.8369
  104MOL    C9414720   5.481   3.420   4.419  0.0280  0.3020 -0.3218
  104MOL    C9514721   5.418   3.319   4.507 -0.6998 -0.0341 -0.3226
  104MOL    N9614722   5.369   3.241   4.583 -0.1931  0.1587  0.1888
  104MOL    H9714723   5.665   3.347   4.502  4.2968  0.4873  0.1005
  104MOL    H9814724   5.643   3.515   4.526 -3.0950 -0.5289  1.3504
  104MOL    H9914725   5.472   3.371   4.322 -1.2662  2.1404 -1.1539
  104MOL   C10014726   5.403   3.556   4.414  0.5866 -0.1202  0.3191
  104MOL   C10114727   5.251   3.540   4.381 -0.1310  0.3469 -0.0342
  104MOL   C10214728   5.196   3.675   4.412  0.7631 -0.9681 -0.0259
  104MOL   N10314729   5.153   3.780   4.428  0.0751 -0.1552 -0.0518
  104MOL   H10414730   5.413   3.612   4.507  1.6831 -0.3303  0.3317
  104MOL   H10514731   5.456   3.616   4.340  0.2902  2.7151  2.3401
  104MOL   H10614732   5.202   3.463   4.440  3.2088 -2.4611 -0.7603
  104MOL   C10714733   5.225   3.503   4.237  0.8242  0.1067  0.2102
  104MOL   C10814734   5.079   3.489   4.180  0.3505  0.4024 -0.8496
  104MOL   C10914735   5.014   3.617   4.159 -0.6029 -0.1182 -0.0084
  104MOL   N11014736   4.961   3.719   4.144  0.1474  1.1245  0.2426
  104MOL   H11114737   5.282   3.565   4.167 -0.9185  0.5217 -0.8740
  104MOL   H11214738   5.271   3.405   4.225  1.5701  0.6860 -1.9024
  104MOL   H11314739   5.012   3.430   4.242 -1.1464  0.8310 -2.0242
  104MOL   C11414740   5.072   3.421   4.042 -0.0818 -0.3225  0.3839
  104MOL   C11514741   4.932   3.383   3.990  0.3989 -0.1867  0.4852
  104MOL   C11614742   4.853   3.299   4.076 -1.0886 -0.1443 -0.7857
  104MOL   N11714743   4.789   3.234   4.145 -0.3095 -0.2031 -0.3472
  104MOL   H11814744   5.123   3.487   3.972 -0.8646  0.8397  0.8818
  104MOL   H11914745   5.117   3.323   4.053  1.3959  0.1021 -1.7199
  104MOL   H12014746   4.957   3.316   3.908 -1.1654 -1.0223  0.6637
  104MOL   C12114747   4.856   3.492   3.917  0.7480  0.7898  0.2283
  104MOL   C12214748   4.772   3.432   3.801  0.1247  0.5146 -0.5151
  104MOL   C12314749   4.662   3.334   3.841  0.0441 -0.0310  0.0527
  104MOL   N12414750   4.571   3.256   3.868 -0.6555  0.3858  0.2777
  104MOL   H12514751   4.783   3.536   3.985  0.7709  1.5147 -0.2134
  104MOL   H12614752   4.926   3.565   3.879  2.0612  0.1452  1.3889
  104MOL   H12714753   4.831   3.363   3.740  2.2982  1.2083  0.7646
  104MOL   C12814754   4.715   3.539   3.699 -0.2929  0.7838 -0.8714
  104MOL   C12914755   4.811   3.607   3.604  0.1340  0.4529  0.5219
  104MOL   C13014756   4.908   3.502   3.565 -0.3807 -0.0090  0.0775
  104MOL   N13114757   4.989   3.422   3.535  1.1280  0.0746 -0.2368
  104MOL   H13214758   4.655   3.481   3.630 -0.4580 -0.0183 -0.0617
  104MOL   H13314759   4.643   3.601   3.752  1.0304 -0.9196  3.0916
  104MOL   H13414760   4.872   3.690   3.639  0.5658  0.8049 -1.0074
  104MOL   C13514761   4.755   3.663   3.470  0.1171 -0.3466 -0.4245
  104MOL   C13614762   4.658   3.781   3.488  0.1371 -0.2302  0.3648
  104MOL   C13714763   4.700   3.884   3.581 -0.1225 -0.2531 -0.3087
  104MOL   N13814764   4.728   3.970   3.661  0.4681  0.3401  0.3564
  104MOL   H13914765   4.839   3.698   3.409  2.4314 -0.6483  2.4835
  104MOL   H14014766   4.706   3.580   3.419 -0.8568 -0.1701  0.2081
  104MOL   H14114767   4.560   3.753   3.525 -0.0263 -1.8086 -1.1947
  104MOL   H14214768   4.643   3.832   3.393  0.5211  2.1691  1.5558
  105MOL     C114769   5.942   7.689   1.072  0.4229 -0.3460  0.8796
  105MOL     C214770   6.090   7.734   1.078 -0.2517 -0.3738  0.1124
  105MOL     C314771   6.178   7.616   1.091  0.2602  0.4676 -0.2646
  105MOL     N414772   6.247   7.523   1.090 -0.0202  0.0766  0.3123
  105MOL     H514773   5.922   7.634   1.165  0.2768  2.3269  2.4688
  105MOL     H614774   5.924   7.635   0.979  2.3141  0.0145  0.2648
  105MOL     H714775   6.107   7.782   1.174 -0.4407 -3.3656  1.7036
  105MOL     H814776   5.882   7.780   1.075  1.0403  0.0435  1.7724
  105MOL     C914777   6.127   7.813   0.957 -0.2974 -0.3042  0.5277
  105MOL    C1014778   6.252   7.896   0.983 -0.2449  0.0041 -0.7895
  105MOL    C1114779   6.368   7.804   0.997  0.4170 -0.5865  0.0449
  105MOL    N1214780   6.459   7.735   1.012 -0.0787 -0.9807  0.1269
  105MOL    H1314781   6.144   7.760   0.863  1.7578  0.8249  0.2180
  105MOL    H1414782   6.037   7.873   0.949 -1.9962 -2.5722  2.2299
  105MOL    H1514783   6.253   7.951   1.077 -0.0699  2.5505 -2.2618
  105MOL    C1614784   6.280   8.005   0.874  0.3028 -0.3099 -0.4958
  105MOL    C1714785   6.424   8.074   0.887  0.2461  0.0498 -0.8017
  105MOL    C1814786   6.448   8.159   0.768 -0.2028  0.1068 -0.0904
  105MOL    N1914787   6.473   8.225   0.670 -0.2686 -0.7132 -0.3465
  105MOL    H2014788   6.250   7.982   0.772  1.2237  0.1503 -0.8757
  105MOL    H2114789   6.201   8.078   0.894 -0.2995 -0.7217 -1.3865
  105MOL    H2214790   6.490   7.988   0.894  1.1634  0.7652 -0.5573
  105MOL    C2314791   6.426   8.150   1.021 -0.3849  0.2075 -0.5537
  105MOL    C2414792   6.568   8.172   1.086  0.7679 -0.6799 -0.3275
  105MOL    C2514793   6.648   8.050   1.085  0.1447  0.1295  0.5458
  105MOL    N2614794   6.706   7.948   1.082  0.2657 -0.5266  0.1188
  105MOL    H2714795   6.371   8.244   1.011  1.0729  1.4781  2.5687
  105MOL    H2814796   6.367   8.105   1.100 -1.4926  1.1776 -0.8190
  105MOL    H2914797   6.556   8.200   1.190 -1.0790  0.4099 -0.8017
  105MOL    C3014798   6.642   8.292   1.035 -0.3026 -0.1365  0.9761
  105MOL    C3114799   6.756   0.023   1.121 -0.9897  0.2437  0.3197
  105MOL    C3214800   6.872   8.245   1.113  0.0340 -0.4255 -0.0720
  105MOL    N3314801   6.964   8.167   1.110 -0.3589 -0.2467  0.2124
  105MOL    H3414802   6.680   8.276   0.934 -2.4252  0.2554  0.1005
  105MOL    H3514803   6.572   0.063   1.036 -0.5788 -0.3651  2.8559
  105MOL    H3614804   6.732   0.031   1.227  1.1639 -1.7949  1.0026
  105MOL    C3714805   6.800   0.169   1.089 -0.2286 -0.1828 -0.0999
  105MOL    C3814806   6.893   0.198   0.969  0.1136 -0.4852 -0.1067
  105MOL    C3914807   6.878   0.107   0.855  0.0727 -0.3805  0.1670
  105MOL    N4014808   6.863   0.031   0.771  0.2811  0.1577  0.4578
  105MOL    H4114809   6.716   0.239   1.086  0.1604  0.2660 -0.7613
  105MOL    H4214810   6.866   0.204   1.168  0.5951 -1.7472 -0.0876
  105MOL    H4314811   6.992   0.168   1.002 -1.2980 -0.7769  4.2175
  105MOL    C4414812   6.897   0.347   0.921  0.2443 -0.3251 -0.6092
  105MOL    C4514813   6.995   0.425   1.001 -0.3366  0.4214  0.8977
  105MOL    C4614814   7.139   0.381   0.978 -0.1268  0.1433 -0.4251
  105MOL    N4714815   7.249   0.351   0.968 -0.2973  0.5362 -0.1170
  105MOL    H4814816   6.917   0.354   0.814 -1.0123 -0.5141 -0.8595
  105MOL    H4914817   6.793   0.365   0.944  0.2854 -2.0950  1.1119
  105MOL    H5014818   6.975   0.419   1.107  0.0530 -0.3254  0.9363
  105MOL    C5114819   6.966   0.575   0.964 -0.0484  0.3982 -0.2974
  105MOL    C5214820   7.027   0.682   1.052 -0.7274  0.6693 -0.1748
  105MOL    C5314821   7.171   0.690   1.046 -0.1390 -0.3559  0.4060
  105MOL    N5414822   7.282   0.699   1.036 -0.1283  0.0636  0.2946
  105MOL    H5514823   7.009   0.582   0.864 -1.4015  0.9086 -0.8616
  105MOL    H5614824   6.858   0.587   0.956 -0.3344 -0.5177  1.8195
  105MOL    H5714825   7.017   0.627   1.146 -1.9818 -0.1575 -0.7757
  105MOL    C5814826   6.941   0.805   1.037 -0.5544  0.3564  0.6085
  105MOL    C5914827   6.966   0.923   1.134 -0.2541 -0.1146  0.1392
  105MOL    C6014828   7.093   0.986   1.102 -0.1383  0.0843  0.5099
  105MOL    N6114829   7.198   1.034   1.080  0.0867 -0.2752 -0.4546
  105MOL    H6214830   6.941   0.840   0.934 -0.5427  0.7826  0.7534
  105MOL    H6314831   6.841   0.769   1.061 -1.1047  0.7755 -1.0436
  105MOL    H6414832   6.971   0.878   1.233 -0.7984  1.0662  0.7139
  105MOL    C6514833   6.861   1.040   1.134 -0.1659 -0.2878 -0.0820
  105MOL    C6614834   6.821   1.096   0.996  0.4344 -0.2196  0.0295
  105MOL    C6714835   6.718   1.006   0.935 -0.3155  0.3282 -0.5255
  105MOL    N6814836   6.641   0.934   0.884 -0.7716 -0.3413 -0.2726
  105MOL    H6914837   6.771   0.996   1.177  0.9129 -1.9536  0.5714
  105MOL    H7014838   6.885   1.118   1.206  2.0199 -1.2205  0.2591
  105MOL    H7114839   6.905   1.086   0.926  1.6853  0.1575  1.4427
  105MOL    C7214840   6.785   1.247   1.015  0.1087 -0.3939 -0.2821
  105MOL    C7314841   6.771   1.310   0.873 -0.4360 -0.0861 -0.1336
  105MOL    C7414842   6.662   1.244   0.797 -0.0786  0.0713 -0.1970
  105MOL    N7514843   6.576   1.191   0.738  0.1729 -0.7706  0.1970
  105MOL    H7614844   6.691   1.254   1.070 -0.9032 -3.3627 -1.5234
  105MOL    H7714845   6.863   1.305   1.063 -0.2175  0.3885 -0.6832
  105MOL    H7814846   6.865   1.299   0.819 -0.8051 -1.7752 -0.4898
  105MOL    C7914847   6.743   1.464   0.877 -0.3850  1.2222  0.4908
  105MOL    C8014848   6.788   1.556   0.750  0.1353  0.1267 -0.1803
  105MOL    C8114849   6.709   1.525   0.629  0.0451  0.1638 -0.0045
  105MOL    N8214850   6.648   1.508   0.533  0.6817 -0.6694  0.1972
  105MOL    H8314851   6.637   1.484   0.894 -0.4874  0.3240  0.9086
  105MOL    H8414852   6.792   1.508   0.964  1.1071 -0.3716  0.4806
  105MOL    H8514853   6.892   1.536   0.727  0.1653 -1.4536  1.2427
  105MOL    C8614854   6.755   1.707   0.773  0.4704 -0.3945 -0.4561
  105MOL    C8714855   6.805   1.807   0.666  0.6305 -0.2346 -0.4036
  105MOL    C8814856   6.725   1.931   0.686  0.3294  0.1791  0.4094
  105MOL    N8914857   6.663   2.026   0.703  0.2701 -0.2793  0.8429
  105MOL    H9014858   6.649   1.729   0.777 -0.0963 -2.8992 -1.1973
  105MOL    H9114859   6.795   1.738   0.870  1.9785  0.1192 -1.2122
  105MOL    H9214860   6.777   1.764   0.570  2.2761  0.6182 -1.2756
  105MOL    C9314861   6.949   1.838   0.669 -0.2584 -0.3618 -0.1813
  105MOL    C9414862   7.004   1.911   0.556 -0.0557 -0.2512  0.2045
  105MOL    C9514863   6.966   2.056   0.568 -0.6578  0.5995  0.1578
  105MOL    N9614864   6.937   2.168   0.581  0.2350 -0.4064 -0.3643
  105MOL    H9714865   6.980   1.893   0.758 -1.1200  0.0174 -0.1047
  105MOL    H9814866   7.005   1.744   0.666 -2.4783 -1.7978  1.0791
  105MOL    H9914867   6.947   1.868   0.474  0.0791  0.0488 -0.0463
  105MOL   C10014868   7.157   1.884   0.535 -0.5242 -0.6256  0.4262
  105MOL   C10114869   7.230   1.972   0.431  0.7024  0.2729 -0.3880
  105MOL   C10214870   7.269   2.100   0.491  0.2999  0.2137 -0.3414
  105MOL   N10314871   7.306   2.203   0.538 -0.2216  0.6015 -0.2787
  105MOL   H10414872   7.211   1.890   0.630 -0.4674  0.1494  0.3550
  105MOL   H10514873   7.181   1.779   0.519  0.6719 -0.5976  1.8727
  105MOL   H10614874   7.170   1.996   0.343 -0.2030  0.6720  0.3278
  105MOL   C10714875   7.345   1.894   0.380  0.1524 -0.4084 -0.0024
  105MOL   C10814876   7.447   1.963   0.290  0.0404 -0.6168  0.4010
  105MOL   C10914877   7.403   2.078   0.210 -0.0411  0.9211 -0.1143
  105MOL   N11014878   7.368   2.168   0.143 -0.3731 -0.2464 -0.2631
  105MOL   H11114879   7.407   1.850   0.458  0.6356  0.3183  0.0243
  105MOL   H11214880   7.316   1.804   0.326 -0.0160  1.4412 -3.1231
  105MOL   H11314881   7.472   1.889   0.214 -1.6919  1.2137 -2.0158
  105MOL   C11414882   7.578   2.009   0.361 -0.0493 -0.4135 -0.0969
  105MOL   C11514883   7.687   1.902   0.388  0.4598  0.1028  0.3680
  105MOL   C11614884   7.703   1.816   0.271 -0.1768  0.5735  0.1299
  105MOL   N11714885   7.718   1.755   0.175 -0.4846 -0.2318  0.0606
  105MOL   H11814886   7.633   2.077   0.297 -1.7236  0.1270 -0.9929
  105MOL   H11914887   7.559   2.064   0.454  2.2116 -0.6102  0.5101
  105MOL   H12014888   7.646   1.830   0.459 -1.4322 -0.3358 -1.1198
  105MOL   C12114889   7.820   1.963   0.430  0.6995 -0.2519  0.6803
  105MOL   C12214890   7.928   1.854   0.438  0.0007 -0.5261 -0.6033
  105MOL   C12314891   8.049   1.881   0.364 -0.3095 -0.3539  0.2211
  105MOL   N12414892   8.150   1.900   0.303 -0.3221  0.3519 -0.0529
  105MOL   H12514893   7.856   2.040   0.362 -2.4391 -0.5378 -1.4209
  105MOL   H12614894   7.799   2.032   0.511 -2.4069 -0.5838  0.2224
  105MOL   H12714895   7.889   1.765   0.388  1.6383 -1.6569  0.0788
  105MOL   C12814896   7.954   1.818   0.587 -0.0682  0.1060 -0.0461
  105MOL   C12914897   8.029   1.680   0.615 -0.5309  0.1437  0.1031
  105MOL   C13014898   8.170   1.685   0.566  0.6446 -0.6334 -0.1078
  105MOL   N13114899   8.280   1.686   0.540  0.1383 -0.8943  0.6006
  105MOL   H13214900   8.002   1.904   0.633  1.1114 -1.3930  1.5773
  105MOL   H13314901   7.856   1.816   0.635 -0.4718 -0.6117 -0.8780
  105MOL   H13414902   7.991   1.589   0.569 -0.9100  0.4095 -0.1088
  105MOL   C13514903   8.041   1.666   0.773  0.8747  0.2491  0.3762
  105MOL   C13614904   8.120   1.536   0.811  0.4234  0.7466  0.5140
  105MOL   C13714905   8.065   1.407   0.760  0.7957 -0.4886 -0.1539
  105MOL   N13814906   8.017   1.310   0.712  0.1227 -0.7431 -0.1703
  105MOL   H13914907   8.083   1.758   0.813  0.1414  0.3039  1.0184
  105MOL   H14014908   7.940   1.661   0.813  0.5172  0.3352 -0.4913
  105MOL   H14114909   8.141   1.522   0.917  3.4937 -1.4793 -0.3048
  105MOL   H14214910   8.221   1.539   0.770  1.9538 -1.9377  3.8085
  106MOL     C114911   6.739   8.308   6.573  0.3833  0.2935  0.5244
  106MOL     C214912   6.630   8.208   6.572  0.0179 -0.4678 -0.8141
  106MOL     C314913   6.658   8.111   6.683 -0.0722  0.5837 -0.1586
  106MOL     N414914   6.691   8.040   6.768 -0.4235  0.0200  0.1731
  106MOL     H514915   6.745   0.036   6.675  2.4368 -1.4750  1.1494
  106MOL     H614916   6.715   0.077   6.504  0.1212 -0.0949  0.1584
  106MOL     H714917   6.653   8.152   6.481  3.1131 -0.9278  0.1927
  106MOL     H814918   6.830   8.251   6.555  1.1528  0.6504  3.0975
  106MOL     C914919   6.487   8.264   6.567  0.1046 -0.9424  0.3947
  106MOL    C1014920   6.379   8.160   6.606 -0.0492  0.0035  0.1460
  106MOL    C1114921   6.243   8.218   6.621  0.1106  0.0231  0.4699
  106MOL    N1214922   6.134   8.260   6.638  0.6047  0.0757 -0.2054
  106MOL    H1314923   6.485   0.044   6.625  1.0457 -1.2865  0.9766
  106MOL    H1414924   6.464   8.297   6.466  1.1013  0.2491  0.5524
  106MOL    H1514925   6.405   8.125   6.705 -1.1026  0.8790  0.7429
  106MOL    C1614926   6.378   8.047   6.498  0.4563 -0.3265  0.2985
  106MOL    C1714927   6.307   7.921   6.550 -0.2327 -0.1253  0.6526
  106MOL    C1814928   6.175   7.884   6.480  0.6411  0.7512 -0.0174
  106MOL    N1914929   6.073   7.862   6.419 -0.0615  0.2594  0.2480
  106MOL    H2014930   6.316   8.080   6.414  1.2657  1.8030  0.5082
  106MOL    H2114931   6.480   8.027   6.467  0.0382  0.2370 -1.5087
  106MOL    H2214932   6.285   7.947   6.654  0.0394  1.7906  0.2323
  106MOL    C2314933   6.398   7.796   6.563  0.1327 -1.0681  0.0628
  106MOL    C2414934   6.417   7.714   6.433  0.2337  0.8946 -0.7568
  106MOL    C2514935   6.497   7.788   6.333  0.0858  0.3208 -0.0987
  106MOL    N2614936   6.566   7.840   6.258  0.2160  0.3097 -0.7313
  106MOL    H2714937   6.496   7.820   6.603 -0.2897 -1.2008  1.1713
  106MOL    H2814938   6.343   7.737   6.636 -1.1588 -0.3240 -0.2852
  106MOL    H2914939   6.318   7.707   6.388 -0.3170  3.0436  0.0550
  106MOL    C3014940   6.480   7.573   6.459  0.6032  0.0696 -0.6529
  106MOL    C3114941   6.430   7.496   6.582 -0.2593 -0.1705  0.2308
  106MOL    C3214942   6.287   7.477   6.566 -0.9804  0.4929 -0.6638
  106MOL    N3314943   6.176   7.464   6.549 -0.1849  0.1561  0.7069
  106MOL    H3414944   6.470   7.508   6.372  1.1284 -1.2783  0.2576
  106MOL    H3514945   6.587   7.588   6.476  0.1775  2.2243  0.3215
  106MOL    H3614946   6.435   7.558   6.672 -2.0985  0.9923 -0.4405
  106MOL    C3714947   6.502   7.359   6.594 -0.3281  0.0595 -0.4926
  106MOL    C3814948   6.508   7.292   6.735 -0.4111 -0.2981  0.4028
  106MOL    C3914949   6.380   7.236   6.779  0.6933 -0.4242  0.4419
  106MOL    N4014950   6.277   7.183   6.809 -0.1407 -0.2289  0.1575
  106MOL    H4114951   6.451   7.297   6.521 -0.8931  2.0202 -1.8235
  106MOL    H4214952   6.606   7.368   6.564  0.7545 -1.2124  2.6526
  106MOL    H4314953   6.534   7.367   6.810 -1.4337  0.7512 -0.2625
  106MOL    C4414954   6.609   7.182   6.746  0.0483 -0.2339 -0.3527
  106MOL    C4514955   6.652   7.143   6.888  0.1143  0.0067  0.3540
  106MOL    C4614956   6.725   7.241   6.971 -0.5676  0.1228 -0.6787
  106MOL    N4714957   6.781   7.322   7.037 -0.4171  0.4401 -0.1051
  106MOL    H4814958   6.569   7.103   6.683  2.9555  0.4766 -3.2107
  106MOL    H4914959   6.699   7.218   6.697 -0.4797 -0.6589 -1.6555
  106MOL    H5014960   6.725   7.063   6.874 -0.8961 -0.7898 -0.4264
  106MOL    C5114961   6.535   7.072   6.963  0.4107  0.1740  0.0586
  106MOL    C5214962   6.590   6.947   7.050 -0.0152  0.1949 -0.5448
  106MOL    C5314963   6.640   6.999   7.179 -0.1314  0.3991 -0.4310
  106MOL    N5414964   6.678   7.045   7.280 -0.0368 -0.1824  1.1980
  106MOL    H5514965   6.482   7.152   7.014 -0.3849  0.1820 -0.7695
  106MOL    H5614966   6.459   7.036   6.893  0.1347 -0.7360  0.8094
  106MOL    H5714967   6.673   6.900   6.997  2.2004  1.2328  1.8537
  106MOL    C5814968   6.490   6.833   7.064 -0.2464 -0.0447  0.2844
  106MOL    C5914969   6.546   6.717   7.140  0.7412  0.5417  0.2513
  106MOL    C6014970   6.430   6.654   7.217  0.1984  0.1274  0.2430
  106MOL    N6114971   6.343   6.597   7.268 -0.4429  0.2901 -0.0133
  106MOL    H6214972   6.410   6.873   7.126 -0.4013  0.5053 -0.2592
  106MOL    H6314973   6.448   6.801   6.968  2.0607 -1.0485 -0.4283
  106MOL    H6414974   6.597   6.757   7.228 -1.3247  0.4737  1.5047
  106MOL    C6514975   6.639   6.627   7.055  0.0682  0.6148 -0.0792
  106MOL    C6614976   6.787   6.636   7.086  0.5795 -0.0365 -0.2403
  106MOL    C6714977   6.797   6.550   7.204  0.2381 -0.7514  0.6124
  106MOL    N6814978   6.812   6.483   7.294 -0.7080 -0.8492 -0.2664
  106MOL    H6914979   6.607   6.524   7.072  1.5778 -0.2736 -2.3028
  106MOL    H7014980   6.625   6.638   6.948 -1.0471  0.4384  0.0370
  106MOL    H7114981   6.816   6.738   7.112 -1.3044  0.3149  0.6511
  106MOL    C7214982   6.872   6.569   6.969 -0.4291  0.2800  0.0322
  106MOL    C7314983   7.019   6.542   7.004 -0.4642 -0.0813 -0.1670
  106MOL    C7414984   7.087   6.456   6.905  0.2770 -0.1420 -0.4300
  106MOL    N7514985   7.134   6.390   6.825  0.0273  0.2606  0.3521
  106MOL    H7614986   6.829   6.475   6.934 -1.2835  1.4333 -2.1976
  106MOL    H7714987   6.863   6.640   6.886 -0.7077  0.1379 -0.0613
  106MOL    H7814988   7.029   6.493   7.100  1.0424  0.9876  0.2440
  106MOL    C7914989   7.092   6.681   7.007  0.2077  0.0478  0.3347
  106MOL    C8014990   7.221   6.709   7.091 -0.4208 -0.5203  0.2769
  106MOL    C8114991   7.185   6.768   7.219 -0.2032  1.0941 -1.2529
  106MOL    N8214992   7.146   6.808   7.320  0.4294  0.0192 -0.3729
  106MOL    H8314993   7.117   6.713   6.906  0.1268 -0.9744 -0.0195
  106MOL    H8414994   7.023   6.762   7.030 -1.1027 -0.2119 -2.4277
  106MOL    H8514995   7.264   6.790   7.032  0.5790 -1.3343 -0.1300
  106MOL    C8614996   7.328   6.592   7.086 -0.3199  0.2265  0.1093
  106MOL    C8714997   7.315   6.486   7.203  0.2710  0.0212  0.1568
  106MOL    C8814998   7.371   6.355   7.160 -0.0051  0.2203 -0.5236
  106MOL    N8914999   7.413   6.251   7.124 -0.7921  0.8352  0.2314
  106MOL    H9015000   7.325   6.537   6.992  0.4745  1.1555 -0.4631
  106MOL    H9115001   7.430   6.628   7.085 -0.7473  1.4491  0.2826
  106MOL    H9215002   7.211   6.462   7.219 -0.2544  2.0275 -0.0426
  106MOL    C9315003   7.367   6.535   7.337 -0.3536 -0.0411 -0.3474
  106MOL    C9415004   7.523   6.563   7.346  0.3661  0.3799 -0.8513
  106MOL    C9515005   7.543   6.704   7.314  0.4683  0.3756 -0.0061
  106MOL    N9615006   7.571   6.815   7.295 -0.0545  0.2056  0.2374
  106MOL    H9715007   7.310   6.618   7.380  0.5442  0.3742  0.0587
  106MOL    H9815008   7.341   6.455   7.406  1.5291  1.0036  1.6386
  106MOL    H9915009   7.590   6.496   7.291 -0.3899  0.2887 -1.6801
  106MOL   C10015010   7.574   6.549   7.494  0.7162  0.8903 -0.0399
  106MOL   C10115011   7.582   6.405   7.548 -0.7085 -0.1983  0.1472
  106MOL   C10215012   7.670   6.316   7.471 -0.1926 -0.2366  0.4633
  106MOL   N10315013   7.736   6.250   7.405  0.0237 -0.2262 -0.1378
  106MOL   H10415014   7.674   6.593   7.501  0.6382  0.8492  1.7023
  106MOL   H10515015   7.511   6.612   7.557  0.3849 -0.5083  1.0723
  106MOL   H10615016   7.489   6.352   7.529 -0.2655 -0.9466  0.0355
  106MOL   C10715017   7.621   6.391   7.696  0.1690  0.3489  0.6679
  106MOL   C10815018   7.500   6.431   7.789  0.2701 -0.2160  0.5818
  106MOL   C10915019   7.393   6.338   7.771 -0.4086  0.0442  0.2067
  106MOL   N11015020   7.305   6.260   7.756 -0.1533 -0.7982 -0.2658
  106MOL   H11115021   7.644   6.287   7.719 -1.4198 -0.4847 -1.3233
  106MOL   H11215022   7.713   6.442   7.723  0.6075  0.0586 -0.2465
  106MOL   H11315023   7.460   6.525   7.750  0.0393 -0.2408  0.7555
  106MOL   C11415024   7.537   6.448   7.943  0.8278  0.2619 -0.8078
  106MOL   C11515025   7.423   6.507   8.031  0.3231 -0.2087  0.1161
  106MOL   C11615026   7.333   6.609   7.974 -0.1446  0.0637  0.6232
  106MOL   N11715027   7.262   6.688   7.933 -0.7428  0.4345 -0.2087
  106MOL   H11815028   7.567   6.355   7.991 -1.5541  0.5758  1.3737
  106MOL   H11915029   7.621   6.518   7.950 -0.2073  1.2148  3.8878
  106MOL   H12015030   7.463   6.572   8.109 -0.5656 -1.3380  1.5181
  106MOL   C12115031   7.338   6.406   8.111  0.2330  0.0940  0.1863
  106MOL   C12215032   7.233   6.459   8.206  0.5303 -0.2039 -0.2864
  106MOL   C12315033   7.121   6.359   8.203 -0.7296 -0.4426  0.0147
  106MOL   N12415034   7.032   6.282   8.192 -0.0927  0.3044 -0.0105
  106MOL   H12515035   7.285   6.361   8.027 -1.4034 -0.5580  1.5274
  106MOL   H12615036   7.394   6.323   8.155 -0.6611 -1.3982 -1.4083
  106MOL   H12715037   7.187   6.552   8.171  0.1955 -0.5335 -0.7194
  106MOL   C12815038   7.293   6.479   0.041 -0.0121 -0.2036 -0.4957
  106MOL   C12915039   7.202   6.571   0.128  0.2922  0.3543  0.4803
  106MOL   C13015040   7.063   6.518   0.140 -0.4413 -0.0782  0.0585
  106MOL   N13115041   6.958   6.469   0.152  0.3966  0.1911  0.0872
  106MOL   H13215042   7.320   6.389   0.097  1.8931  1.1035  0.7219
  106MOL   H13315043   7.384   6.538   0.031 -0.5537  0.8028  0.3448
  106MOL   H13415044   7.181   6.662   0.071 -1.9932 -1.0863 -1.0792
  106MOL   C13515045   7.265   6.595   0.262  0.6209  1.0250  0.7206
  106MOL   C13615046   7.173   6.684   0.344  1.0930  0.0385  0.2566
  106MOL   C13715047   7.150   6.825   0.297  0.3770  0.7757 -0.4356
  106MOL   N13815048   7.127   6.933   0.255 -0.4034  0.4867  1.1367
  106MOL   H13915049   7.275   6.498   0.312  0.6595  0.0928 -1.0546
  106MOL   H14015050   7.366   6.634   0.252  1.0940 -0.7837 -2.2143
  106MOL   H14115051   7.221   6.685   0.442  0.7206 -1.0705  0.4539
  106MOL   H14215052   7.071   6.647   0.354  0.5338  1.1479 -1.1271
  107MOL     C115053   2.357   2.740   1.822 -0.2154 -0.1616 -0.4400
  107MOL     C215054   2.364   2.630   1.716 -0.0568  0.8640 -1.2417
  107MOL     C315055   2.463   2.529   1.754  0.1415 -0.1440 -0.3200
  107MOL     N415056   2.543   2.446   1.781 -0.5137 -0.1424 -0.6878
  107MOL     H515057   2.351   2.707   1.925 -3.2158 -1.7495 -1.0709
  107MOL     H615058   2.293   2.823   1.790 -0.5777 -0.3690 -0.2531
  107MOL     H715059   2.390   2.667   1.617  0.4467  2.6566 -0.4640
  107MOL     H815060   2.455   2.787   1.814 -0.5596  0.7701  0.6417
  107MOL     C915061   2.236   2.538   1.714 -0.2203  0.5240  0.0255
  107MOL    C1015062   2.100   2.598   1.684 -0.4457 -0.6133  0.9672
  107MOL    C1115063   2.075   2.659   1.550  0.0133 -0.4807  0.3969
  107MOL    N1215064   2.054   2.700   1.442 -0.5110 -0.0026 -0.5774
  107MOL    H1315065   2.255   2.473   1.629 -4.3995 -0.8540  0.0482
  107MOL    H1415066   2.226   2.494   1.813 -1.1956  1.3474  0.3100
  107MOL    H1515067   2.093   2.674   1.762  0.2349 -0.7917  1.2041
  107MOL    C1615068   1.984   2.494   1.720  0.0065 -0.4765  0.2033
  107MOL    C1715069   1.854   2.571   1.765 -0.2196  0.1775 -0.3382
  107MOL    C1815070   1.798   2.672   1.676  0.1174 -0.4154 -0.2955
  107MOL    N1915071   1.759   2.755   1.610 -0.1838 -0.7184 -0.0953
  107MOL    H2015072   1.969   2.429   1.634  2.5645 -0.8332 -0.0133
  107MOL    H2115073   2.014   2.437   1.808 -0.2317 -2.5350 -1.0235
  107MOL    H2215074   1.895   2.633   1.845  0.2637 -1.4418  0.6872
  107MOL    C2315075   1.751   2.483   1.833 -0.2783  0.8753 -0.0506
  107MOL    C2415076   1.636   2.566   1.899 -0.5431  0.1464  0.5832
  107MOL    C2515077   1.551   2.478   1.968  0.7729  1.0747 -0.5942
  107MOL    N2615078   1.481   2.400   2.020  0.6995 -0.3824  0.5834
  107MOL    H2715079   1.704   2.416   1.761  1.5085 -0.6170  0.1305
  107MOL    H2815080   1.783   2.418   1.915 -0.7262  0.3215 -0.3092
  107MOL    H2915081   1.573   2.615   1.825  0.3265 -0.3815 -0.5219
  107MOL    C3015082   1.689   2.685   1.983 -0.1247  0.3841  0.3019
  107MOL    C3115083   1.593   2.734   2.091  0.2910 -0.0179  0.0788
  107MOL    C3215084   1.609   2.645   2.206 -0.0569 -0.7286  0.3873
  107MOL    N3315085   1.629   2.568   2.287 -0.5136 -1.0669  0.1495
  107MOL    H3415086   1.779   2.658   2.038  0.2996 -0.2161 -0.6668
  107MOL    H3515087   1.714   2.767   1.917  1.2527 -0.5177 -0.3084
  107MOL    H3615088   1.487   2.738   2.068  0.5333 -0.9968 -1.3357
  107MOL    C3715089   1.645   2.873   2.130  0.2473 -0.1171  0.2894
  107MOL    C3815090   1.555   2.962   2.224  0.0485  0.3845 -0.0209
  107MOL    C3915091   1.489   2.889   2.331 -0.2211  0.0712  0.4024
  107MOL    N4015092   1.434   2.831   2.408  0.2846  0.3998  0.6056
  107MOL    H4115093   1.739   2.864   2.183  0.2604 -1.3581  0.0839
  107MOL    H4215094   1.676   2.928   2.041  1.1087  0.9686  1.2489
  107MOL    H4315095   1.466   2.996   2.171 -0.3775  0.8685  0.9949
  107MOL    C4415096   1.631   3.083   2.277  0.0766  0.5407  0.1948
  107MOL    C4515097   1.548   3.185   2.361  0.3770 -0.1280  0.6241
  107MOL    C4615098   1.504   3.138   2.494  0.3154  0.1179  0.0072
  107MOL    N4715099   1.473   3.093   2.595 -0.7232 -0.2531  0.1509
  107MOL    H4815100   1.719   3.049   2.332  1.7982 -0.0130 -2.7917
  107MOL    H4915101   1.681   3.125   2.189 -0.0048  0.0514 -0.0900
  107MOL    H5015102   1.457   3.204   2.304 -0.0919  1.4338  1.8629
  107MOL    C5115103   1.625   3.316   2.378  0.3741  0.0292 -0.4524
  107MOL    C5215104   1.561   3.425   2.466 -0.6005 -0.1109  0.0568
  107MOL    C5315105   1.660   3.535   2.471 -0.2047  0.6617 -0.7743
  107MOL    N5415106   1.740   3.617   2.480 -1.0078 -0.4241 -0.0328
  107MOL    H5515107   1.717   3.286   2.428  1.0427  0.6027 -1.3154
  107MOL    H5615108   1.645   3.354   2.278 -1.1289 -0.1551 -0.8262
  107MOL    H5715109   1.552   3.380   2.565  0.6682 -0.7152 -0.0928
  107MOL    C5815110   1.420   3.462   2.416 -0.2635 -0.7818  0.5041
  107MOL    C5915111   1.337   3.571   2.490  0.2186 -0.0070 -0.6686
  107MOL    C6015112   1.216   3.614   2.422 -0.0466 -0.6873  0.0884
  107MOL    N6115113   1.123   3.649   2.357  0.4486 -0.1190 -0.5594
  107MOL    H6215114   1.426   3.490   2.311 -0.0771 -0.7401  0.5248
  107MOL    H6315115   1.359   3.372   2.425  0.2826 -1.1279  0.7978
  107MOL    H6415116   1.396   3.663   2.497 -0.2770  0.1544  1.8454
  107MOL    C6515117   1.309   3.525   2.637 -0.0208  0.1074  0.3139
  107MOL    C6615118   1.242   3.634   2.732 -0.0320 -0.7125  0.8358
  107MOL    C6715119   1.100   3.638   2.717  0.7946 -0.3367  0.5534
  107MOL    N6815120   0.987   3.643   2.706  0.1186  0.2851 -0.1192
  107MOL    H6915121   1.246   3.436   2.634 -1.0604  0.8184  0.9148
  107MOL    H7015122   1.407   3.508   2.682  0.8426  1.1764 -1.1207
  107MOL    H7115123   1.288   3.728   2.702 -1.8311  0.1068  0.5815
  107MOL    C7215124   1.270   3.590   2.883 -0.0705  0.3581 -0.4094
  107MOL    C7315125   1.407   3.653   2.930  0.9792 -0.3687 -0.1456
  107MOL    C7415126   1.403   3.798   2.944 -0.4940  0.2969  0.5998
  107MOL    N7515127   1.405   3.910   2.952  0.0003  0.2460 -0.2048
  107MOL    H7615128   1.187   3.627   2.943 -0.8054 -0.9347 -0.6111
  107MOL    H7715129   1.272   3.481   2.885 -0.8441  0.3401 -0.7274
  107MOL    H7815130   1.487   3.634   2.858 -0.3795  0.0446 -1.7910
  107MOL    C7915131   1.457   3.567   3.052 -0.2794 -0.5504 -0.1201
  107MOL    C8015132   1.562   3.629   3.142 -0.2168 -0.1431  0.8589
  107MOL    C8115133   1.672   3.679   3.059 -0.4306  0.1653  1.0690
  107MOL    N8215134   1.758   3.721   2.992  0.0296  0.3912  0.8427
  107MOL    H8315135   1.366   3.548   3.109 -2.3475  1.3721 -2.6460
  107MOL    H8415136   1.482   3.471   3.006  0.1482 -0.8213  0.6707
  107MOL    H8515137   1.615   3.549   3.194 -1.1351 -0.9344  0.5735
  107MOL    C8615138   1.503   3.722   3.245  0.7852 -0.7901  0.0450
  107MOL    C8715139   1.429   3.658   3.370  0.3465 -0.1862 -0.0427
  107MOL    C8815140   1.303   3.591   3.347  0.2850 -0.5600 -0.0177
  107MOL    N8915141   1.204   3.533   3.330 -0.3689  0.1570 -0.4712
  107MOL    H9015142   1.575   3.796   3.281  2.2629 -2.2283  0.1029
  107MOL    H9115143   1.441   3.794   3.193 -2.4263 -2.3064  1.6399
  107MOL    H9215144   1.394   3.744   3.427  0.1801 -0.2328 -0.0727
  107MOL    C9315145   1.517   3.569   3.470 -0.7693  0.3212  0.1657
  107MOL    C9415146   1.611   3.655   3.553  0.0205  0.2987  0.0746
  107MOL    C9515147   1.524   3.744   3.635 -0.6921  0.1658  0.7171
  107MOL    N9615148   1.442   3.806   3.694 -0.3444 -0.2514  0.3109
  107MOL    H9715149   1.462   3.525   3.553 -2.9124  1.3264 -0.6732
  107MOL    H9815150   1.575   3.490   3.422  0.7914  0.6519  1.4916
  107MOL    H9915151   1.662   3.726   3.488  1.6314 -1.5315 -0.7152
  107MOL   C10015152   1.719   3.566   3.629 -0.2451  0.1521 -0.0493
  107MOL   C10115153   1.850   3.632   3.674 -0.1934 -0.2973 -0.1574
  107MOL   C10215154   1.831   3.765   3.725  0.3708 -0.5102 -0.0059
  107MOL   N10315155   1.814   3.870   3.766  0.4183 -0.5005  0.0788
  107MOL   H10415156   1.667   3.515   3.710  0.5167  0.8271  0.8697
  107MOL   H10515157   1.755   3.488   3.562  0.0627  2.1419 -2.2708
  107MOL   H10615158   1.889   3.650   3.574 -0.6830  1.8235  0.0072
  107MOL   C10715159   1.948   3.540   3.740 -0.5532  0.0671  0.0803
  107MOL   C10815160   1.944   3.527   3.891  0.2889 -0.0493 -0.3428
  107MOL   C10915161   1.810   3.495   3.937 -0.0740 -0.4659  0.3984
  107MOL   N11015162   1.702   3.466   3.970  0.2910 -0.4243 -0.0020
  107MOL   H11115163   1.922   3.444   3.695  1.9244 -0.5119 -0.1833
  107MOL   H11215164   2.047   3.568   3.703 -0.7337 -0.3641 -0.7535
  107MOL   H11315165   1.961   3.631   3.921  1.2466 -0.7483  1.5984
  107MOL   C11415166   2.058   3.436   3.937  0.2787 -0.9151 -0.9148
  107MOL   C11515167   2.040   3.399   4.092  0.0633 -0.8035  0.6545
  107MOL   C11615168   2.121   3.284   4.119  0.2753 -0.5613  0.3899
  107MOL   N11715169   2.192   3.193   4.133  0.2461  0.7567 -0.8079
  107MOL   H11815170   2.056   3.342   3.882 -1.5229 -1.0775 -0.6099
  107MOL   H11915171   2.158   3.475   3.916  0.0154  0.6779  0.5908
  107MOL   H12015172   1.942   3.352   4.100 -1.5720  2.3197 -0.4809
  107MOL   C12115173   2.070   3.519   4.180  0.2595  0.3527  0.8552
  107MOL   C12215174   2.009   3.503   4.321  0.9893 -0.2643 -0.7375
  107MOL   C12315175   1.868   3.457   4.318  0.1957 -0.8677 -0.3209
  107MOL   N12415176   1.757   3.421   4.317  0.7529  0.5129 -0.8874
  107MOL   H12515177   2.178   3.531   4.191 -0.0174  0.7660  3.6648
  107MOL   H12615178   2.038   3.612   4.133  0.0785 -0.3930 -0.5156
  107MOL   H12715179   2.004   3.599   4.372 -0.3107 -1.6569  1.8356
  107MOL   C12815180   2.098   3.424   4.418  0.3259 -0.8189  0.5889
  107MOL   C12915181   2.062   3.433   4.567 -0.6988  0.3982  0.6196
  107MOL   C13015182   2.072   3.569   4.615  0.7774 -0.0731 -0.7819
  107MOL   N13115183   2.081   3.680   4.659 -0.0122  0.0489  0.8489
  107MOL   H13215184   2.105   3.320   4.387  1.1748 -0.8559  0.9003
  107MOL   H13315185   2.199   3.464   4.412  0.9663 -2.7753 -2.4375
  107MOL   H13415186   2.141   3.380   4.622  0.5655  0.9844 -0.5880
  107MOL   C13515187   1.923   3.370   4.598  0.7822 -0.1764 -0.2254
  107MOL   C13615188   1.882   3.345   4.746  0.0865 -0.1746  0.0609
  107MOL   C13715189   1.738   3.307   4.760 -0.9366 -0.2288 -0.0743
  107MOL   N13815190   1.627   3.281   4.769 -0.4857  0.4912  0.8752
  107MOL   H13915191   1.843   3.433   4.560  2.2163  2.2336  0.6316
  107MOL   H14015192   1.916   3.275   4.545 -0.0694 -0.1937 -0.0810
  107MOL   H14115193   1.884   3.445   4.789  0.7383 -0.2388  0.1845
  107MOL   H14215194   1.947   3.267   4.787 -1.4873 -0.5980  1.7772
  108MOL     C115195   7.412   3.264   2.016 -0.2753  0.0122  0.9019
  108MOL     C215196   7.376   3.407   2.063 -0.4501 -0.7852 -0.0103
  108MOL     C315197   7.255   3.413   2.145 -0.4309  0.0818  0.3654
  108MOL     N415198   7.162   3.420   2.211 -0.1378  0.4628 -0.0470
  108MOL     H515199   7.492   3.271   1.942 -1.9630  0.6651 -0.9095
  108MOL     H615200   7.326   3.218   1.967  0.7432 -0.4829 -0.4639
  108MOL     H715201   7.346   3.464   1.975 -2.0887  2.5565  2.5845
  108MOL     H815202   7.441   3.196   2.096  2.5581 -0.3974 -0.4133
  108MOL     C915203   7.502   3.472   2.141 -0.8442  0.2282  0.6257
  108MOL    C1015204   7.510   3.629   2.123  0.3720 -0.3632  0.4457
  108MOL    C1115205   7.508   3.654   1.971 -0.5267 -0.0202  0.1465
  108MOL    N1215206   7.506   3.667   1.857 -0.8302  0.6916  0.8536
  108MOL    H1315207   7.519   3.450   2.246  3.9476 -0.8670 -0.2391
  108MOL    H1415208   7.587   3.443   2.078 -2.1067  0.4832 -1.2233
  108MOL    H1515209   7.606   3.665   2.161  0.2624 -0.2819  0.6493
  108MOL    C1615210   7.383   3.689   2.183 -0.2134 -0.0300  0.1051
  108MOL    C1715211   7.389   3.839   2.228  0.2328  0.0215  0.2795
  108MOL    C1815212   7.422   3.932   2.124  0.8356 -0.4533  0.2815
  108MOL    N1915213   7.447   4.002   2.036  0.0875 -0.1867  0.2386
  108MOL    H2015214   7.296   3.680   2.117 -1.5622  0.3008  1.7954
  108MOL    H2115215   7.353   3.623   2.265  0.2040  3.9739  3.6504
  108MOL    H2215216   7.472   3.845   2.299  0.5217 -1.1699  0.0568
  108MOL    C2315217   7.255   3.876   2.297 -0.0372  0.7199 -0.2514
  108MOL    C2415218   7.263   4.004   2.379 -0.3656 -0.1570  0.2332
  108MOL    C2515219   7.368   4.010   2.484 -0.0528 -0.1132 -0.4573
  108MOL    N2615220   7.447   4.018   2.569  0.1610  0.1032  0.4603
  108MOL    H2715221   7.171   3.882   2.228 -0.7618 -2.1757  0.3352
  108MOL    H2815222   7.217   3.793   2.355 -1.9335  1.1603 -0.8043
  108MOL    H2915223   7.174   4.005   2.442 -1.5522 -1.5401 -1.3631
  108MOL    C3015224   7.251   4.137   2.289 -0.4305  0.4484 -0.4598
  108MOL    C3115225   7.234   4.265   2.363 -0.3581 -0.8504 -0.2386
  108MOL    C3215226   7.362   4.296   2.443  0.0166 -0.0516 -0.2603
  108MOL    N3315227   7.454   4.323   2.503 -0.0411  0.0876 -0.1610
  108MOL    H3415228   7.346   4.152   2.239  0.5522 -0.1651  1.1988
  108MOL    H3515229   7.174   4.125   2.212 -0.6434  1.2917 -0.3839
  108MOL    H3615230   7.156   4.256   2.438  0.5713 -1.1743  0.7145
  108MOL    C3715231   7.194   4.378   2.268 -0.2807 -0.4324  0.3569
  108MOL    C3815232   7.144   4.511   2.342 -0.0378  0.0508 -0.0978
  108MOL    C3915233   7.135   4.610   2.231 -0.5361  0.0419 -0.1157
  108MOL    N4015234   7.133   4.690   2.150  0.1017 -0.2191 -0.5935
  108MOL    H4115235   7.276   4.409   2.203  0.6241  0.7594  2.0149
  108MOL    H4215236   7.115   4.351   2.199 -0.3113  2.5008 -0.8630
  108MOL    H4315237   7.211   4.546   2.421  0.6291 -2.0791  0.2913
  108MOL    C4415238   7.002   4.483   2.399  0.3730 -0.3255  0.3301
  108MOL    C4515239   6.959   4.577   2.515 -0.3666  0.0595 -0.5780
  108MOL    C4615240   7.007   4.717   2.515  0.1894  0.0556 -0.0065
  108MOL    N4715241   7.048   4.826   2.518  0.6514 -0.4656 -0.4327
  108MOL    H4815242   6.928   4.493   2.320 -0.3184 -0.8152  0.9021
  108MOL    H4915243   6.985   4.379   2.429  0.2213 -0.8707 -1.5479
  108MOL    H5015244   7.010   4.544   2.605 -0.7721 -0.1083 -0.4096
  108MOL    C5115245   6.805   4.585   2.533  0.3463  0.1693  0.2526
  108MOL    C5215246   6.747   4.442   2.576  0.3398 -1.4229 -0.3508
  108MOL    C5315247   6.814   4.399   2.699 -0.3372  0.1372 -0.3787
  108MOL    N5415248   6.873   4.365   2.796 -0.1803  0.2334  0.7106
  108MOL    H5515249   6.792   4.659   2.613 -0.6461  0.1278  0.1353
  108MOL    H5615250   6.756   4.621   2.443  1.8844  0.6181 -0.4228
  108MOL    H5715251   6.768   4.363   2.504  2.1814 -3.0018  1.8381
  108MOL    C5815252   6.596   4.449   2.577  0.0901  0.0467  0.3304
  108MOL    C5915253   6.521   4.476   2.449  0.2782  0.2371  0.3010
  108MOL    C6015254   6.543   4.372   2.341  0.0717 -0.3022 -0.3229
  108MOL    N6115255   6.558   4.287   2.263 -0.0353  0.2426  1.2564
  108MOL    H6215256   6.555   4.354   2.612 -0.3870  0.2473  0.3135
  108MOL    H6315257   6.574   4.520   2.657  2.7670  1.6522 -0.2791
  108MOL    H6415258   6.559   4.564   2.397  0.3010 -0.2645 -0.5414
  108MOL    C6515259   6.368   4.491   2.471  0.1376 -0.3743 -0.2097
  108MOL    C6615260   6.296   4.522   2.340 -0.1699 -0.1679 -0.8202
  108MOL    C6715261   6.150   4.513   2.352 -0.6472  0.2714 -0.0112
  108MOL    N6815262   6.034   4.506   2.360  0.7218 -1.0997 -0.3120
  108MOL    H6915263   6.333   4.396   2.511  1.5536 -0.1290  1.7004
  108MOL    H7015264   6.361   4.558   2.557 -0.5804 -0.5053 -0.1661
  108MOL    H7115265   6.302   4.441   2.267 -1.0810 -0.2432 -0.8113
  108MOL    C7215266   6.333   4.648   2.256 -0.9802 -0.2645 -0.3568
  108MOL    C7315267   6.235   4.711   2.154  0.6141 -0.0962 -0.5082
  108MOL    C7415268   6.302   4.825   2.100  0.1126 -0.3780 -0.4055
  108MOL    N7515269   6.364   4.911   2.052 -0.5106 -0.1167 -0.4538
  108MOL    H7615270   6.364   4.730   2.321 -2.8450  0.9314 -0.9303
  108MOL    H7715271   6.417   4.623   2.191  0.0921 -0.5163  1.0966
  108MOL    H7815272   6.146   4.743   2.209  0.7669  0.4857 -0.5939
  108MOL    C7915273   6.174   4.622   2.049  0.3085  0.0795  0.5408
  108MOL    C8015274   6.261   4.590   1.927  0.3651  0.0276  0.3620
  108MOL    C8115275   6.397   4.530   1.955  0.0413 -0.0945  0.1869
  108MOL    N8215276   6.497   4.479   1.977 -0.6348 -0.7362 -0.6235
  108MOL    H8315277   6.139   4.524   2.080  0.5086 -0.7259 -1.7417
  108MOL    H8415278   6.078   4.664   2.020  0.6941  0.6790  0.1128
  108MOL    H8515279   6.287   4.692   1.897 -1.7529 -0.1556 -2.2000
  108MOL    C8615280   6.183   4.503   1.829  0.3954 -0.3404  0.9082
  108MOL    C8715281   6.223   4.514   1.676 -0.7441  0.5064  0.0119
  108MOL    C8815282   6.343   4.437   1.657 -0.3049  0.4953 -0.0107
  108MOL    N8915283   6.438   4.375   1.640 -0.5581  0.0105  0.2987
  108MOL    H9015284   6.150   4.403   1.855 -0.0649  0.0981  2.0409
  108MOL    H9115285   6.089   4.557   1.831  0.2409 -0.4196 -2.4753
  108MOL    H9215286   6.237   4.618   1.647 -2.0414  1.1936  1.7912
  108MOL    C9315287   6.119   4.458   1.581  0.3408  0.8583 -0.1990
  108MOL    C9415288   5.995   4.549   1.548  0.0358 -0.0176  0.0604
  108MOL    C9515289   6.045   4.689   1.508 -0.2193 -0.6747 -0.0028
  108MOL    N9615290   6.091   4.796   1.479  0.4110  0.0868 -0.1015
  108MOL    H9715291   6.153   4.416   1.486 -2.4424 -0.6131 -0.6069
  108MOL    H9815292   6.078   4.367   1.624  1.1267  1.0333  0.9322
  108MOL    H9915293   5.942   4.557   1.642  1.3620  2.0106  0.6606
  108MOL   C10015294   5.897   4.485   1.442 -0.3065  0.6239 -0.9232
  108MOL   C10115295   5.785   4.583   1.397 -0.0431  0.1224 -0.6655
  108MOL   C10215296   5.838   4.681   1.302  0.1037  0.3230  0.2478
  108MOL   N10315297   5.877   4.756   1.224 -0.0325 -0.6435  0.5124
  108MOL   H10415298   5.944   4.451   1.349 -0.7045 -0.2178 -0.8163
  108MOL   H10515299   5.849   4.393   1.474  1.1487 -0.7088 -2.4869
  108MOL   H10615300   5.776   4.640   1.489  0.8383 -0.7664 -0.0188
  108MOL   C10715301   5.652   4.513   1.360  0.3873 -0.3594 -0.7288
  108MOL   C10815302   5.564   4.481   1.482 -0.6574 -0.5701  0.5746
  108MOL   C10915303   5.512   4.605   1.539  0.0562  0.1476  0.2099
  108MOL   N11015304   5.466   4.706   1.580  0.6995  0.4296  0.1909
  108MOL   H11115305   5.593   4.570   1.289 -2.5978 -0.4420  1.5946
  108MOL   H11215306   5.679   4.423   1.304 -1.2998 -1.1334 -0.3414
  108MOL   H11315307   5.624   4.422   1.551  0.6456 -1.6049 -1.4040
  108MOL   C11415308   5.436   4.398   1.434  0.5071 -0.6834 -0.0498
  108MOL   C11515309   5.332   4.374   1.545  0.7012  0.0094 -0.4805
  108MOL   C11615310   5.193   4.371   1.494  0.7569  0.0595  0.0241
  108MOL   N11715311   5.084   4.366   1.453 -0.3618 -0.0578  0.2752
  108MOL   H11815312   5.395   4.463   1.356 -0.6626  0.6525  1.6545
  108MOL   H11915313   5.470   4.303   1.392  2.4393 -0.6368  1.3482
  108MOL   H12015314   5.343   4.456   1.616  3.6776 -2.6454  2.2986
  108MOL   C12115315   5.364   4.246   1.623  0.0897 -0.3828 -0.1463
  108MOL   C12215316   5.257   4.202   1.732 -0.6875  0.0565 -1.0236
  108MOL   C12315317   5.205   4.317   1.808  0.1099 -0.3502 -0.0702
  108MOL   N12415318   5.161   4.406   1.868  0.2367  0.3929 -1.1698
  108MOL   H12515319   5.368   4.165   1.550  1.6953  0.1206 -0.6222
  108MOL   H12615320   5.461   4.245   1.671  0.2028 -1.2890 -0.3824
  108MOL   H12715321   5.312   4.149   1.810 -0.1473  1.5367 -0.3710
  108MOL   C12815322   5.135   4.112   1.686  0.0825 -0.8587 -0.0662
  108MOL   C12915323   5.069   4.026   1.793 -0.2386 -0.8764  0.2443
  108MOL   C13015324   5.172   3.955   1.873 -0.5420 -0.1618 -0.2637
  108MOL   N13115325   5.249   3.897   1.941 -0.1736  0.5850 -0.0886
  108MOL   H13215326   5.055   4.172   1.643 -0.7227 -0.3578  2.0396
  108MOL   H13315327   5.175   4.054   1.603 -1.3165 -1.4640 -0.3206
  108MOL   H13415328   5.014   3.948   1.740 -3.1976  0.8473  0.6772
  108MOL   C13515329   4.967   4.096   1.890  0.1240 -0.3224 -0.4417
  108MOL   C13615330   4.898   4.014   1.998  0.2519  0.1484 -0.4175
  108MOL   C13715331   4.856   3.891   1.934 -0.7968 -0.0200 -1.0459
  108MOL   N13815332   4.819   3.798   1.887 -0.2169  0.2613  0.2140
  108MOL   H13915333   5.019   4.172   1.949 -1.9954  1.0808 -0.2883
  108MOL   H14015334   4.888   4.147   1.834 -0.7986 -0.6892  0.5080
  108MOL   H14115335   4.803   4.051   2.038 -0.4465 -0.4525 -1.5267
  108MOL   H14215336   4.957   3.993   2.087 -0.3651 -0.5173 -0.1641
  109MOL     C115337   5.344   4.459   4.012 -0.6270 -0.4161 -0.3375
  109MOL     C215338   5.403   4.594   3.965  0.0965  0.0346  0.1897
  109MOL     C315339   5.435   4.680   4.077  0.6919  0.8010 -0.6001
  109MOL     N415340   5.464   4.745   4.165  0.0512  0.0855 -0.3659
  109MOL     H515341   5.353   4.397   3.923  0.4825 -1.6041  0.5853
  109MOL     H615342   5.242   4.465   4.051  0.5541  0.4239  2.7582
  109MOL     H715343   5.322   4.654   3.923 -1.3923 -2.3482 -0.4983
  109MOL     H815344   5.399   4.408   4.091  0.2512  0.3662 -0.4374
  109MOL     C915345   5.520   4.567   3.866  0.1758 -0.0342 -0.0129
  109MOL    C1015346   5.584   4.692   3.803 -0.3384  0.1479 -0.7230
  109MOL    C1115347   5.656   4.764   3.902  0.1765 -0.6990 -0.0056
  109MOL    N1215348   5.714   4.825   3.981  0.3565 -0.0810  0.1108
  109MOL    H1315349   5.594   4.512   3.925  1.9637 -0.0517 -2.1984
  109MOL    H1415350   5.490   4.498   3.787  1.2595  0.0079 -0.4668
  109MOL    H1515351   5.512   4.761   3.759 -2.5387 -2.8596 -2.0533
  109MOL    C1615352   5.681   4.644   3.695  0.5546  0.3635 -0.2061
  109MOL    C1715353   5.788   4.749   3.631  0.7381  0.7151  0.5840
  109MOL    C1815354   5.720   4.881   3.621 -0.2541  0.2475  0.0893
  109MOL    N1915355   5.663   4.983   3.613  0.2431 -0.3567  0.6865
  109MOL    H2015356   5.745   4.564   3.734 -0.7928 -0.8571 -0.4271
  109MOL    H2115357   5.622   4.592   3.619  0.3814 -1.8531  1.3746
  109MOL    H2215358   5.797   4.712   3.529  2.4065  0.4169  0.8106
  109MOL    C2315359   5.929   4.757   3.690  0.1036 -0.8276 -0.0458
  109MOL    C2415360   6.016   4.634   3.700 -0.2057  0.3809 -0.4984
  109MOL    C2515361   5.980   4.544   3.592 -0.4753  0.1896  0.4254
  109MOL    N2615362   5.964   4.466   3.510 -0.4086 -0.2041 -0.2738
  109MOL    H2715363   5.985   4.836   3.639 -0.6462 -1.0329 -1.1956
  109MOL    H2815364   5.906   4.791   3.791  1.4174  0.9828 -0.3381
  109MOL    H2915365   5.995   4.571   3.786 -0.6086 -0.2508 -1.0523
  109MOL    C3015366   6.167   4.658   3.693 -0.1698  0.0173  0.4156
  109MOL    C3115367   6.228   4.756   3.797  0.1476 -0.3321 -0.6179
  109MOL    C3215368   6.374   4.731   3.796  0.6015 -0.1528  0.6366
  109MOL    N3315369   6.490   4.708   3.798 -0.0241  0.4825  0.3500
  109MOL    H3415370   6.208   4.558   3.705 -2.7252 -0.8684  2.3499
  109MOL    H3515371   6.206   4.690   3.597 -3.0139  0.3549 -0.6805
  109MOL    H3615372   6.199   4.730   3.899 -1.1621  0.7659 -0.6972
  109MOL    C3715373   6.201   4.907   3.776  0.6527  0.6610 -0.4960
  109MOL    C3815374   6.236   4.981   3.643 -0.6196 -0.3638  0.0559
  109MOL    C3915375   6.125   5.070   3.604  0.3103 -0.9198 -0.1900
  109MOL    N4015376   6.032   5.136   3.581  0.1073 -0.4804 -0.0142
  109MOL    H4115377   6.103   4.942   3.809  0.6343 -1.5840  2.0025
  109MOL    H4215378   6.263   4.939   3.860  0.6675  0.1200 -0.2945
  109MOL    H4315379   6.223   4.912   3.560 -0.6333  1.7767 -1.7458
  109MOL    C4415380   6.375   5.050   3.650  0.5934  0.6513 -0.6104
  109MOL    C4515381   6.421   5.104   3.517  0.0351  0.4404  0.3305
  109MOL    C4615382   6.428   4.988   3.419  0.1809  1.2038  0.2150
  109MOL    N4715383   6.433   4.899   3.345  0.1577 -0.0958 -0.2767
  109MOL    H4815384   6.366   5.133   3.719  0.8118 -0.2358  0.4938
  109MOL    H4915385   6.450   4.977   3.678 -0.1081 -0.0715 -0.5799
  109MOL    H5015386   6.527   5.127   3.532  0.4652 -0.4407 -1.1444
  109MOL    C5115387   6.346   5.214   3.450  0.2593 -0.2054  0.2294
  109MOL    C5215388   6.426   5.297   3.344  0.1705 -0.2663 -0.5199
  109MOL    C5315389   6.428   5.229   3.217 -0.1672 -0.5352  0.5922
  109MOL    N5415390   6.435   5.180   3.112  0.2589  0.1955 -0.1654
  109MOL    H5515391   6.259   5.167   3.404 -0.3339  0.2396  0.8757
  109MOL    H5615392   6.310   5.287   3.522  3.0646  1.8866 -0.4109
  109MOL    H5715393   6.531   5.287   3.372  0.8274  2.2211 -1.9657
  109MOL    C5815394   6.393   5.448   3.331 -0.3018  0.7661 -0.0117
  109MOL    C5915395   6.489   5.518   3.231 -0.3211 -0.2677  0.2179
  109MOL    C6015396   6.454   5.660   3.209  0.1488  0.1670 -0.5297
  109MOL    N6115397   6.418   5.769   3.190  0.4611  0.3025  0.2203
  109MOL    H6215398   6.293   5.460   3.289  1.0611  0.1789 -3.6725
  109MOL    H6315399   6.390   5.497   3.428  0.6504  2.3014 -0.7280
  109MOL    H6415400   6.488   5.469   3.133 -1.6389 -0.6203  0.4030
  109MOL    C6515401   6.640   5.507   3.262  0.1364 -0.4157 -0.4910
  109MOL    C6615402   6.684   5.563   3.399  0.1208  0.0762 -0.5405
  109MOL    C6715403   6.703   5.462   3.504 -0.0557  0.0863 -0.2375
  109MOL    N6815404   6.730   5.387   3.584  0.9663 -0.2653  0.1370
  109MOL    H6915405   6.671   5.402   3.255  0.2680 -0.2825 -1.9081
  109MOL    H7015406   6.681   5.563   3.179 -1.6253 -0.0928 -1.1600
  109MOL    H7115407   6.600   5.612   3.448 -0.6235 -2.3223  0.6862
  109MOL    C7215408   6.811   5.646   3.386  0.0282  0.2734  0.2745
  109MOL    C7315409   6.940   5.563   3.354 -0.1733  0.5651  0.3119
  109MOL    C7415410   6.942   5.481   3.230 -0.3745 -0.6778 -0.5813
  109MOL    N7515411   6.939   5.420   3.134 -0.1402 -0.0818  0.2201
  109MOL    H7615412   6.795   5.736   3.327  0.4419  0.2167  0.0755
  109MOL    H7715413   6.832   5.678   3.488  1.2235  1.3386 -0.2845
  109MOL    H7815414   6.952   5.493   3.436  0.1845 -1.2473 -1.2425
  109MOL    C7915415   7.066   5.654   3.363  0.0718  0.2984  0.0853
  109MOL    C8015416   7.105   5.716   3.223 -0.5631  0.1565 -0.0490
  109MOL    C8115417   6.998   5.784   3.159 -0.3721  0.1266 -0.6732
  109MOL    N8215418   6.910   5.837   3.104 -0.7466  0.2783  0.2715
  109MOL    H8315419   7.044   5.739   3.427  0.9536 -0.3463  1.2787
  109MOL    H8415420   7.157   5.600   3.393 -0.1066  1.3370  2.6733
  109MOL    H8515421   7.128   5.634   3.155  0.7372 -1.1243  1.8763
  109MOL    C8615422   7.234   5.807   3.249  0.1174  0.0915 -0.0978
  109MOL    C8715423   7.294   5.856   3.113 -0.1541  0.2780  0.2529
  109MOL    C8815424   7.231   5.797   2.993  0.8414 -0.4632  0.0786
  109MOL    N8915425   7.181   5.747   2.905 -0.6455  0.6498  0.6869
  109MOL    H9015426   7.207   5.896   3.306  1.3789  0.9973 -0.8938
  109MOL    H9115427   7.300   5.743   3.308  1.2111  1.8048  0.5809
  109MOL    H9215428   7.398   5.822   3.112  0.2260  1.3976  0.1457
  109MOL    C9315429   7.305   6.007   3.098 -0.0751 -0.5182  0.6308
  109MOL    C9415430   7.179   6.087   3.072 -0.0257 -0.9897  0.0550
  109MOL    C9515431   7.118   6.132   3.199 -0.2803  0.7480 -0.4164
  109MOL    N9615432   7.080   6.164   3.301  0.1528  0.1514 -0.0967
  109MOL    H9715433   7.359   6.051   3.182  2.4213  1.6411 -1.9728
  109MOL    H9815434   7.372   6.033   3.016  0.0309 -2.3898  0.0993
  109MOL    H9915435   7.102   6.022   3.030  0.0182  0.0065 -1.6106
  109MOL   C10015436   7.200   6.211   2.989  0.5800  0.1985  0.0130
  109MOL   C10115437   7.154   6.209   2.846 -0.2045  0.2288  0.1171
  109MOL   C10215438   7.187   6.341   2.788  0.0349  0.2228 -0.0124
  109MOL   N10315439   7.213   6.445   2.742 -0.3832  0.7723  0.9560
  109MOL   H10415440   7.143   6.294   3.028  0.2894  0.9255 -1.8727
  109MOL   H10515441   7.306   6.235   3.003 -0.0783  2.8658  0.6607
  109MOL   H10615442   7.046   6.202   2.829 -0.4662  1.0672  1.3703
  109MOL   C10715443   7.228   6.096   2.768  0.2429  0.3828  0.1391
  109MOL   C10815444   7.188   6.091   2.614 -0.2839  0.6629 -0.1315
  109MOL   C10915445   7.252   6.199   2.530  0.9300 -0.7591  0.2768
  109MOL   N11015446   7.304   6.280   2.469  0.2842 -0.0161  0.6450
  109MOL   H11115447   7.336   6.110   2.767  0.3545  0.6728  4.3517
  109MOL   H11215448   7.193   6.009   2.824  1.3671  1.7092  3.0222
  109MOL   H11315449   7.080   6.106   2.608 -0.0999  1.4078 -2.1103
  109MOL   C11415450   7.226   5.955   2.561 -0.2445  0.5253 -0.0865
  109MOL   C11515451   7.377   5.897   2.575 -0.1780 -0.2315  0.5300
  109MOL   C11615452   7.425   5.883   2.717 -0.3192 -0.6871  0.5511
  109MOL   N11715453   7.469   5.876   2.825 -0.3449 -0.0716 -0.1605
  109MOL   H11815454   7.161   5.882   2.610  0.4226  0.7943  1.2161
  109MOL   H11915455   7.209   5.954   2.453 -1.2787  0.4038  0.0789
  109MOL   H12015456   7.435   5.974   2.524 -1.2054 -0.0511 -0.3762
  109MOL   C12115457   7.404   5.779   2.482 -0.4637  0.3593 -0.3697
  109MOL   C12215458   7.551   5.734   2.457  0.1087  0.1932 -0.1811
  109MOL   C12315459   7.600   5.646   2.561 -0.2326 -0.6506  0.2579
  109MOL   N12415460   7.647   5.577   2.642  0.3247  0.7847  0.0544
  109MOL   H12515461   7.352   5.689   2.515  1.2035 -0.9271 -1.1400
  109MOL   H12615462   7.367   5.803   2.382  0.7763  1.3156 -0.6147
  109MOL   H12715463   7.622   5.816   2.445 -0.7592  1.0597  0.5479
  109MOL   C12815464   7.559   5.650   2.332  0.0019 -0.3778  0.6776
  109MOL   C12915465   7.543   5.738   2.203 -0.1286  0.3738  0.6067
  109MOL   C13015466   7.605   5.872   2.197  0.3415 -0.2156 -0.1438
  109MOL   N13115467   7.653   5.978   2.193  0.2402 -0.1096  0.2712
  109MOL   H13215468   7.660   5.612   2.322 -0.8268 -2.1266 -1.2539
  109MOL   H13315469   7.487   5.568   2.331  0.3838 -0.6936 -1.9543
  109MOL   H13415470   7.434   5.747   2.201 -0.0540  1.9181  2.1609
  109MOL   C13515471   7.596   5.665   2.078 -0.4670  0.5445  0.8687
  109MOL   C13615472   7.746   5.682   2.046  0.1950 -0.3285 -0.0033
  109MOL   C13715473   7.846   5.657   2.157 -0.1434  0.2397 -1.3541
  109MOL   N13815474   7.922   5.633   2.244  0.0389  0.4257 -0.2674
  109MOL   H13915475   7.577   5.558   2.085 -2.4082  0.7278 -0.8831
  109MOL   H14015476   7.536   5.692   1.991  2.1405 -1.0234 -1.5010
  109MOL   H14115477   7.769   5.787   2.025  0.9251 -0.0732  1.9714
  109MOL   H14215478   7.781   5.611   1.971  0.6966  0.3147 -0.3860
  110MOL     C115479   7.922   2.244   5.589 -0.3506 -0.6764 -0.3061
  110MOL     C215480   8.051   2.316   5.563 -0.0681 -0.0554  0.5021
  110MOL     C315481   8.109   2.297   5.426  0.8423  0.0813  0.1719
  110MOL     N415482   8.157   2.280   5.321 -0.1979  0.6685  0.2086
  110MOL     H515483   7.885   2.265   5.689  2.3512 -0.1771  0.6189
  110MOL     H615484   7.935   2.136   5.580 -1.6058 -0.7507 -1.5176
  110MOL     H715485   8.129   2.281   5.631  1.0320  0.4071 -0.5007
  110MOL     H815486   7.849   2.267   5.511 -0.6335 -0.3220  0.0646
  110MOL     C915487   8.030   2.464   5.593 -0.4325  0.2109 -0.0036
  110MOL    C1015488   7.959   2.506   5.723 -0.0191 -0.1266 -0.1951
  110MOL    C1115489   8.004   2.451   5.847 -0.8413  0.3877 -0.3414
  110MOL    N1215490   8.048   2.409   5.946  0.0854  0.2500  0.3547
  110MOL    H1315491   8.131   2.505   5.588  0.0142 -1.1054 -3.1145
  110MOL    H1415492   7.963   2.492   5.512  0.1304  1.5712 -0.0040
  110MOL    H1515493   7.857   2.468   5.714  0.5609 -1.5975 -0.7991
  110MOL    C1615494   7.953   2.663   5.736 -0.3691  0.5165 -0.5778
  110MOL    C1715495   7.908   2.716   5.874  0.5851 -0.3500 -0.4641
  110MOL    C1815496   7.941   2.857   5.880  1.0903 -0.0225  0.5923
  110MOL    N1915497   7.969   2.969   5.886  0.1849  0.3834  0.3775
  110MOL    H2015498   8.052   2.697   5.707 -0.1062 -1.2692 -1.8624
  110MOL    H2115499   7.897   2.689   5.646 -2.0041  0.1315  0.3039
  110MOL    H2215500   7.968   2.667   5.951 -0.4131  2.0414  1.9102
  110MOL    C2315501   7.756   2.697   5.887 -0.2038  0.5332 -0.0709
  110MOL    C2415502   7.690   2.732   6.028 -0.1052  0.3589  0.4745
  110MOL    C2515503   7.548   2.724   6.013  1.1635 -0.2908 -0.4794
  110MOL    N2615504   7.429   2.716   6.009  0.6220  0.0983 -0.0770
  110MOL    H2715505   7.701   2.753   5.812 -0.7285 -2.0282 -1.6703
  110MOL    H2815506   7.740   2.593   5.858  2.5530  0.4530 -1.5153
  110MOL    H2915507   7.696   2.841   6.037  3.4283  0.4568 -2.0897
  110MOL    C3015508   7.757   2.676   6.156 -0.0864 -0.0949 -0.3426
  110MOL    C3115509   7.704   2.542   6.211 -0.2500 -0.5134 -0.1154
  110MOL    C3215510   7.681   2.442   6.109 -0.0163 -0.8160  0.2534
  110MOL    N3315511   7.664   2.355   6.029  0.1092  0.1325  0.3768
  110MOL    H3415512   7.864   2.668   6.141 -0.2589 -2.3891 -0.4510
  110MOL    H3515513   7.742   2.760   6.223  3.8192 -0.1656  0.7283
  110MOL    H3615514   7.607   2.572   6.250 -1.4394 -2.5399 -1.3959
  110MOL    C3715515   7.796   2.505   6.331 -0.8453  0.0065 -0.3103
  110MOL    C3815516   7.745   2.401   6.432  0.2642 -0.1272  0.2093
  110MOL    C3915517   7.635   2.452   6.505 -0.2918  0.2208  0.3695
  110MOL    N4015518   7.540   2.482   6.562 -0.6793 -0.1966 -1.0148
  110MOL    H4115519   7.892   2.470   6.293 -1.3152  1.5494 -3.0643
  110MOL    H4215520   7.819   2.596   6.385 -0.2030 -0.2888 -0.0773
  110MOL    H4315521   7.834   2.389   6.494 -0.1976  2.4355  1.4243
  110MOL    C4415522   7.702   2.265   6.368 -0.0450  0.0876  0.5175
  110MOL    C4515523   7.682   2.146   6.466  0.0919  1.2693 -0.0442
  110MOL    C4615524   7.791   2.125   6.562  1.0412 -0.0699  0.9100
  110MOL    N4715525   7.874   2.109   6.646  0.3097 -0.4522 -0.0442
  110MOL    H4815526   7.613   2.272   6.306  0.5368  0.3282 -0.2952
  110MOL    H4915527   7.776   2.238   6.293 -0.4989  0.4160 -0.0582
  110MOL    H5015528   7.694   2.055   6.408  0.8687  1.7025 -0.5927
  110MOL    C5115529   7.552   2.147   6.544 -1.0237 -0.4655 -0.1830
  110MOL    C5215530   7.480   2.016   6.539  0.2247  0.3963  0.2224
  110MOL    C5315531   7.568   1.903   6.594  0.1943 -1.4908 -0.4113
  110MOL    N5415532   7.633   1.818   6.634 -0.0158 -0.1185 -0.1986
  110MOL    H5515533   7.568   2.180   6.646 -1.7234  1.4439 -0.6646
  110MOL    H5615534   7.486   2.225   6.505 -1.3948 -1.4561 -1.5834
  110MOL    H5715535   7.473   1.979   6.437  0.4670  1.0775 -0.0484
  110MOL    C5815536   7.344   2.026   6.612 -0.5323  0.5237  0.0192
  110MOL    C5915537   7.226   2.088   6.533  0.4622 -0.0379  0.5068
  110MOL    C6015538   7.225   2.024   6.401 -0.6564  0.4305 -0.6161
  110MOL    N6115539   7.225   1.967   6.302  0.8817  0.3890  0.5221
  110MOL    H6215540   7.316   1.922   6.622 -0.5016  0.1946 -2.7951
  110MOL    H6315541   7.359   2.072   6.710 -0.5571 -0.6870  0.6001
  110MOL    H6415542   7.262   2.188   6.511 -0.1687  0.7672  2.9552
  110MOL    C6515543   7.091   2.079   6.601  0.2038  0.7393  0.2250
  110MOL    C6615544   7.090   2.157   6.731  0.4611 -0.0665 -1.2279
  110MOL    C6715545   7.048   2.295   6.718  0.1751 -0.4646  0.1042
  110MOL    N6815546   7.015   2.409   6.711 -0.3313 -0.3916  0.0578
  110MOL    H6915547   7.011   2.114   6.536  0.5847 -1.7357 -1.6684
  110MOL    H7015548   7.080   1.971   6.615 -1.3912  1.0228  1.4292
  110MOL    H7115549   7.185   2.160   6.784 -0.3385  0.0346  0.2163
  110MOL    C7215550   7.016   2.084   6.854 -0.2855 -0.0254 -0.6817
  110MOL    C7315551   7.075   2.105   6.994 -0.6132  0.5790  0.6602
  110MOL    C7415552   7.202   2.032   7.014 -0.0512 -0.5415  0.0880
  110MOL    N7515553   7.305   1.984   7.026 -0.0210  0.3224 -0.3707
  110MOL    H7615554   6.912   2.118   6.855 -0.6936 -1.1928 -1.8119
  110MOL    H7715555   6.997   1.978   6.838 -3.3235  0.4606 -0.6383
  110MOL    H7815556   7.010   2.063   7.071 -0.2853 -3.2538 -1.0398
  110MOL    C7915557   7.098   2.247   7.031  0.6145  0.0113  0.2242
  110MOL    C8015558   6.965   2.327   7.048  0.9723 -0.4693  0.0058
  110MOL    C8115559   6.871   2.275   7.158  0.2160  0.0208 -0.0610
  110MOL    N8215560   6.795   2.240   7.237  0.0519 -0.9947  0.5789
  110MOL    H8315561   7.149   2.250   7.127  0.9387 -0.2959  0.0626
  110MOL    H8415562   7.166   2.291   6.959 -0.8025 -0.8703 -1.6974
  110MOL    H8515563   6.915   2.321   6.951  1.6997 -2.3782 -0.2718
  110MOL    C8615564   6.983   2.486   7.044  0.2032  0.0527  0.8551
  110MOL    C8715565   6.957   2.559   7.178  0.0220  0.2108 -0.7186
  110MOL    C8815566   7.036   2.493   7.286  0.0275 -0.5768  0.4507
  110MOL    N8915567   7.101   2.435   7.362 -0.0780 -0.5195 -0.0262
  110MOL    H9015568   7.081   2.518   7.008  1.1384  1.2580  4.2395
  110MOL    H9115569   6.910   2.523   6.973 -0.1477  0.6426  1.5169
  110MOL    H9215570   6.859   2.540   7.222  0.4272 -1.4199 -0.4850
  110MOL    C9315571   6.980   2.711   7.177 -0.3955 -0.1022 -0.6381
  110MOL    C9415572   6.869   2.795   7.114  0.6079 -0.6571  0.2409
  110MOL    C9515573   6.766   2.813   7.213 -0.1094  0.6519 -0.2738
  110MOL    N9615574   6.679   2.840   7.285  0.2707  0.4940  0.0281
  110MOL    H9715575   6.974   2.749   7.279 -4.1357  0.6167 -1.0746
  110MOL    H9815576   7.071   2.737   7.122 -0.9723  0.0187 -1.5513
  110MOL    H9915577   6.824   2.754   7.024  0.3490 -2.1762  1.0502
  110MOL   C10015578   6.929   2.933   7.070  0.7668  0.2099 -0.4435
  110MOL   C10115579   7.007   2.936   6.938  0.1455 -0.7818  0.0939
  110MOL   C10215580   6.933   2.880   6.821 -0.3347 -0.7608  0.3682
  110MOL   N10315581   6.877   2.832   6.730  0.3946  0.2143  0.3725
  110MOL   H10415582   6.845   3.000   7.054 -2.2359 -2.5771  2.8202
  110MOL   H10515583   6.992   2.981   7.145 -2.4869 -0.7059  2.9771
  110MOL   H10615584   7.098   2.879   6.953 -0.6751 -2.1986 -0.1668
  110MOL   C10715585   7.067   3.075   6.910 -0.3373 -0.0274 -0.7651
  110MOL   C10815586   7.181   3.122   7.014  0.9674  0.2491  0.2694
  110MOL   C10915587   7.296   3.178   6.944 -0.1480  0.6279  0.4732
  110MOL   N11015588   7.388   3.220   6.897 -0.0076  0.1957  0.5782
  110MOL   H11115589   7.108   3.075   6.809  0.2212 -4.0078 -0.6095
  110MOL   H11215590   6.984   3.145   6.900 -0.6610 -0.3981 -0.6801
  110MOL   H11315591   7.227   3.043   7.073  0.4747 -0.3552 -0.1422
  110MOL   C11415592   7.124   3.234   7.108  0.2226 -0.3132  0.0161
  110MOL   C11515593   7.193   3.244   7.247 -0.1351  0.6077  0.4652
  110MOL   C11615594   7.340   3.254   7.248  0.3396 -0.4639 -0.1137
  110MOL   N11715595   7.451   3.256   7.244  0.2738 -0.5175 -0.1369
  110MOL   H11815596   7.131   3.327   7.052 -0.5285  0.1841  0.7262
  110MOL   H11915597   7.021   3.209   7.134  1.3006 -2.8791  2.0205
  110MOL   H12015598   7.169   3.145   7.286  0.9197 -0.2454 -1.0123
  110MOL   C12115599   7.141   3.366   7.332  0.0995  0.1675 -0.1142
  110MOL   C12215600   7.174   3.364   7.482  0.2977  0.8789 -0.6040
  110MOL   C12315601   7.147   3.493   7.547 -0.4147  0.5101  0.5126
  110MOL   N12415602   7.122   3.597   7.594  0.6147 -0.0571  0.1829
  110MOL   H12515603   7.181   3.460   7.294  0.9252  0.0447  0.4583
  110MOL   H12615604   7.034   3.389   7.330 -0.2918 -1.2857  2.4341
  110MOL   H12715605   7.283   3.357   7.489  0.3263  0.4218 -1.3672
  110MOL   C12815606   7.106   3.250   7.564 -0.5226  0.6813  0.0492
  110MOL   C12915607   7.181   3.195   7.685  0.7282  0.0304 -0.5741
  110MOL   C13015608   7.308   3.113   7.661  0.3488 -0.0808 -0.7547
  110MOL   N13115609   7.403   3.050   7.643  0.0540  0.4762 -0.0424
  110MOL   H13215610   7.002   3.277   7.585 -0.4746 -0.4943  1.8631
  110MOL   H13315611   7.093   3.161   7.501 -1.6094  0.5210  0.4761
  110MOL   H13415612   7.110   3.121   7.724  1.0136 -1.5235 -2.9157
  110MOL   C13515613   7.191   3.291   7.804 -0.2342  0.4339  0.0436
  110MOL   C13615614   7.269   3.229   7.914 -0.2241 -0.4743 -0.2106
  110MOL   C13715615   7.215   3.101   7.952 -0.6106  0.5124 -0.6152
  110MOL   N13815616   7.172   2.998   7.984  0.2676  0.0450  0.1815
  110MOL   H13915617   7.229   3.386   7.766  1.4634 -0.3911 -0.3586
  110MOL   H14015618   7.091   3.311   7.843 -1.2480 -3.3157 -0.4372
  110MOL   H14115619   7.247   3.294   7.999 -0.5771 -2.1485  0.9988
  110MOL   H14215620   7.375   3.218   7.893 -0.3432  0.3359 -1.2311
  111MOL     C115621   4.527   2.401   5.023  0.2260 -0.2349  0.5913
  111MOL     C215622   4.601   2.305   5.119 -0.6471  0.5723 -0.1586
  111MOL     C315623   4.507   2.257   5.225 -0.1480  0.8248  0.1843
  111MOL     N415624   4.431   2.222   5.305  0.5064 -0.5253 -0.1310
  111MOL     H515625   4.592   2.421   4.938 -0.6435 -0.4897 -0.1291
  111MOL     H615626   4.499   2.500   5.059  2.0421  0.3812  0.3786
  111MOL     H715627   4.685   2.362   5.159 -1.2593 -0.6107  2.9299
  111MOL     H815628   4.447   2.354   4.966 -0.4236 -0.3634  1.5988
  111MOL     C915629   4.652   2.182   5.041  0.4241  0.5612 -0.0492
  111MOL    C1015630   4.757   2.089   5.102  0.1313  0.2199  0.4926
  111MOL    C1115631   4.733   1.948   5.049 -0.1475 -0.1593 -0.8176
  111MOL    N1215632   4.714   1.845   5.000  0.0400  0.8098  0.3989
  111MOL    H1315633   4.560   2.127   5.024  2.1938 -2.7830  0.7669
  111MOL    H1415634   4.690   2.205   4.942  2.2347 -1.8499  0.0525
  111MOL    H1515635   4.754   2.090   5.211 -0.8313  2.3137  0.4675
  111MOL    C1615636   4.903   2.128   5.066 -0.5076 -0.1293  0.2576
  111MOL    C1715637   5.020   2.043   5.125 -0.6679 -0.3260 -0.3049
  111MOL    C1815638   5.153   2.095   5.109  0.0360  0.3533  0.0459
  111MOL    N1915639   5.258   2.141   5.091  0.1866  0.4122  0.4169
  111MOL    H2015640   4.928   2.135   4.960 -0.6913 -1.7306  0.0936
  111MOL    H2115641   4.912   2.229   5.106  0.6294 -0.0602 -0.1337
  111MOL    H2215642   5.021   1.948   5.072  0.2861 -1.0061  0.9135
  111MOL    C2315643   5.006   2.014   5.275 -0.4340  0.4519 -0.4311
  111MOL    C2415644   5.018   2.142   5.366  0.7242  0.4535 -0.2178
  111MOL    C2515645   4.908   2.234   5.358 -0.4900 -0.1349 -0.8637
  111MOL    N2615646   4.825   2.309   5.346  0.1600 -0.3590  0.1149
  111MOL    H2715647   4.907   1.973   5.294 -0.4046 -1.1537 -3.4284
  111MOL    H2815648   5.076   1.936   5.305 -1.4264  0.5782  2.2706
  111MOL    H2915649   5.108   2.197   5.340  0.8239  0.5452  0.3166
  111MOL    C3015650   5.046   2.114   5.513 -1.0036  0.1456 -0.8096
  111MOL    C3115651   4.948   2.177   5.612 -0.6051 -0.5650  0.2018
  111MOL    C3215652   4.805   2.123   5.600  0.0442  0.9662 -0.0994
  111MOL    N3315653   4.697   2.082   5.590  0.3198 -0.2099 -0.2115
  111MOL    H3415654   5.051   2.005   5.520 -0.4556  0.1138 -1.6041
  111MOL    H3515655   5.138   2.166   5.541 -0.7092 -1.1202  0.6314
  111MOL    H3615656   4.947   2.284   5.590 -0.0665 -0.1873  1.9201
  111MOL    C3715657   4.992   2.157   5.757  0.1320  0.1827 -0.5130
  111MOL    C3815658   4.960   2.282   5.839  0.1569 -0.3429  0.4521
  111MOL    C3915659   4.815   2.307   5.854 -0.0357  0.2247 -0.0150
  111MOL    N4015660   4.700   2.321   5.865  0.3055  0.0565 -0.3111
  111MOL    H4115661   4.958   2.070   5.812 -0.8281  0.4420 -0.6901
  111MOL    H4215662   5.100   2.146   5.749  0.2088  0.6286 -0.1502
  111MOL    H4315663   4.992   2.369   5.781  0.6208 -1.4033 -0.9165
  111MOL    C4415664   5.026   2.275   5.979 -0.5931  0.3442 -0.7244
  111MOL    C4515665   5.185   2.283   5.974 -0.2164  0.6408  0.3423
  111MOL    C4615666   5.233   2.344   5.848 -0.8024 -0.0199 -0.3820
  111MOL    N4715667   5.275   2.389   5.746 -0.0977  0.5433  0.2867
  111MOL    H4815668   4.990   2.361   6.036 -0.4110  1.3857 -2.1653
  111MOL    H4915669   5.003   2.176   6.019  0.1169  0.2881 -0.4412
  111MOL    H5015670   5.230   2.185   5.964  0.7085  0.9001  1.7959
  111MOL    C5115671   5.245   2.337   6.108 -0.3231 -0.8199 -0.1227
  111MOL    C5215672   5.401   2.364   6.107  0.0799 -0.0769  0.2097
  111MOL    C5315673   5.438   2.496   6.056  0.0392  0.2649  0.1453
  111MOL    N5415674   5.473   2.598   6.017 -0.9419  0.0734 -0.5774
  111MOL    H5515675   5.193   2.428   6.136  1.4569  0.5095 -1.0938
  111MOL    H5615676   5.228   2.270   6.193  0.8831  1.7034  2.1573
  111MOL    H5715677   5.436   2.295   6.030  1.1119 -0.3880  0.9564
  111MOL    C5815678   5.463   2.327   6.236 -0.4846  0.6314  0.8767
  111MOL    C5915679   5.468   2.437   6.344  0.8313 -0.2531  0.7465
  111MOL    C6015680   5.361   2.540   6.339 -0.0213  1.0369 -0.8041
  111MOL    N6115681   5.279   2.615   6.328 -0.9555  0.5468  0.1562
  111MOL    H6215682   5.422   2.234   6.277 -1.2754 -0.3736 -2.0977
  111MOL    H6315683   5.563   2.299   6.203 -0.7782  1.3223 -0.6426
  111MOL    H6415684   5.567   2.482   6.331  1.0102 -1.3481 -2.0685
  111MOL    C6515685   5.478   2.375   6.486  0.3791 -0.7337  0.6643
  111MOL    C6615686   5.503   2.474   6.591  0.0873 -0.7568  0.2375
  111MOL    C6715687   5.461   2.420   6.719 -0.2182 -0.0567 -0.5349
  111MOL    N6815688   5.426   2.365   6.814 -0.5244  0.4343 -0.0467
  111MOL    H6915689   5.379   2.331   6.500  0.5952 -0.7194  2.2695
  111MOL    H7015690   5.556   2.300   6.473 -0.4168 -1.3492 -0.6420
  111MOL    H7115691   5.443   2.560   6.563  3.2631  1.5300  0.1298
  111MOL    C7215692   5.649   2.518   6.615 -1.4387  0.2062 -0.4803
  111MOL    C7315693   5.667   2.632   6.718 -0.5034  0.0909  0.9840
  111MOL    C7415694   5.671   2.595   6.859 -0.1877 -0.1856  0.3326
  111MOL    N7515695   5.674   2.557   6.969 -0.5645 -0.2060 -0.1824
  111MOL    H7615696   5.715   2.436   6.644 -0.7925  1.2447  1.0145
  111MOL    H7715697   5.695   2.544   6.520  0.0566 -1.0413 -0.1173
  111MOL    H7815698   5.573   2.686   6.707  0.6287  1.8437 -0.2961
  111MOL    C7915699   5.769   2.742   6.675  0.5843 -0.0534 -0.2906
  111MOL    C8015700   5.807   2.853   6.772  0.3163 -0.3310 -0.9770
  111MOL    C8115701   5.684   2.917   6.822  0.2173 -0.2038  0.4379
  111MOL    N8215702   5.587   2.968   6.869  0.5983  0.3581 -0.2049
  111MOL    H8315703   5.861   2.683   6.665  1.2880  1.1844 -1.4059
  111MOL    H8415704   5.750   2.768   6.571  0.4585  2.1465  0.2622
  111MOL    H8515705   5.855   2.935   6.718  0.5903 -0.3930 -0.8265
  111MOL    C8615706   5.914   2.815   6.879 -0.2326 -0.6556  0.1521
  111MOL    C8715707   5.991   2.935   6.942 -0.4099 -0.2468  0.2216
  111MOL    C8815708   5.906   3.042   6.994 -0.6724  0.3060 -0.3214
  111MOL    N8915709   5.828   3.125   7.030 -0.0769  0.5078 -0.1973
  111MOL    H9015710   5.858   2.756   6.951 -1.4440 -0.9927 -1.0267
  111MOL    H9115711   5.989   2.746   6.840 -0.0012  0.7956 -2.0989
  111MOL    H9215712   6.047   2.982   6.862  1.4048 -1.5653  0.6920
  111MOL    C9315713   6.101   2.885   7.037  0.3501  0.1677  0.1134
  111MOL    C9415714   6.077   2.886   7.189  0.2265 -0.3950 -0.2182
  111MOL    C9515715   6.044   3.020   7.237 -0.1582 -0.5384 -0.4261
  111MOL    N9615716   6.017   3.124   7.281  0.0843  0.5092  0.0664
  111MOL    H9715717   6.138   2.793   6.993  0.4583 -0.0371  0.6269
  111MOL    H9815718   6.184   2.954   7.026 -0.7982  1.7083  0.8191
  111MOL    H9915719   6.165   2.845   7.237  1.4949  1.2384 -1.1094
  111MOL   C10015720   5.972   2.780   7.234  0.2820  0.1856  0.0896
  111MOL   C10115721   6.007   2.633   7.203 -0.0884  0.4795 -0.9180
  111MOL   C10215722   6.146   2.606   7.238 -0.7007  0.1863 -0.6822
  111MOL   N10315723   6.259   2.587   7.258  0.2862  0.2705  0.3076
  111MOL   H10415724   5.963   2.784   7.342 -0.3314 -0.2909  0.0623
  111MOL   H10515725   5.880   2.801   7.180  0.8139 -1.0545 -1.3587
  111MOL   H10615726   6.015   2.618   7.096 -2.5421  1.0442 -1.2131
  111MOL   C10715727   5.905   2.533   7.261  0.0293  0.0175 -0.8072
  111MOL   C10815728   5.933   2.381   7.239  0.0641 -0.4521 -0.5714
  111MOL   C10915729   5.844   2.300   7.326 -0.3825  0.5873  0.9448
  111MOL   N11015730   5.774   2.243   7.399  0.1323 -0.1417 -0.3439
  111MOL   H11115731   5.897   2.553   7.368 -0.1004  1.1498 -1.0146
  111MOL   H11215732   5.807   2.558   7.220  0.6667  1.2105 -1.6540
  111MOL   H11315733   6.033   2.366   7.280 -0.0603  0.1821 -0.0338
  111MOL   C11415734   5.940   2.337   7.090  0.2041  0.0660 -0.0097
  111MOL   C11515735   5.925   2.185   7.076 -0.2063 -0.1239 -0.3405
  111MOL   C11615736   5.878   2.144   6.948  0.0378 -0.4057  0.0495
  111MOL   N11715737   5.842   2.118   6.842 -0.7555 -0.1727  0.2490
  111MOL   H11815738   5.851   2.384   7.048 -1.0886 -0.0723  2.4980
  111MOL   H11915739   6.020   2.383   7.032  1.4812 -2.2848 -0.1550
  111MOL   H12015740   5.844   2.154   7.141  0.9164  0.2074  1.2676
  111MOL   C12115741   6.035   2.098   7.124 -0.5663  0.2209  0.4916
  111MOL   C12215742   6.159   2.060   7.030  0.5068 -0.0227  0.0962
  111MOL   C12315743   6.122   1.973   6.918 -0.4475 -0.1692  0.4971
  111MOL   N12415744   6.096   1.908   6.827 -0.2748  0.0633  0.5670
  111MOL   H12515745   6.072   2.141   7.217  0.3052  0.3515  0.0783
  111MOL   H12615746   5.993   1.999   7.146  3.0260 -1.2057  1.2286
  111MOL   H12715747   6.217   1.998   7.098  0.4605  0.8745  0.9580
  111MOL   C12815748   6.253   2.185   7.011 -0.2867  0.0992  0.3411
  111MOL   C12915749   6.399   2.139   6.981 -0.2392  0.4431 -0.1563
  111MOL   C13015750   6.405   2.038   6.871 -0.6318 -0.0791  0.2554
  111MOL   N13115751   6.406   1.969   6.781 -0.1985 -0.5033 -0.2973
  111MOL   H13215752   6.205   2.247   6.936 -0.9183  1.0178  1.4835
  111MOL   H13315753   6.248   2.240   7.105  0.0634 -0.0515  0.4499
  111MOL   H13415754   6.448   2.102   7.071 -1.0381 -0.4032 -0.0735
  111MOL   C13515755   6.482   2.261   6.928  0.5851  0.2461 -0.3001
  111MOL   C13615756   6.459   2.380   7.024  1.2512 -0.0337  0.2763
  111MOL   C13715757   6.549   2.492   7.006  0.1794 -0.6512  0.2035
  111MOL   N13815758   6.623   2.580   6.994 -0.1497 -0.2760  0.0689
  111MOL   H13915759   6.590   2.247   6.918  0.9164  2.9558 -0.8021
  111MOL   H14015760   6.445   2.299   6.833 -0.0178 -0.3696 -0.3153
  111MOL   H14115761   6.473   2.364   7.131  0.6839  0.3052  0.3973
  111MOL   H14215762   6.363   2.425   7.000  1.0671 -1.0173 -0.9297
  112MOL     C115763   7.719   0.042   6.892  1.0621 -0.6709 -0.2431
  112MOL     C215764   7.714   8.216   6.938 -0.3589 -0.0029 -0.0824
  112MOL     C315765   7.614   8.132   6.860  0.5932 -0.1198 -0.4161
  112MOL     N415766   7.540   8.071   6.798  0.5688 -0.1238  0.5079
  112MOL     H515767   7.742   0.045   6.786  1.0339  0.0869 -0.2264
  112MOL     H615768   7.795   0.109   6.932  2.8541 -2.3677 -0.7296
  112MOL     H715769   7.686   8.206   7.043  2.2427 -2.0134  0.4894
  112MOL     H815770   7.621   0.089   6.903  0.2114 -2.0566 -1.8090
  112MOL     C915771   7.861   8.155   6.923  0.4936  0.2510  0.2041
  112MOL    C1015772   7.874   8.022   6.996 -0.5706 -0.5080 -0.5486
  112MOL    C1115773   7.843   8.038   7.140 -0.0031 -0.6179 -0.2508
  112MOL    N1215774   7.822   8.046   7.250  0.2218  0.4853  0.3573
  112MOL    H1315775   7.883   8.129   6.820 -0.0408 -0.6123  0.3004
  112MOL    H1415776   7.939   8.222   6.959 -0.7580  2.0531 -0.3733
  112MOL    H1515777   7.981   8.004   7.000 -0.3205  0.7623 -1.2833
  112MOL    C1615778   7.807   7.899   6.939  0.0062 -0.0230 -0.2392
  112MOL    C1715779   7.848   7.759   6.999 -0.5935 -0.1579 -0.0219
  112MOL    C1815780   7.986   7.767   7.049  0.0689 -0.6496  1.0721
  112MOL    N1915781   8.094   7.777   7.093 -0.1210 -0.0953  0.5485
  112MOL    H2015782   7.699   7.907   6.950 -0.5091 -2.3281 -2.8808
  112MOL    H2115783   7.822   7.898   6.831 -2.7180 -1.1345 -0.6421
  112MOL    H2215784   7.842   7.683   6.921 -0.5183 -1.3079  1.0701
  112MOL    C2315785   7.760   7.702   7.117  0.0916  0.0103 -0.2024
  112MOL    C2415786   7.637   7.633   7.063  0.7919 -0.8093 -0.5649
  112MOL    C2515787   7.673   7.509   7.008  0.0503  0.9222 -0.0474
  112MOL    N2615788   7.699   7.407   6.961 -0.2547  0.0623  0.7093
  112MOL    H2715789   7.816   7.637   7.184  0.6858  1.3004  0.5684
  112MOL    H2815790   7.738   7.779   7.191  1.9413 -1.2588  1.7389
  112MOL    H2915791   7.595   7.693   6.982  1.3695  1.0940  0.5345
  112MOL    C3015792   7.527   7.614   7.172  0.1915 -0.3840  0.1229
  112MOL    C3115793   7.462   7.745   7.223 -0.8993  0.6576 -0.1798
  112MOL    C3215794   7.315   7.737   7.208 -0.4114 -0.6893 -0.0594
  112MOL    N3315795   7.196   7.734   7.200 -0.2505  1.0513  0.3125
  112MOL    H3415796   7.458   7.543   7.128  0.7995  0.2144 -1.8415
  112MOL    H3515797   7.567   7.563   7.260  0.1686 -0.7695 -0.0874
  112MOL    H3615798   7.493   7.823   7.154 -2.1807 -0.0366 -1.5636
  112MOL    C3715799   7.511   7.783   7.367  0.0426  0.1086 -0.4310
  112MOL    C3815800   7.442   7.908   7.416  0.0857  0.3847  0.1951
  112MOL    C3915801   7.418   8.012   7.316  0.0531 -0.7448 -0.1841
  112MOL    N4015802   7.394   8.098   7.239 -0.1852 -0.7569  0.1557
  112MOL    H4115803   7.487   7.703   7.437 -0.6865 -0.4176 -1.2622
  112MOL    H4215804   7.619   7.797   7.376 -0.3915  2.0056  2.2578
  112MOL    H4315805   7.499   7.953   7.497  1.3554  2.3538 -1.7587
  112MOL    C4415806   7.309   7.864   7.494  0.4946 -0.1220 -0.1412
  112MOL    C4515807   7.338   7.845   7.649  0.6151 -0.0921 -0.2174
  112MOL    C4615808   7.350   7.980   7.706  0.1004 -0.2220  0.0081
  112MOL    N4715809   7.353   8.089   7.745 -0.1652 -0.0718 -0.4452
  112MOL    H4815810   7.225   7.933   7.484  0.1774 -0.4224  0.4283
  112MOL    H4915811   7.267   7.772   7.455  1.4289  0.3872 -2.4076
  112MOL    H5015812   7.435   7.797   7.651  0.7836  0.2941  1.0450
  112MOL    C5115813   7.237   7.751   7.703 -0.2896  0.3833  0.1985
  112MOL    C5215814   7.197   7.774   7.849 -0.1041  0.3630  0.3101
  112MOL    C5315815   7.109   7.666   7.885  0.4863  0.4859 -0.5671
  112MOL    N5415816   7.041   7.573   7.909 -0.3603 -0.1653 -0.1250
  112MOL    H5515817   7.145   7.742   7.645 -2.1550  1.8104  2.8342
  112MOL    H5615818   7.278   7.652   7.683  1.4941  1.2218 -0.4453
  112MOL    H5715819   7.131   7.861   7.853 -2.1241 -1.2135  4.2910
  112MOL    C5815820   7.318   7.788   7.946  0.2391  0.1677  0.7731
  112MOL    C5915821   7.371   7.656   7.996  0.3734  0.0310  0.0218
  112MOL    C6015822   7.405   7.551   7.894  0.1730  0.7388  0.3251
  112MOL    N6115823   7.428   7.470   7.809 -0.1826 -0.2119 -0.3502
  112MOL    H6215824   7.397   7.845   7.897 -0.7433  1.7727  1.0230
  112MOL    H6315825   7.287   7.839   8.037  0.7785  0.7711  0.6188
  112MOL    H6415826   7.291   7.607   8.053  1.6811 -1.1007  0.9256
  112MOL    C6515827   7.493   7.677   8.092 -0.0161  0.1065 -0.3681
  112MOL    C6615828   7.632   7.677   8.030  0.5606  0.6492  0.1422
  112MOL    C6715829   7.632   7.749   7.903 -0.0587 -0.3894 -0.1086
  112MOL    N6815830   7.632   7.809   7.804 -0.1149  0.1262 -0.0223
  112MOL    H6915831   7.482   7.777   8.134  1.0813 -0.5119  1.4312
  112MOL    H7015832   7.486   7.601   8.170  0.8842 -0.6219 -0.9924
  112MOL    H7115833   7.661   7.574   8.008 -2.2130  0.1910 -1.7628
  112MOL    C7215834   7.752   7.726   8.119  0.2532 -0.0825 -0.1027
  112MOL    C7315835   7.778   7.641   8.247 -0.4998  0.3947  0.0221
  112MOL    C7415836   7.834   7.510   8.213 -0.2751  0.6385 -0.1324
  112MOL    N7515837   7.878   7.407   8.178  0.6596 -0.0681  0.2550
  112MOL    H7615838   7.843   7.715   8.059  0.8473 -1.9928  1.0979
  112MOL    H7715839   7.735   7.827   8.156 -0.9745 -0.3725  0.1439
  112MOL    H7815840   7.683   7.609   8.289  0.7216 -2.5432  0.6958
  112MOL    C7915841   7.847   7.726   0.042 -0.4413 -0.0328  0.0737
  112MOL    C8015842   7.815   7.688   0.191 -0.2216 -0.7722 -0.0769
  112MOL    C8115843   7.900   7.577   0.237 -0.5728  0.4835  0.6152
  112MOL    N8215844   7.970   7.488   0.274  0.1979  0.4989  0.4397
  112MOL    H8315845   7.956   7.727   0.042 -0.4206  0.0024  2.1334
  112MOL    H8415846   7.807   7.828   0.044 -1.3212 -0.3890  2.6510
  112MOL    H8515847   7.720   7.634   0.181 -0.1829 -0.9437  0.4221
  112MOL    C8615848   7.792   7.801   0.297  0.4630 -0.0982  0.1006
  112MOL    C8715849   7.780   7.763   0.447  0.9377 -0.1439  0.0173
  112MOL    C8815850   7.797   7.878   0.543  0.1553 -0.0567  0.1466
  112MOL    N8915851   7.802   7.970   0.619  0.2719  0.2638 -0.3744
  112MOL    H9015852   7.883   7.862   0.295  1.2472 -1.2369  0.3649
  112MOL    H9115853   7.707   7.863   0.269 -0.2660 -1.5691 -1.0155
  112MOL    H9215854   7.859   7.690   0.463  0.3624 -0.9300 -0.6974
  112MOL    C9315855   7.646   7.692   0.479 -0.0864 -0.5830  0.0436
  112MOL    C9415856   7.589   7.719   0.626  0.0581  0.5973 -0.0564
  112MOL    C9515857   7.446   7.680   0.622  0.1398  0.6603 -0.2716
  112MOL    N9615858   7.334   7.648   0.612  0.5276 -0.5525 -0.5895
  112MOL    H9715859   7.568   7.732   0.414  1.3658 -0.8369 -1.9070
  112MOL    H9815860   7.645   7.589   0.442  1.2167 -1.0569  1.3222
  112MOL    H9915861   7.594   7.827   0.641  0.1474  0.8170 -1.5401
  112MOL   C10015862   7.656   7.637   0.731 -0.2948 -0.2111  0.3251
  112MOL   C10115863   7.586   7.667   0.861 -0.8865 -0.0487  0.3533
  112MOL   C10215864   7.554   7.555   0.949 -0.3163  0.7884 -0.4222
  112MOL   N10315865   7.529   7.469   1.022 -0.2961  0.0287  0.2852
  112MOL   H10415866   7.651   7.530   0.714 -0.5543 -0.2659  0.7421
  112MOL   H10515867   7.760   7.669   0.737 -0.4136  0.1209  0.6269
  112MOL   H10615868   7.489   7.716   0.856 -0.4777  0.6607 -0.9592
  112MOL   C10715869   7.659   7.789   0.926  0.1029  0.3123  0.1789
  112MOL   C10815870   7.611   7.832   1.066  0.1101  0.4872 -0.3243
  112MOL   C10915871   7.467   7.812   1.071  0.2254 -0.2664  0.4767
  112MOL   N11015872   7.352   7.797   1.077  0.3006 -0.7938  0.0297
  112MOL   H11115873   7.765   7.766   0.922 -0.7277 -3.7103 -1.4853
  112MOL   H11215874   7.648   7.875   0.860 -0.2980  0.2971  0.2244
  112MOL   H11315875   7.636   7.937   1.084 -0.7465  0.6437 -0.0408
  112MOL   C11415876   7.677   7.747   1.179 -0.2897 -0.4514  0.1306
  112MOL   C11515877   7.600   7.746   1.315 -0.3287 -0.6391 -0.6406
  112MOL   C11615878   7.654   7.645   1.406 -0.3485 -0.2303  0.4993
  112MOL   N11715879   7.695   7.565   1.473  0.2229  0.2601 -0.0966
  112MOL   H11815880   7.687   7.648   1.135  0.5155  0.8330 -2.6975
  112MOL   H11915881   7.783   7.770   1.196  0.5091 -1.7013 -2.7260
  112MOL   H12015882   7.503   7.704   1.291 -1.0823  0.2291  0.8551
  112MOL   C12115883   7.600   7.882   1.382 -0.1626  0.8407 -0.0883
  112MOL   C12215884   7.732   7.946   1.425  0.0301 -0.6885  0.2712
  112MOL   C12315885   7.723   8.089   1.421  0.1196  0.6688  0.0478
  112MOL   N12415886   7.717   8.204   1.420 -0.1737 -0.5155  0.6337
  112MOL   H12515887   7.555   7.955   1.315  0.8500  1.4310 -0.1370
  112MOL   H12615888   7.536   7.888   1.470 -2.7248  0.2806 -1.8745
  112MOL   H12715889   7.814   7.930   1.355 -1.7591 -2.5009 -1.4726
  112MOL   C12815890   7.779   7.896   1.565 -0.1853  0.2166  0.1829
  112MOL   C12915891   7.904   7.974   1.625 -0.1778 -0.1049 -0.0663
  112MOL   C13015892   7.859   8.111   1.673  0.0226 -0.0964 -0.2964
  112MOL   N13115893   7.826   8.212   1.715  0.0499  0.8593  0.4430
  112MOL   H13215894   7.692   7.891   1.630  0.5175  1.8459  1.2985
  112MOL   H13315895   7.812   7.794   1.545  0.2039  0.7042 -1.7523
  112MOL   H13415896   7.975   7.988   1.544  1.7830 -0.2117  1.5824
  112MOL   C13515897   7.983   7.896   1.737 -0.4761  0.3798 -0.1161
  112MOL   C13615898   8.083   7.972   1.823 -0.1566 -0.0184  0.0631
  112MOL   C13715899   8.214   7.981   1.750 -0.7868  0.8738  0.1937
  112MOL   N13815900   8.312   7.991   1.692  0.7969 -0.5815  0.2169
  112MOL   H13915901   7.912   7.850   1.805  1.7287 -1.8027  0.7681
  112MOL   H14015902   8.041   7.818   1.688  0.3219  0.6500  0.3859
  112MOL   H14115903   8.111   7.905   1.905  0.5189  1.7924  1.3321
  112MOL   H14215904   8.048   8.066   1.864  1.3438  1.6024 -2.2494
  113MOL     C115905   4.724   4.160   3.377  0.2625  0.2627 -0.2393
  113MOL     C215906   4.627   4.240   3.468  0.1031  0.7212 -0.8774
  113MOL     C315907   4.698   4.316   3.569  0.2382  0.6962  1.0983
  113MOL     N415908   4.760   4.378   3.641  0.5330 -0.0724 -0.0062
  113MOL     H515909   4.654   4.094   3.325 -1.5220  0.6713  1.5848
  113MOL     H615910   4.802   4.100   3.424  0.1866  1.0037  0.8515
  113MOL     H715911   4.565   4.165   3.517  1.5601  0.0263 -0.0964
  113MOL     H815912   4.778   4.214   3.300  0.1634  0.2299 -0.3333
  113MOL     C915913   4.548   4.339   3.376  0.1845 -0.0121  1.0303
  113MOL    C1015914   4.422   4.402   3.447 -0.3362  0.3186 -0.2509
  113MOL    C1115915   4.457   4.529   3.516  0.0210 -0.0473  0.9049
  113MOL    N1215916   4.480   4.630   3.564 -0.3312 -0.5495 -0.2890
  113MOL    H1315917   4.608   4.418   3.331 -0.5393 -0.6737 -1.1573
  113MOL    H1415918   4.512   4.279   3.292  1.9646 -2.4333  1.9192
  113MOL    H1515919   4.402   4.326   3.522  0.3954 -0.5711 -0.9475
  113MOL    C1615920   4.293   4.421   3.364  0.0307 -0.2074 -0.2665
  113MOL    C1715921   4.297   4.537   3.267  0.2323  0.1392 -0.3252
  113MOL    C1815922   4.388   4.533   3.149 -0.0258 -0.4892 -0.0961
  113MOL    N1915923   4.454   4.528   3.057  0.5285 -0.1733  0.1934
  113MOL    H2015924   4.281   4.330   3.305  0.6331 -0.8761  0.6169
  113MOL    H2115925   4.210   4.442   3.432  0.3347 -1.8174  0.6388
  113MOL    H2215926   4.336   4.620   3.326 -0.6061 -0.0945  0.5773
  113MOL    C2315927   4.153   4.587   3.229  0.1574 -0.0038  0.6084
  113MOL    C2415928   4.097   4.548   3.093  0.8983 -0.1918 -0.6110
  113MOL    C2515929   4.112   4.404   3.058  0.2452 -0.0280 -0.0816
  113MOL    N2615930   4.122   4.293   3.029  0.1584 -0.3928 -0.1490
  113MOL    H2715931   4.088   4.567   3.314 -0.2653  2.5537  0.9244
  113MOL    H2815932   4.163   4.696   3.226 -0.6824  0.0475 -2.7427
  113MOL    H2915933   4.159   4.599   3.020 -0.8769 -0.0714 -2.0813
  113MOL    C3015934   3.949   4.585   3.069 -1.1161 -0.0458 -0.0717
  113MOL    C3115935   3.842   4.556   3.172  0.0051  0.0040  0.2341
  113MOL    C3215936   3.857   4.426   3.246  0.2621  0.3408  0.0428
  113MOL    N3315937   3.866   4.326   3.300  0.5409  0.8397 -0.6033
  113MOL    H3415938   3.944   4.690   3.041  1.9313  0.0464 -0.3554
  113MOL    H3515939   3.919   4.530   2.980 -1.9371 -0.5174  0.4830
  113MOL    H3615940   3.753   4.548   3.110  0.8258 -2.6135 -0.6461
  113MOL    C3715941   3.813   4.671   3.273 -0.4601  0.3236  0.5131
  113MOL    C3815942   3.661   4.651   3.328  0.1392  0.7174  0.9727
  113MOL    C3915943   3.632   4.537   3.422 -0.0547 -0.5724 -0.1727
  113MOL    N4015944   3.610   4.449   3.500 -0.1286 -0.3980 -0.5624
  113MOL    H4115945   3.886   4.668   3.353  1.3905 -1.4781 -1.2040
  113MOL    H4215946   3.820   4.768   3.223  0.5084  0.3857  0.7573
  113MOL    H4315947   3.595   4.628   3.244 -1.6566  3.2066  1.6246
  113MOL    C4415948   3.603   4.779   3.394  0.5984 -0.1737  0.0837
  113MOL    C4515949   3.472   4.826   3.337 -0.4136 -0.0309 -0.0084
  113MOL    C4615950   3.374   4.710   3.337  0.0785  0.7733  0.2072
  113MOL    N4715951   3.305   4.616   3.335 -0.2192  0.0630 -0.5059
  113MOL    H4815952   3.598   4.763   3.502  0.9035  1.0188  0.2904
  113MOL    H4915953   3.679   4.856   3.381  0.0289  0.2983 -0.4659
  113MOL    H5015954   3.494   4.845   3.232  0.2558 -0.1944  0.1004
  113MOL    C5115955   3.421   4.946   3.410  0.0350 -0.2205  0.0820
  113MOL    C5215956   3.483   5.091   3.380 -0.4339  0.2667 -0.0370
  113MOL    C5315957   3.521   5.095   3.235  0.0250 -0.1995  0.6150
  113MOL    N5415958   3.547   5.095   3.123 -0.6697 -0.4399  0.0644
  113MOL    H5515959   3.315   4.962   3.392  0.3187  1.4477 -0.1997
  113MOL    H5615960   3.431   4.932   3.517  1.0833  0.2823  0.0535
  113MOL    H5715961   3.579   5.115   3.426  1.0213  0.0413 -2.7902
  113MOL    C5815962   3.389   5.207   3.406 -0.3807  0.0897 -0.4962
  113MOL    C5915963   3.352   5.199   3.555 -0.1380 -0.6194  0.3677
  113MOL    C6015964   3.468   5.234   3.635 -0.6001  0.1216 -0.1373
  113MOL    N6115965   3.561   5.263   3.698 -0.3001  0.0176 -0.2579
  113MOL    H6215966   3.437   5.299   3.374  0.9348 -0.7338 -0.9621
  113MOL    H6315967   3.298   5.205   3.346 -1.9586  0.2575  1.8055
  113MOL    H6415968   3.330   5.094   3.574  2.6652 -1.1687  0.7315
  113MOL    C6515969   3.220   5.274   3.588  0.0570  0.1291 -0.0564
  113MOL    C6615970   3.185   5.277   3.734  0.0509 -0.3942 -0.6892
  113MOL    C6715971   3.061   5.353   3.767  0.1665 -0.2690  0.3164
  113MOL    N6815972   2.962   5.409   3.796  0.2160 -0.5726 -0.2854
  113MOL    H6915973   3.232   5.377   3.552  1.3734 -0.3120 -0.9271
  113MOL    H7015974   3.138   5.226   3.535 -0.6259  0.3772  0.7742
  113MOL    H7115975   3.257   5.348   3.775  0.1835 -0.5468 -0.6576
  113MOL    C7215976   3.184   5.137   3.818  0.0423  0.4353  0.5142
  113MOL    C7315977   3.228   5.162   3.962  0.5531  0.4860  0.5326
  113MOL    C7415978   3.256   5.033   4.034  0.6491  0.3697  0.8816
  113MOL    N7515979   3.273   4.936   4.087  0.2109  0.7566 -0.1532
  113MOL    H7615980   3.084   5.096   3.828  0.8041 -1.1705  1.6042
  113MOL    H7715981   3.254   5.063   3.780 -1.1873  0.0161 -0.9799
  113MOL    H7815982   3.140   5.205   4.009  0.7942  0.1757  1.2749
  113MOL    C7915983   3.352   5.250   3.982  0.1792 -0.2840  0.5530
  113MOL    C8015984   3.431   5.226   4.119  0.4055  0.4676 -0.1214
  113MOL    C8115985   3.553   5.309   4.119 -0.1016  0.1790 -0.1832
  113MOL    N8215986   3.649   5.372   4.119 -0.1990 -0.3328  0.1645
  113MOL    H8315987   3.422   5.227   3.902  0.7512 -1.2775  1.3325
  113MOL    H8415988   3.313   5.352   3.975 -1.8364 -0.7600  3.5741
  113MOL    H8515989   3.471   5.124   4.118 -1.9594 -0.5037 -0.9788
  113MOL    C8615990   3.334   5.259   4.235 -0.2117 -0.5717  0.3865
  113MOL    C8715991   3.380   5.219   4.384 -0.6698  0.5809  0.8158
  113MOL    C8815992   3.272   5.261   4.466  0.5710 -0.4476 -0.3958
  113MOL    N8915993   3.182   5.300   4.533 -0.8385 -0.4465 -0.3519
  113MOL    H9015994   3.314   5.366   4.231  1.4487 -0.3089 -2.5022
  113MOL    H9115995   3.237   5.216   4.210 -1.1185  0.9077  1.3149
  113MOL    H9215996   3.472   5.270   4.414 -0.4376  1.0154 -0.5655
  113MOL    C9315997   3.408   5.069   4.393  0.0554  0.0141  0.2505
  113MOL    C9415998   3.465   5.017   4.529 -0.1664 -0.7306 -0.1410
  113MOL    C9515999   3.370   5.019   4.644 -0.0571  0.0528  0.0111
  113MOL    N9616000   3.297   5.019   4.736  0.1260 -0.6176  0.4858
  113MOL    H9716001   3.311   5.029   4.363 -0.9298  2.0968  0.5594
  113MOL    H9816002   3.476   5.028   4.319 -1.7659  1.1654 -2.1162
  113MOL    H9916003   3.545   5.087   4.554  0.4329 -0.2763 -3.1108
  113MOL   C10016004   3.511   4.878   4.513  0.0220  0.8412  0.1096
  113MOL   C10116005   3.655   4.853   4.454  0.3312 -0.3855 -0.1446
  113MOL   C10216006   3.763   4.929   4.523  0.8966 -0.6167  0.1962
  113MOL   N10316007   3.849   4.990   4.573 -0.7259  0.6679 -0.6080
  113MOL   H10416008   3.504   4.839   4.615  1.3196 -0.0185 -0.1210
  113MOL   H10516009   3.437   4.826   4.453 -2.1923  1.0249  2.6084
  113MOL   H10616010   3.659   4.884   4.350 -1.5255  1.5237  0.3104
  113MOL   C10716011   3.698   4.707   4.457  0.0677  0.1745 -0.1718
  113MOL   C10816012   3.830   4.671   4.392  0.0663 -0.4119  0.0599
  113MOL   C10916013   3.854   4.764   4.271  0.5168  0.3408  0.3415
  113MOL   N11016014   3.865   4.836   4.182 -0.5511 -0.2157 -0.0533
  113MOL   H11116015   3.692   4.667   4.559 -1.1824  1.5354  0.3146
  113MOL   H11216016   3.615   4.661   4.404 -0.5059  0.1373  0.7464
  113MOL   H11316017   3.811   4.571   4.354  0.4997 -0.4148 -0.1592
  113MOL   C11416018   3.947   4.662   4.494 -0.2686  0.0202  0.1422
  113MOL   C11516019   4.075   4.597   4.432 -0.0819 -0.0935  0.7039
  113MOL   C11616020   4.128   4.692   4.330  0.2790 -0.2169 -0.3667
  113MOL   N11716021   4.165   4.763   4.250 -0.3114  0.2707  0.5300
  113MOL   H11816022   3.973   4.755   4.543  0.6359 -0.1908  0.0733
  113MOL   H11916023   3.914   4.593   4.572  0.5965 -1.3386 -0.6686
  113MOL   H12016024   4.051   4.511   4.368 -0.5208 -0.9801  2.0394
  113MOL   C12116025   4.174   4.548   4.536  0.4268  0.2076 -0.1315
  113MOL   C12216026   4.280   4.457   4.472 -0.2098 -0.0925  1.0666
  113MOL   C12316027   4.387   4.541   4.407  0.4915 -0.1580 -0.1792
  113MOL   N12416028   4.468   4.606   4.356  0.2862 -0.3137  0.5488
  113MOL   H12516029   4.217   4.630   4.594  1.2074  0.3816 -0.9581
  113MOL   H12616030   4.121   4.486   4.609  0.4407  0.8039  0.3947
  113MOL   H12716031   4.239   4.392   4.394  0.6914  1.6574 -0.9395
  113MOL   C12816032   4.349   4.361   4.579 -0.1239 -0.2213 -0.0465
  113MOL   C12916033   4.393   4.449   4.695  0.2177 -0.1893  0.5755
  113MOL   C13016034   4.277   4.463   4.792  0.6405  0.3328 -0.6711
  113MOL   N13116035   4.188   4.471   4.863 -0.4676 -0.1197  0.3475
  113MOL   H13216036   4.288   4.279   4.618 -0.3137  0.4933  1.2058
  113MOL   H13316037   4.434   4.306   4.539  0.4283  0.5190  0.0899
  113MOL   H13416038   4.416   4.549   4.661  1.7357 -0.6684  0.1367
  113MOL   C13516039   4.525   4.383   4.754 -0.7281  0.4112 -1.3024
  113MOL   C13616040   4.499   4.234   4.804  0.6515 -0.0902  0.1959
  113MOL   C13716041   4.604   4.167   4.874  0.2718 -0.0602 -0.3908
  113MOL   N13816042   4.691   4.113   4.935  0.6739 -0.7057  0.2916
  113MOL   H13916043   4.604   4.392   4.680  3.1019 -0.0690  2.5317
  113MOL   H14016044   4.556   4.436   4.844  0.8171 -1.0552 -0.9459
  113MOL   H14116045   4.461   4.169   4.726 -2.1019  0.6256  0.8747
  113MOL   H14216046   4.414   4.238   4.872 -0.3656 -1.1910 -0.9862
  114MOL     C116047   4.928   0.981   1.927  0.1628  1.3768 -0.5626
  114MOL     C216048   4.779   0.984   1.913  0.3390  0.4064  0.1221
  114MOL     C316049   4.715   1.010   2.041  0.1955 -0.3560  0.1523
  114MOL     N416050   4.663   1.030   2.145 -0.1872  0.4805 -0.5835
  114MOL     H516051   4.969   0.900   1.987  0.2667 -0.3014 -2.7939
  114MOL     H616052   4.980   1.072   1.956 -0.5481  0.9419  2.1254
  114MOL     H716053   4.749   0.881   1.895  1.3466 -0.2493  2.0153
  114MOL     H816054   4.962   0.953   1.827  1.0485 -1.9425  0.5865
  114MOL     C916055   4.722   1.073   1.802 -0.3682 -0.2347 -0.2285
  114MOL    C1016056   4.754   1.222   1.803  0.3775 -0.7463 -0.7280
  114MOL    C1116057   4.894   1.245   1.777  0.4123 -0.3578 -0.3319
  114MOL    N1216058   5.005   1.261   1.759  0.5158 -0.1209 -0.3240
  114MOL    H1316059   4.756   1.041   1.703 -0.1887  1.7544 -0.8443
  114MOL    H1416060   4.614   1.063   1.798 -0.5170  0.1460  2.1888
  114MOL    H1516061   4.735   1.262   1.903 -0.0135 -0.4836 -0.9037
  114MOL    C1616062   4.667   1.302   1.701  0.3782  0.0286  0.1277
  114MOL    C1716063   4.526   1.331   1.756 -0.1718 -0.3513 -0.1530
  114MOL    C1816064   4.537   1.412   1.880 -0.2158 -0.3396 -0.0162
  114MOL    N1916065   4.551   1.469   1.983 -0.3510  0.5266  0.6685
  114MOL    H2016066   4.720   1.395   1.681  0.1733 -0.3223 -2.2168
  114MOL    H2116067   4.670   1.234   1.615  0.5005  0.1800  0.0114
  114MOL    H2216068   4.477   1.240   1.790 -2.9404  1.0768 -0.1675
  114MOL    C2316069   4.443   1.409   1.653  0.1560 -0.0301  0.2378
  114MOL    C2416070   4.390   1.346   1.518 -0.5600 -0.2675  0.3164
  114MOL    C2516071   4.295   1.234   1.539  0.3884  0.2060 -0.4285
  114MOL    N2616072   4.220   1.145   1.555 -0.8337 -0.3625  0.1019
  114MOL    H2716073   4.346   1.439   1.692 -0.5356 -0.7607 -0.8809
  114MOL    H2816074   4.500   1.499   1.633 -2.4065  1.5412 -0.2633
  114MOL    H2916075   4.481   1.305   1.474  0.1041  1.0566  0.4299
  114MOL    C3016076   4.325   1.462   1.434 -0.3031 -0.4370  0.1124
  114MOL    C3116077   4.432   1.562   1.378 -0.4908  0.3897  0.0496
  114MOL    C3216078   4.530   1.479   1.298 -0.1545  0.5834  0.8793
  114MOL    N3316079   4.602   1.411   1.233 -0.0484 -0.0309 -0.6856
  114MOL    H3416080   4.290   1.401   1.350  1.2436 -0.7782 -0.2918
  114MOL    H3516081   4.239   1.509   1.482 -0.1351 -1.3111  1.3134
  114MOL    H3616082   4.487   1.609   1.460 -0.2114 -0.1344  0.1601
  114MOL    C3716083   4.367   1.667   1.300 -0.0961  0.0537  0.3551
  114MOL    C3816084   4.458   1.787   1.274  0.0447  0.2631 -0.1701
  114MOL    C3916085   4.475   1.875   1.388 -0.0486  0.0874  0.2248
  114MOL    N4016086   4.499   1.946   1.475 -0.0098  0.2305  0.2326
  114MOL    H4116087   4.330   1.623   1.208  0.9034  2.6537 -1.3622
  114MOL    H4216088   4.274   1.699   1.346 -0.2732  2.2411 -1.4448
  114MOL    H4316089   4.399   1.859   1.218  0.9360  1.6930  0.7097
  114MOL    C4416090   4.591   1.761   1.196  0.4925 -0.6370 -0.6942
  114MOL    C4516091   4.581   1.756   1.046  0.4102  0.5090 -0.1477
  114MOL    C4616092   4.479   1.655   0.997 -0.2328  0.6479  0.8758
  114MOL    N4716093   4.406   1.578   0.958 -0.7933 -0.1840 -0.2275
  114MOL    H4816094   4.656   1.839   1.237  0.2163  0.1256 -1.6792
  114MOL    H4916095   4.638   1.683   1.255 -0.2107  0.4069  1.3194
  114MOL    H5016096   4.676   1.716   1.010  0.3800 -0.8772  1.2518
  114MOL    C5116097   4.567   1.887   0.966  0.0243 -0.7004  0.1034
  114MOL    C5216098   4.677   1.990   0.991 -0.5849  0.1045  0.3330
  114MOL    C5316099   4.812   1.939   0.972 -1.1445 -0.4405  1.0541
  114MOL    N5416100   4.917   1.890   0.965  0.0075  0.7832  0.0220
  114MOL    H5516101   4.580   1.858   0.862 -3.1058 -0.2897 -0.4506
  114MOL    H5616102   4.468   1.932   0.969  0.9176  1.2680  3.6633
  114MOL    H5716103   4.659   2.033   1.090 -0.9983 -0.3520  0.4551
  114MOL    C5816104   4.671   2.109   0.889  0.4561  0.5345  0.5351
  114MOL    C5916105   4.780   2.215   0.899  0.3775 -0.5299  0.4332
  114MOL    C6016106   4.796   2.274   1.032 -0.0590 -0.1443  0.3771
  114MOL    N6116107   4.808   2.330   1.131  0.4086  0.2917 -0.5761
  114MOL    H6216108   4.680   2.071   0.788 -0.1042  0.4645  0.5155
  114MOL    H6316109   4.571   2.151   0.885  0.1664 -0.0414  1.4926
  114MOL    H6416110   4.739   2.305   0.851 -0.6603 -1.0628  0.3031
  114MOL    C6516111   4.926   2.188   0.842  0.0011 -0.0940 -0.7323
  114MOL    C6616112   4.994   2.311   0.769 -0.4057  0.3641  0.4085
  114MOL    C6716113   4.906   2.364   0.665  0.3026 -0.4670 -0.2237
  114MOL    N6816114   4.831   2.411   0.588 -0.6271 -0.2521  0.2019
  114MOL    H6916115   4.991   2.155   0.924 -1.1457  0.5858  0.4742
  114MOL    H7016116   4.917   2.111   0.765  0.6504  0.5302 -1.4384
  114MOL    H7116117   5.067   2.259   0.706  0.0860 -0.0273  1.2961
  114MOL    C7216118   5.052   2.427   0.862  0.3295 -0.3830  0.3532
  114MOL    C7316119   5.141   2.376   0.976  0.3121 -0.8901  0.1977
  114MOL    C7416120   5.256   2.298   0.928  0.6120  0.0420 -0.1932
  114MOL    N7516121   5.347   2.234   0.895 -0.0061  0.1579  0.0393
  114MOL    H7616122   5.108   2.492   0.796  0.2549  0.6009  1.2501
  114MOL    H7716123   4.976   2.491   0.908  0.7075  0.0239  0.4153
  114MOL    H7816124   5.077   2.307   1.030 -1.4832 -0.6917 -1.5999
  114MOL    C7916125   5.189   2.497   1.063  0.9564 -0.4184  0.4940
  114MOL    C8016126   5.243   2.460   1.201 -0.1109 -0.4365 -0.3978
  114MOL    C8116127   5.207   2.325   1.246  0.0155 -0.2353  0.4993
  114MOL    N8216128   5.173   2.222   1.281 -0.0723 -0.3920 -0.9201
  114MOL    H8316129   5.261   2.557   1.007 -1.6097  3.1164  0.8142
  114MOL    H8416130   5.102   2.560   1.081  2.8073  2.1478  0.7779
  114MOL    H8516131   5.205   2.528   1.277  3.9721  0.0001  1.4329
  114MOL    C8616132   5.392   2.487   1.221 -0.4998 -0.0876  0.4473
  114MOL    C8716133   5.437   2.630   1.206  0.2960  0.7475  0.6024
  114MOL    C8816134   5.350   2.733   1.266  0.0923 -0.5401  0.0384
  114MOL    N8916135   5.283   2.819   1.304 -0.0842 -0.2471  0.1113
  114MOL    H9016136   5.410   2.451   1.322 -0.0367 -1.0987  0.0109
  114MOL    H9116137   5.449   2.418   1.159  0.5390  0.2367  1.0234
  114MOL    H9216138   5.435   2.651   1.099  2.0030 -0.3787  0.3313
  114MOL    C9316139   5.586   2.645   1.249 -0.6800 -0.3061 -0.0869
  114MOL    C9416140   5.641   2.791   1.222 -0.4738  0.2964  0.8139
  114MOL    C9516141   5.781   2.796   1.286  0.6816  0.0458  0.1598
  114MOL    N9616142   5.879   2.802   1.343  0.2999  0.2510 -0.2491
  114MOL    H9716143   5.610   2.619   1.353 -2.3129  1.2124  0.6952
  114MOL    H9816144   5.645   2.574   1.191 -1.9970  0.2621 -2.1611
  114MOL    H9916145   5.585   2.867   1.276 -0.6007 -0.3082  1.5324
  114MOL   C10016146   5.641   2.827   1.069 -0.4809  0.0844 -0.1426
  114MOL   C10116147   5.697   2.968   1.031  0.3002 -0.2764 -0.1987
  114MOL   C10216148   5.638   3.077   1.103  0.3105 -0.5903 -0.0567
  114MOL   N10316149   5.585   3.170   1.158 -0.0218  0.3026 -0.0112
  114MOL   H10416150   5.702   2.760   1.008  0.3903  0.6510  0.0942
  114MOL   H10516151   5.536   2.833   1.043 -0.5809 -0.9283  0.0228
  114MOL   H10616152   5.676   2.994   0.927 -1.6896 -0.8600  0.0424
  114MOL   C10716153   5.855   2.987   1.035  0.9893  0.5373 -0.2709
  114MOL   C10816154   5.941   2.909   0.924  0.0387 -0.5019 -0.8573
  114MOL   C10916155   5.873   2.920   0.792  0.0445 -0.5396 -0.2806
  114MOL   N11016156   5.819   2.923   0.690  0.2636 -0.0376  0.4608
  114MOL   H11116157   5.885   3.091   1.020 -0.3576  0.9868  0.1146
  114MOL   H11216158   5.886   2.976   1.139  0.0967  0.4765 -0.0116
  114MOL   H11316159   5.927   2.803   0.947  1.4935 -0.6423 -0.5767
  114MOL   C11416160   6.090   2.950   0.923  0.3824  0.0647 -0.8657
  114MOL   C11516161   6.177   2.847   0.852 -0.0117 -0.1190 -0.0625
  114MOL   C11616162   6.306   2.891   0.813  0.1807  0.9005  0.9478
  114MOL   N11716163   6.409   2.929   0.778 -0.3076 -0.3506  0.5391
  114MOL   H11816164   6.107   3.036   0.859 -3.3404  1.9159  0.4593
  114MOL   H11916165   6.129   2.971   1.023  0.6384 -0.9796 -0.7416
  114MOL   H12016166   6.130   2.838   0.754 -0.5358 -1.0583  0.2706
  114MOL   C12116167   6.192   2.708   0.908 -0.5743 -0.0128  0.0009
  114MOL   C12216168   6.281   2.687   1.036  0.1451 -0.6517 -0.1219
  114MOL   C12316169   6.304   2.800   1.117  0.4914 -0.5447  0.1502
  114MOL   N12416170   6.323   2.895   1.182  0.4850  0.1332  0.0985
  114MOL   H12516171   6.096   2.662   0.929 -0.6864  0.9004  1.5729
  114MOL   H12616172   6.241   2.655   0.826 -2.4517 -0.5918 -0.7767
  114MOL   H12716173   6.383   2.669   1.003  0.3047 -0.1200  0.0602
  114MOL   C12816174   6.245   2.562   1.112 -0.1937  0.2780  0.4725
  114MOL   C12916175   6.118   2.571   1.203  0.7302 -0.8406 -0.1004
  114MOL   C13016176   5.995   2.578   1.129 -0.4518  0.0292 -0.4441
  114MOL   N13116177   5.895   2.577   1.069 -0.1143  0.1567  0.5941
  114MOL   H13216178   6.228   2.474   1.050  2.9515  0.6696 -1.0532
  114MOL   H13316179   6.334   2.536   1.170  0.3351 -1.7743 -1.2016
  114MOL   H13416180   6.128   2.665   1.256  0.1994  0.2854 -1.9670
  114MOL   C13516181   6.100   2.451   1.302 -0.2991 -0.0651 -0.1585
  114MOL   C13616182   5.963   2.450   1.382 -0.3169  0.1926  0.0908
  114MOL   C13716183   5.963   2.532   1.502 -0.5779  0.9987 -0.2354
  114MOL   N13816184   5.962   2.590   1.598 -0.2047 -0.2813 -0.1658
  114MOL   H13916185   6.104   2.362   1.239  2.2710 -0.5019  0.5684
  114MOL   H14016186   6.180   2.430   1.372 -0.5515 -1.2898 -0.2297
  114MOL   H14116187   5.943   2.352   1.424 -1.6618  1.8264  3.4790
  114MOL   H14216188   5.876   2.480   1.322  0.7577 -0.5344 -1.8911
  115MOL     C116189   0.820   7.879   1.350 -0.6598 -0.5272 -0.8663
  115MOL     C216190   0.792   7.818   1.216 -0.0563 -0.0030  0.1616
  115MOL     C316191   0.848   7.904   1.106 -0.4552  0.1630 -1.0136
  115MOL     N416192   0.891   7.967   1.025  0.6854 -0.1133  0.2623
  115MOL     H516193   0.928   7.887   1.362 -0.4187 -2.4033 -1.7245
  115MOL     H616194   0.796   7.808   1.429  2.6068  0.6159  1.2949
  115MOL     H716195   0.685   7.801   1.202 -0.0324  1.5545 -2.3602
  115MOL     H816196   0.769   7.974   1.364  0.3946 -0.1517  0.5595
  115MOL     C916197   0.855   7.678   1.208  0.2268  0.1716  0.0111
  115MOL    C1016198   0.856   7.612   1.065  0.7218  0.0850  1.0152
  115MOL    C1116199   0.892   7.468   1.077  0.0862 -0.7622  0.6481
  115MOL    N1216200   0.921   7.356   1.082  0.4771  0.2772  0.2713
  115MOL    H1316201   0.958   7.678   1.241 -0.1330 -0.9894  1.1822
  115MOL    H1416202   0.817   7.609   1.283  1.8010 -0.3052  0.3865
  115MOL    H1516203   0.939   7.664   1.018  0.1283 -0.0517 -0.2162
  115MOL    C1616204   0.725   7.628   0.977  0.1520  1.2630  0.0260
  115MOL    C1716205   0.593   7.566   1.041 -0.1673  0.5777  0.7232
  115MOL    C1816206   0.563   7.580   1.187 -0.2168 -0.1772 -0.2663
  115MOL    N1916207   0.537   7.589   1.296  0.6453  0.0092 -0.8372
  115MOL    H2016208   0.695   7.733   0.966  0.2566  1.1568 -1.3586
  115MOL    H2116209   0.731   7.603   0.871 -3.6451 -3.2680  0.7405
  115MOL    H2216210   0.600   7.458   1.026  1.2223  0.3114  3.0320
  115MOL    C2316211   0.466   7.618   0.963 -0.1304  0.4186  0.1587
  115MOL    C2416212   0.329   7.574   1.022 -0.4540  0.7233 -0.3219
  115MOL    C2516213   0.217   7.622   0.936 -0.3185 -0.2378 -0.0071
  115MOL    N2616214   0.135   7.653   0.859  0.1840  0.2656  0.2423
  115MOL    H2716215   0.469   7.727   0.970  1.1856  0.7141 -3.9464
  115MOL    H2816216   0.466   7.591   0.858 -0.0273  0.0382  0.2568
  115MOL    H2916217   0.316   7.606   1.125  0.4286  1.5385 -0.4545
  115MOL    C3016218   0.318   7.421   1.021 -0.0486  0.1449 -0.4659
  115MOL    C3116219   0.299   7.349   0.885  0.9013 -0.3844  0.2563
  115MOL    C3216220   0.411   7.353   0.789 -0.1987  0.3403  0.2265
  115MOL    N3316221   0.504   7.361   0.723  0.1900 -0.3111 -0.5078
  115MOL    H3416222   0.384   7.373   1.093  1.1931  1.4853 -0.6751
  115MOL    H3516223   0.219   7.409   1.066 -0.8760 -1.1017 -2.5544
  115MOL    H3616224   0.226   7.401   0.822 -0.8678 -2.7399  0.2950
  115MOL    C3716225   0.260   7.204   0.915 -0.2184 -0.4753 -0.2711
  115MOL    C3816226   0.134   7.187   1.001  0.0021 -0.5180  0.5219
  115MOL    C3916227   0.031   7.286   0.970 -0.4810  0.2636 -0.2100
  115MOL    N4016228   8.254   7.359   0.949  0.3561 -0.1923  0.3813
  115MOL    H4116229   0.220   7.159   0.824 -1.9424 -0.4715  0.4597
  115MOL    H4216230   0.343   7.147   0.958 -0.2301  1.0303  1.8303
  115MOL    H4316231   0.153   7.203   1.107 -0.7828 -2.3137  0.9622
  115MOL    C4416232   0.093   7.039   0.991  0.3141  0.3278 -0.7012
  115MOL    C4516233   0.020   6.981   1.111  0.7100 -0.5725  0.7734
  115MOL    C4616234   8.200   7.044   1.117 -0.0249 -0.5261  0.5215
  115MOL    N4716235   8.098   7.097   1.121  0.1727  0.0138 -0.0461
  115MOL    H4816236   0.022   7.039   0.909  0.1700  1.0337 -0.5784
  115MOL    H4916237   0.167   6.968   0.954  0.1427  0.7712 -1.9117
  115MOL    H5016238   0.073   7.013   1.200 -0.0096  1.1069  0.6014
  115MOL    C5116239   0.001   6.831   1.095 -0.0158 -0.0206  0.1308
  115MOL    C5216240   8.265   6.756   1.222 -0.0457 -0.3241  0.8057
  115MOL    C5316241   0.051   6.780   1.325 -0.1871  0.4514 -0.4824
  115MOL    N5416242   0.133   6.797   1.410 -0.3355 -0.4471 -0.7768
  115MOL    H5516243   8.254   6.811   1.006 -0.3573  0.4282  0.2545
  115MOL    H5616244   0.095   6.787   1.062  0.5168 -0.2277  1.8733
  115MOL    H5716245   8.274   6.651   1.194  0.4084 -0.2127  0.5412
  115MOL    C5816246   8.112   6.773   1.262  0.0822  0.1906  0.2715
  115MOL    C5916247   8.064   6.674   1.375  0.8206 -0.3911 -0.3651
  115MOL    C6016248   8.150   6.671   1.497  0.2145 -0.5597  0.3529
  115MOL    N6116249   8.206   6.682   1.596 -0.0932  0.3858  0.1314
  115MOL    H6216250   8.090   6.874   1.297  0.2399  0.1871  0.3815
  115MOL    H6316251   8.047   6.750   1.177 -0.4873  0.3731  0.6545
  115MOL    H6416252   8.060   6.580   1.318 -2.4999  0.3164 -1.3913
  115MOL    C6516253   7.921   6.698   1.423 -0.1176  0.0699 -0.2601
  115MOL    C6616254   7.871   6.596   1.528 -0.3657 -0.4576  0.2127
  115MOL    C6716255   7.742   6.636   1.590 -0.4962 -0.0470 -0.1642
  115MOL    N6816256   7.640   6.670   1.635 -0.1880 -0.1638 -0.2744
  115MOL    H6916257   7.910   6.800   1.462  0.8066 -0.0398  0.2815
  115MOL    H7016258   7.850   6.703   1.341 -1.3020 -1.5209  0.6382
  115MOL    H7116259   7.931   6.600   1.618  0.6904  0.3091 -0.5194
  115MOL    C7216260   7.868   6.447   1.480  0.5162 -0.5278 -0.3663
  115MOL    C7316261   7.758   6.416   1.373  0.0733  0.5963 -0.6254
  115MOL    C7416262   7.806   6.466   1.244 -0.0390 -0.6489 -0.2371
  115MOL    N7516263   7.848   6.502   1.140  0.4100 -0.3401  0.4521
  115MOL    H7616264   7.963   6.399   1.457  1.0585  0.2375  0.2615
  115MOL    H7716265   7.841   6.385   1.565 -1.5682 -0.5324 -1.0042
  115MOL    H7816266   7.663   6.461   1.401 -1.3238 -1.8051 -1.3933
  115MOL    C7916267   7.735   6.263   1.372  0.0461  0.3817  0.6648
  115MOL    C8016268   7.613   6.222   1.284 -0.4410 -1.2003 -0.5854
  115MOL    C8116269   7.637   6.107   1.196  0.2929  0.1843  0.0412
  115MOL    N8216270   7.660   6.021   1.119  0.5635 -0.2550 -0.5944
  115MOL    H8316271   7.830   6.215   1.348  0.9864  2.0356  0.9735
  115MOL    H8416272   7.716   6.231   1.474  0.9665 -0.7783  0.4798
  115MOL    H8516273   7.603   6.300   1.208  1.3870 -0.6406 -0.2893
  115MOL    C8616274   7.483   6.213   1.367 -0.5404 -0.6942  0.0782
  115MOL    C8716275   7.371   6.117   1.324 -0.8029  0.1669  0.0439
  115MOL    C8816276   7.264   6.127   1.426  0.2561 -0.4032 -0.2647
  115MOL    N8916277   7.180   6.144   1.506 -0.2942  0.1620 -0.8310
  115MOL    H9016278   7.510   6.186   1.469  3.0139  0.6802 -0.4470
  115MOL    H9116279   7.449   6.317   1.367  2.0312  0.2171  3.0158
  115MOL    H9216280   7.406   6.017   1.349  3.2768  1.4386 -0.1915
  115MOL    C9316281   7.321   6.131   1.180  0.6205  0.2000 -0.5537
  115MOL    C9416282   7.233   6.013   1.145  0.5396 -0.0135  0.6091
  115MOL    C9516283   7.168   6.044   1.021  0.0841  0.1313 -0.7237
  115MOL    N9616284   7.129   6.073   0.917 -0.6388 -0.2064 -0.3529
  115MOL    H9716285   7.267   6.225   1.177 -0.5959 -0.3984  1.7903
  115MOL    H9816286   7.399   6.139   1.104 -1.7534  1.3310 -2.9318
  115MOL    H9916287   7.147   6.009   1.213  0.9804  0.5171  1.2025
  115MOL   C10016288   7.304   5.880   1.132 -0.1575 -0.4263 -0.9132
  115MOL   C10116289   7.218   5.764   1.090 -0.4593  0.1286  0.4890
  115MOL   C10216290   7.088   5.777   1.156 -0.4159 -0.2210 -0.8592
  115MOL   N10316291   6.985   5.794   1.208  0.4203 -0.5463  0.3919
  115MOL   H10416292   7.400   5.882   1.080 -0.6858 -0.4916 -1.9084
  115MOL   H10516293   7.342   5.857   1.232  0.5699  0.6218 -0.9387
  115MOL   H10616294   7.258   5.677   1.142 -0.3697  1.2970  2.4309
  115MOL   C10716295   7.214   5.726   0.934 -0.0082 -0.4113  0.0996
  115MOL   C10816296   7.089   5.672   0.873  0.3250 -0.6934 -0.3993
  115MOL   C10916297   7.036   5.568   0.956 -0.2643  0.1424 -1.0398
  115MOL   N11016298   6.991   5.486   1.023  0.2489  0.3594  0.1221
  115MOL   H11116299   7.253   5.807   0.874  3.7648 -1.6200  0.7740
  115MOL   H11216300   7.298   5.658   0.922  1.2303  1.2007 -0.4092
  115MOL   H11316301   7.108   5.606   0.788  2.4192  0.1757 -0.6341
  115MOL   C11416302   6.975   5.775   0.833  0.3719 -0.3294 -0.6137
  115MOL   C11516303   6.860   5.710   0.759  0.0725 -0.5422  0.2082
  115MOL   C11616304   6.770   5.636   0.847  0.1645 -0.0889  0.7447
  115MOL   N11716305   6.701   5.585   0.921 -0.0335  0.4451 -1.0311
  115MOL   H11816306   6.931   5.824   0.920 -0.4427 -0.6577 -0.8415
  115MOL   H11916307   7.025   5.850   0.771 -1.2548 -0.4924 -2.1587
  115MOL   H12016308   6.889   5.630   0.692  1.6269 -0.8399  1.2125
  115MOL   C12116309   6.774   5.812   0.686  0.5290 -0.0695 -0.6964
  115MOL   C12216310   6.645   5.750   0.617  0.0711 -0.1447  0.2890
  115MOL   C12316311   6.525   5.818   0.674  0.5409  0.2190 -0.2002
  115MOL   N12416312   6.425   5.866   0.720  0.0620 -0.2493 -0.0469
  115MOL   H12516313   6.734   5.876   0.765  0.3404  1.2050 -1.7996
  115MOL   H12616314   6.817   5.875   0.608 -0.5008 -0.7683 -1.8396
  115MOL   H12716315   6.655   5.645   0.645 -1.9149 -0.0513  1.4892
  115MOL   C12816316   6.653   5.744   0.457 -0.1595 -0.3511 -0.2620
  115MOL   C12916317   6.521   5.698   0.383 -0.0452  0.2807  0.1939
  115MOL   C13016318   6.455   5.589   0.461 -0.3642 -0.2639 -0.3690
  115MOL   N13116319   6.402   5.504   0.524  0.8849 -0.1711  0.0093
  115MOL   H13216320   6.695   5.837   0.419  0.6954 -0.3202  0.7400
  115MOL   H13316321   6.732   5.672   0.437 -0.1933 -0.9074  1.4973
  115MOL   H13416322   6.548   5.656   0.286  0.1074  0.1580  0.2894
  115MOL   C13516323   6.416   5.811   0.355 -0.2358 -1.0902  0.2141
  115MOL   C13616324   6.307   5.766   0.261  0.1559  0.1103  0.2461
  115MOL   C13716325   6.355   5.687   0.142  0.1955 -0.2823 -0.3599
  115MOL   N13816326   6.391   5.619   0.057  0.0688 -0.1171  0.8927
  115MOL   H13916327   6.372   5.861   0.442 -0.0905 -1.8058  0.6964
  115MOL   H14016328   6.465   5.890   0.297 -1.3520  0.0838  0.8205
  115MOL   H14116329   6.260   5.854   0.216 -1.2586 -1.1822 -0.8875
  115MOL   H14216330   6.226   5.712   0.311  1.3225  1.8469  4.2034
  116MOL     C116331   0.062   2.733   5.715  0.3241 -0.6218  0.1698
  116MOL     C216332   8.293   2.864   5.690  0.2279  0.2543  0.0207
  116MOL     C316333   0.064   2.984   5.707  0.1969  0.0902  0.1537
  116MOL     N416334   0.129   3.077   5.721 -0.0164  0.1864 -0.6757
  116MOL     H516335   0.002   2.644   5.732  0.1187 -0.4690  0.2430
  116MOL     H616336   0.116   2.761   5.806 -1.2046 -0.0885  0.9222
  116MOL     H716337   8.212   2.856   5.762 -1.0279  2.1316 -1.1565
  116MOL     H816338   0.128   2.702   5.634  0.5499 -0.2532  0.2113
  116MOL     C916339   8.224   2.862   5.551  0.2529  0.4800  0.2636
  116MOL    C1016340   8.297   2.928   5.439  0.2890 -0.2003 -0.0796
  116MOL    C1116341   0.116   2.865   5.407 -0.2002 -0.2654 -0.5624
  116MOL    N1216342   0.216   2.812   5.379  0.5989  0.3472  0.4583
  116MOL    H1316343   8.187   2.761   5.531 -0.6941  0.5244  1.6891
  116MOL    H1416344   8.130   2.917   5.560 -0.0746  0.1230 -0.8651
  116MOL    H1516345   0.006   3.032   5.464  0.3881 -0.1069 -0.5379
  116MOL    C1616346   8.205   2.925   5.311 -0.6728  0.2355  0.1940
  116MOL    C1716347   8.264   3.003   5.195 -0.8371  0.0104 -0.8000
  116MOL    C1816348   8.236   2.940   5.065 -0.1634 -0.6751  0.1390
  116MOL    N1916349   8.223   2.883   4.968  0.4912  0.3019  0.0034
  116MOL    H2016350   8.200   2.822   5.277 -0.9510  0.2499  0.1897
  116MOL    H2116351   8.105   2.960   5.337 -0.9540 -0.4551  0.0499
  116MOL    H2216352   0.059   2.986   5.183 -0.8918  0.1333 -1.4739
  116MOL    C2316353   8.243   3.161   5.198  0.5961  0.6890  0.8931
  116MOL    C2416354   8.101   3.204   5.133 -0.3364  0.5068 -0.2612
  116MOL    C2516355   7.976   3.168   5.202 -0.9963  0.3535  0.5884
  116MOL    N2616356   7.875   3.136   5.256  0.4847 -0.2154 -0.5199
  116MOL    H2716357   8.275   3.210   5.290  3.3237  0.4627  0.1125
  116MOL    H2816358   0.015   3.189   5.136 -0.5877  1.2232 -0.5080
  116MOL    H2916359   8.109   3.159   5.034 -0.1697 -0.5186  0.2087
  116MOL    C3016360   8.106   3.363   5.109 -0.3039  0.1953  0.1109
  116MOL    C3116361   8.051   3.449   5.224  0.0511 -0.3289  0.0059
  116MOL    C3216362   8.133   3.445   5.345 -0.2057  0.2087 -0.2880
  116MOL    N3316363   8.202   3.447   5.444  0.0126 -0.0889  0.5690
  116MOL    H3416364   8.209   3.396   5.093  0.2937 -0.2521  2.6785
  116MOL    H3516365   8.054   3.389   5.017 -0.0653 -0.0524 -0.0953
  116MOL    H3616366   7.948   3.422   5.250  0.1450 -0.9736 -0.2792
  116MOL    C3716367   8.045   3.595   5.187  0.3382 -0.7942  0.5087
  116MOL    C3816368   7.912   3.639   5.122 -0.3237  0.3539 -0.8163
  116MOL    C3916369   7.864   3.770   5.180  0.2116 -0.1456 -0.2447
  116MOL    N4016370   7.826   3.871   5.217 -0.2441  0.1327  0.0277
  116MOL    H4116371   8.043   3.645   5.284  1.1713  0.8267 -0.2899
  116MOL    H4216372   8.142   3.633   5.154  0.4900 -3.7300 -2.6263
  116MOL    H4316373   7.839   3.566   5.157 -1.1627  1.5000 -0.1762
  116MOL    C4416374   7.917   3.654   4.969 -0.0702 -0.3439 -0.1896
  116MOL    C4516375   7.824   3.562   4.891 -0.0708  0.0166  0.0647
  116MOL    C4616376   7.685   3.549   4.957 -0.1692 -0.2818 -0.0916
  116MOL    N4716377   7.584   3.544   5.011  0.6355  0.3629  0.4615
  116MOL    H4816378   7.899   3.760   4.950 -2.0392 -0.7125 -0.4430
  116MOL    H4916379   8.020   3.638   4.937  0.4251  2.3920 -0.0977
  116MOL    H5016380   7.857   3.460   4.911 -1.3300  0.1343  3.0993
  116MOL    C5116381   7.826   3.582   4.736  0.1807 -0.0279 -0.6146
  116MOL    C5216382   7.799   3.451   4.662 -0.1385 -0.2500 -0.2140
  116MOL    C5316383   7.661   3.402   4.689  0.3772  0.1111  0.7275
  116MOL    N5416384   7.551   3.365   4.709 -1.1780  0.0367 -0.7035
  116MOL    H5516385   7.763   3.661   4.696 -0.2846 -0.6546 -1.1407
  116MOL    H5616386   7.930   3.604   4.713  0.6849  0.0708  1.6466
  116MOL    H5716387   7.859   3.365   4.692  1.7556  0.8754 -0.6747
  116MOL    C5816388   7.829   3.469   4.512  0.0272 -0.6971 -0.1593
  116MOL    C5916389   7.816   3.358   4.416 -0.0463 -0.0538 -0.1162
  116MOL    C6016390   7.867   3.234   4.483 -0.2043 -0.0676 -0.2372
  116MOL    N6116391   7.903   3.139   4.533  0.4447  0.0380  0.0957
  116MOL    H6216392   7.773   3.552   4.469  2.6137  1.0356 -0.2879
  116MOL    H6316393   7.935   3.495   4.517 -0.0156 -0.7581  1.2044
  116MOL    H6416394   7.884   3.371   4.332  0.3696  0.3969  0.2881
  116MOL    C6516395   7.668   3.341   4.371 -0.0401  0.1965  0.4187
  116MOL    C6616396   7.652   3.236   4.259 -0.0285 -0.1814  0.2597
  116MOL    C6716397   7.773   3.199   4.177  0.4647  0.1204  0.0017
  116MOL    N6816398   7.863   3.171   4.109  0.4410 -0.0143 -0.7607
  116MOL    H6916399   7.591   3.316   4.445 -0.1672  0.6734  0.4497
  116MOL    H7016400   7.637   3.440   4.338  0.0955  0.5966  1.4528
  116MOL    H7116401   7.596   3.296   4.187 -0.9589 -0.9921  0.3037
  116MOL    C7216402   7.566   3.106   4.303 -0.5847 -0.4725  0.6047
  116MOL    C7316403   7.515   3.017   4.187  0.1042 -0.6750  0.0999
  116MOL    C7416404   7.461   2.889   4.248 -0.3246 -0.6628  0.0641
  116MOL    N7516405   7.427   2.785   4.287  0.2917  0.3955  0.4010
  116MOL    H7616406   7.624   3.052   4.378 -1.2107  0.4467  1.7847
  116MOL    H7716407   7.474   3.131   4.357 -1.4644 -1.2125 -0.5343
  116MOL    H7816408   7.607   2.977   4.145  0.4338  1.3989 -1.1949
  116MOL    C7916409   7.420   3.092   4.095 -0.7653  0.5156 -0.4448
  116MOL    C8016410   7.386   3.016   3.954 -0.1164  0.2667  0.0926
  116MOL    C8116411   7.322   2.887   3.965 -0.7055 -0.4046 -0.1835
  116MOL    N8216412   7.276   2.780   3.977 -0.9138  0.2712  0.7270
  116MOL    H8316413   7.335   3.125   4.155 -0.0639  0.4431  0.6067
  116MOL    H8416414   7.470   3.186   4.071  1.0942  0.1204  1.6529
  116MOL    H8516415   7.483   2.992   3.912 -1.2538 -1.0159 -1.8736
  116MOL    C8616416   7.311   3.108   3.852 -0.7231 -0.1208  0.7345
  116MOL    C8716417   7.159   3.112   3.861 -0.7587 -0.2990 -0.4122
  116MOL    C8816418   7.123   3.128   4.006 -0.0202  0.4596  0.0333
  116MOL    N8916419   7.092   3.141   4.117  0.0374  0.7429 -0.0059
  116MOL    H9016420   7.357   3.207   3.851  0.8197 -0.8379  0.3976
  116MOL    H9116421   7.339   3.065   3.756 -2.9239  1.4329 -0.6700
  116MOL    H9216422   7.122   3.013   3.836 -0.5376 -0.8070  1.2309
  116MOL    C9316423   7.087   3.211   3.771 -0.1756  0.4667 -0.8038
  116MOL    C9416424   6.944   3.244   3.797  0.3044  0.0708  0.8601
  116MOL    C9516425   6.905   3.338   3.692 -0.0832  0.6501 -0.8279
  116MOL    N9616426   6.870   3.416   3.616  0.3735 -0.1596  0.2515
  116MOL    H9716427   7.146   3.303   3.770  1.5457 -0.6158 -0.3916
  116MOL    H9816428   7.088   3.166   3.671  0.9559  2.5032 -1.7406
  116MOL    H9916429   6.940   3.291   3.895 -0.5748  0.3930  0.6720
  116MOL   C10016430   6.861   3.117   3.801  0.0400  0.0905 -0.8927
  116MOL   C10116431   6.710   3.132   3.770 -0.3307  0.6073  0.5338
  116MOL   C10216432   6.651   3.245   3.840 -0.2133 -0.8567  0.3929
  116MOL   N10316433   6.601   3.334   3.899 -0.2838 -0.4832 -0.4466
  116MOL   H10416434   6.904   3.058   3.719  1.3030 -0.1507 -0.0650
  116MOL   H10516435   6.895   3.069   3.892 -2.2252  0.0482 -0.0435
  116MOL   H10616436   6.667   3.041   3.812  0.7026 -0.1434  0.0042
  116MOL   C10716437   6.681   3.123   3.619  0.0984  0.5959 -0.3894
  116MOL   C10816438   6.714   3.008   3.531  0.2350  0.3293  0.2407
  116MOL   C10916439   6.702   2.884   3.605  0.1735 -0.7445 -0.0214
  116MOL   N11016440   6.694   2.787   3.667  0.3896  0.3337  0.2912
  116MOL   H11116441   6.573   3.123   3.611  0.0434 -0.0569  0.3875
  116MOL   H11216442   6.715   3.211   3.563  1.9961  1.6564  2.3066
  116MOL   H11316443   6.817   3.017   3.496 -0.1137 -1.4070 -1.3147
  116MOL   C11416444   6.633   2.998   3.398  0.3133  0.3916 -0.0401
  116MOL   C11516445   6.632   3.120   3.304 -0.3779  0.2100 -0.1817
  116MOL   C11616446   6.770   3.157   3.267  0.6166  0.4730 -0.4731
  116MOL   N11716447   6.877   3.184   3.239  0.1739  0.4767 -0.2840
  116MOL   H11816448   6.657   2.910   3.338 -1.1012 -0.0623  0.0262
  116MOL   H11916449   6.536   2.973   3.441  0.7400  0.7015  1.1196
  116MOL   H12016450   6.584   3.200   3.360  2.2259  1.8765 -0.2430
  116MOL   C12116451   6.545   3.086   3.177 -0.4975  0.1339 -0.2142
  116MOL   C12216452   6.507   3.206   3.094 -0.1396 -1.0794  0.3001
  116MOL   C12316453   6.617   3.251   3.016  0.4212 -0.0540 -0.4205
  116MOL   N12416454   6.706   3.283   2.954 -0.0733  0.7471  0.0498
  116MOL   H12516455   6.585   3.004   3.117  0.4348  0.0343  0.5328
  116MOL   H12616456   6.456   3.048   3.225  0.3544  1.3469  2.4252
  116MOL   H12716457   6.465   3.273   3.169 -1.0518 -1.2122 -0.0888
  116MOL   C12816458   6.401   3.158   2.985  0.4465  0.4205  0.3258
  116MOL   C12916459   6.326   3.271   2.906 -0.7898  0.1735  0.2666
  116MOL   C13016460   6.212   3.329   2.981  0.5106 -0.6006 -0.3274
  116MOL   N13116461   6.112   3.373   3.029  0.2572 -0.4851  0.1413
  116MOL   H13216462   6.454   3.088   2.920  1.4635 -0.4857  2.1102
  116MOL   H13316463   6.328   3.095   3.037 -1.6404  0.9978 -1.8046
  116MOL   H13416464   6.271   3.221   2.827 -0.4227  0.1189  0.0479
  116MOL   C13516465   6.415   3.369   2.826  0.3928  0.0630  0.4226
  116MOL   C13616466   6.334   3.462   2.742 -0.6906  0.2928  0.0799
  116MOL   C13716467   6.220   3.406   2.666  0.0507 -0.0523  0.5050
  116MOL   N13816468   6.131   3.357   2.612 -0.3629  0.0588  0.1217
  116MOL   H13916469   6.467   3.426   2.903 -0.3562 -0.5987  1.4248
  116MOL   H14016470   6.487   3.312   2.767 -0.1183 -0.3072  0.1503
  116MOL   H14116471   6.402   3.508   2.669  0.0534 -0.7344  0.1106
  116MOL   H14216472   6.280   3.534   2.803 -4.8056 -0.0789 -2.9208
  117MOL     C116473   3.489   3.892   2.061  0.2696 -1.1142  0.0585
  117MOL     C216474   3.571   3.774   2.004 -0.6114 -0.3243  0.3846
  117MOL     C316475   3.614   3.676   2.101 -0.2296  0.5713  0.7627
  117MOL     N416476   3.640   3.594   2.177 -0.2166  0.3854 -0.0163
  117MOL     H516477   3.486   3.980   1.997 -0.4507 -0.4803  0.9531
  117MOL     H616478   3.528   3.922   2.158  0.1094  0.0518 -0.2370
  117MOL     H716479   3.666   3.819   1.977 -1.4515  0.1585 -1.9608
  117MOL     H816480   3.388   3.853   2.073 -0.8142  1.4747 -0.4175
  117MOL     C916481   3.521   3.718   1.870 -0.1456  0.4818  0.5125
  117MOL    C1016482   3.433   3.599   1.886 -0.4483  0.6269  0.4990
  117MOL    C1116483   3.330   3.598   1.990  0.6186 -0.8196  0.0486
  117MOL    N1216484   3.245   3.592   2.072  0.0999  0.6782 -0.0073
  117MOL    H1316485   3.468   3.793   1.811 -0.7014 -1.1861 -1.1648
  117MOL    H1416486   3.604   3.682   1.809 -1.0639  1.9324 -1.6808
  117MOL    H1516487   3.500   3.521   1.921  2.0600  3.0391  1.2476
  117MOL    C1616488   3.389   3.532   1.755  0.0262  0.9079  0.3919
  117MOL    C1716489   3.263   3.587   1.694  0.3589  0.7799 -0.4562
  117MOL    C1816490   3.295   3.704   1.612  0.0985 -0.2682 -0.0664
  117MOL    N1916491   3.314   3.803   1.554 -0.3450 -0.9207  0.0088
  117MOL    H2016492   3.473   3.514   1.687  1.8598  0.0964  2.7920
  117MOL    H2116493   3.360   3.431   1.783  3.2196 -0.1237  0.2472
  117MOL    H2216494   3.197   3.607   1.779 -0.3723 -1.0410 -0.5652
  117MOL    C2316495   3.183   3.477   1.616  0.7458  0.5110 -0.9190
  117MOL    C2416496   3.046   3.511   1.544 -0.4120  0.1418 -0.0965
  117MOL    C2516497   3.010   3.416   1.433 -0.2502  0.1464  0.2169
  117MOL    N2616498   2.980   3.345   1.350 -0.7217  0.3605 -0.0509
  117MOL    H2716499   3.249   3.428   1.545  0.7448 -0.4492 -0.2674
  117MOL    H2816500   3.172   3.388   1.678  1.0178  1.6375  0.7838
  117MOL    H2916501   3.074   3.602   1.492  1.4846 -0.1770  0.3255
  117MOL    C3016502   2.940   3.562   1.647 -0.3413 -0.1409  0.8433
  117MOL    C3116503   2.820   3.648   1.595 -0.0068 -0.3447  0.3148
  117MOL    C3216504   2.731   3.572   1.502 -0.5714  0.4236  0.3124
  117MOL    N3316505   2.663   3.507   1.436  0.1215  0.6386 -0.5111
  117MOL    H3416506   2.908   3.475   1.705 -2.3275 -1.4254 -2.0559
  117MOL    H3516507   2.984   3.630   1.720 -2.8859  1.8727  0.5744
  117MOL    H3616508   2.854   3.734   1.539  1.3089  0.3655  2.1750
  117MOL    C3716509   2.737   3.689   1.725  0.0280 -0.1984  0.6643
  117MOL    C3816510   2.605   3.770   1.704  0.1242 -0.2014  0.2877
  117MOL    C3916511   2.618   3.858   1.589 -0.4796  0.5520 -0.0352
  117MOL    N4016512   2.621   3.932   1.496 -0.3593 -0.1161  0.0647
  117MOL    H4116513   2.711   3.598   1.780 -0.9934 -0.2763  0.0657
  117MOL    H4216514   2.803   3.743   1.793  1.3080  0.3005 -0.9302
  117MOL    H4316515   2.585   3.827   1.794  1.3508  0.2005  0.3117
  117MOL    C4416516   2.481   3.683   1.687  0.2029 -0.8789  0.4910
  117MOL    C4516517   2.367   3.758   1.754  0.0348 -0.4214  0.3673
  117MOL    C4616518   2.239   3.724   1.692 -0.3782  0.1049 -0.0203
  117MOL    N4716519   2.136   3.701   1.643 -0.0765  0.1375 -0.6059
  117MOL    H4816520   2.457   3.671   1.581  0.2828 -2.2009  0.6215
  117MOL    H4916521   2.494   3.584   1.729 -0.2017 -1.9090 -1.7685
  117MOL    H5016522   2.379   3.865   1.733 -2.6099 -0.4319 -1.6088
  117MOL    C5116523   2.349   3.733   1.910 -0.9262 -0.7501  0.4037
  117MOL    C5216524   2.305   3.865   1.992  0.0479 -0.0427 -0.2229
  117MOL    C5316525   2.186   3.927   1.928  0.0102  0.5802  0.1799
  117MOL    N5416526   2.097   3.979   1.869 -0.3112  0.6278 -0.5404
  117MOL    H5516527   2.264   3.668   1.928 -1.7537  0.4606  0.9770
  117MOL    H5616528   2.429   3.679   1.961  0.0605 -0.4903 -0.8474
  117MOL    H5716529   2.388   3.935   1.976  1.6133 -2.3490 -2.5831
  117MOL    C5816530   2.298   3.848   2.150  0.5065  0.5100  0.0396
  117MOL    C5916531   2.153   3.824   2.205  0.1943  0.0443 -0.3543
  117MOL    C6016532   2.178   3.748   2.329  0.3832  0.2416 -0.6790
  117MOL    N6116533   2.198   3.694   2.432 -0.1102  0.6110  0.3170
  117MOL    H6216534   2.359   3.759   2.164 -0.5260  0.0133  1.4849
  117MOL    H6316535   2.352   3.924   2.206 -0.8801  1.0452  0.6713
  117MOL    H6416536   2.101   3.751   2.143 -2.1189 -1.4938  3.2428
  117MOL    C6516537   2.070   3.950   2.221 -0.6810  0.6862 -0.3627
  117MOL    C6616538   1.927   3.933   2.275  0.1319 -0.2350  0.3067
  117MOL    C6716539   1.850   3.853   2.183 -0.1285  0.0949  0.3596
  117MOL    N6816540   1.798   3.779   2.106 -0.2901  0.1536  0.4268
  117MOL    H6916541   2.127   4.011   2.291 -1.1164 -0.2755  0.8673
  117MOL    H7016542   2.075   4.018   2.136 -0.9288 -0.0973 -1.0094
  117MOL    H7116543   1.885   4.034   2.269 -1.6856 -0.9961 -0.5157
  117MOL    C7216544   1.905   3.881   2.420 -0.4003 -0.1459  0.3820
  117MOL    C7316545   1.977   3.954   2.535  0.2137 -0.0386 -0.2386
  117MOL    C7416546   1.998   4.100   2.513 -0.7219 -0.1776  0.1694
  117MOL    N7516547   2.020   4.215   2.495  0.4059  0.1731  0.3262
  117MOL    H7616548   1.797   3.890   2.433 -0.7891  0.3338 -2.6620
  117MOL    H7716549   1.931   3.775   2.427  0.4194  0.1201  1.4767
  117MOL    H7816550   2.076   3.909   2.529  0.4308  0.2792  0.7511
  117MOL    C7916551   1.913   3.926   2.676 -0.2469  0.0409  0.0342
  117MOL    C8016552   1.774   3.992   2.703  0.0551  0.4759  0.3944
  117MOL    C8116553   1.661   3.906   2.681 -0.7776 -0.1099 -0.2920
  117MOL    N8216554   1.575   3.833   2.664  0.2088  0.1187 -0.0274
  117MOL    H8316555   1.918   3.822   2.708  1.7700  0.9231  2.7392
  117MOL    H8416556   1.988   3.967   2.743  0.6633  0.5154 -1.2498
  117MOL    H8516557   1.763   4.069   2.627  0.3619 -0.5660 -0.7187
  117MOL    C8616558   1.749   4.044   2.845 -0.1156  0.0736 -0.3036
  117MOL    C8716559   1.825   4.169   2.875  0.7240  0.0887  0.0695
  117MOL    C8816560   1.783   4.280   2.793  0.0933  0.1373 -0.9185
  117MOL    N8916561   1.746   4.371   2.733  0.1542  0.0437  0.1490
  117MOL    H9016562   1.642   4.057   2.860 -0.1043 -0.8968  0.6519
  117MOL    H9116563   1.787   3.963   2.906  1.6110 -1.0124 -2.7363
  117MOL    H9216564   1.928   4.152   2.844  1.1952 -0.3369  1.8256
  117MOL    C9316565   1.820   4.206   3.023 -0.5576 -0.7754 -0.5002
  117MOL    C9416566   1.886   4.096   3.114  0.5972  0.2129 -0.4641
  117MOL    C9516567   2.001   4.030   3.048 -0.1774  0.4552 -0.4106
  117MOL    N9616568   2.093   3.972   2.997  0.5832  0.0190 -0.5351
  117MOL    H9716569   1.856   4.309   3.029  0.3151 -0.9866 -1.8348
  117MOL    H9816570   1.716   4.213   3.054 -0.4916  1.7196 -0.6702
  117MOL    H9916571   1.817   4.012   3.125 -2.2985  2.2526 -2.4100
  117MOL   C10016572   1.931   4.151   3.246  0.0492 -0.2946  0.2737
  117MOL   C10116573   1.819   4.177   3.342 -0.3258 -0.2711  0.0704
  117MOL   C10216574   1.758   4.062   3.411  0.3453 -0.0544 -0.0982
  117MOL   N10316575   1.715   3.975   3.467 -0.1802  0.6825  0.0938
  117MOL   H10416576   1.986   4.072   3.297  1.2815  0.3639 -0.0162
  117MOL   H10516577   1.990   4.240   3.225  1.3144 -1.0329  0.6858
  117MOL   H10616578   1.740   4.221   3.280  0.5000  1.4036  0.1923
  117MOL   C10716579   1.840   4.294   3.438  0.4623 -0.8693  0.3679
  117MOL   C10816580   1.949   4.276   3.551 -0.3641  0.3904 -0.1965
  117MOL   C10916581   2.085   4.284   3.491  0.5727  0.0909  0.2391
  117MOL   N11016582   2.187   4.299   3.441  0.0946 -0.1291  0.0509
  117MOL   H11116583   1.868   4.379   3.376 -2.1645  2.0689  3.0358
  117MOL   H11216584   1.748   4.328   3.488  0.7012  1.1609 -0.5247
  117MOL   H11316585   1.954   4.177   3.597 -0.5405  0.9182  0.9604
  117MOL   C11416586   1.932   4.379   3.668  0.3617  0.0005 -0.0199
  117MOL   C11516587   2.011   4.350   3.799  0.2044  0.5560 -0.8947
  117MOL   C11616588   2.048   4.475   3.867 -0.3289 -0.4422 -0.4050
  117MOL   N11716589   2.077   4.574   3.922 -0.7030 -0.5385  0.3395
  117MOL   H11816590   1.955   4.478   3.628 -0.1663  0.0728 -0.1454
  117MOL   H11916591   1.824   4.385   3.685 -0.0370  0.0498 -2.3812
  117MOL   H12016592   2.108   4.306   3.775  0.9673  0.8357  1.5305
  117MOL   C12116593   1.941   4.247   3.892 -0.9254  0.3687 -0.3561
  117MOL   C12216594   2.024   4.119   3.920 -0.0853 -0.1288  0.2482
  117MOL   C12316595   2.096   4.067   3.800 -0.1804 -0.4924  0.1509
  117MOL   N12416596   2.156   4.029   3.708 -0.0552  0.3735 -0.5664
  117MOL   H12516597   1.897   4.297   3.979  0.7650  0.7834  0.2828
  117MOL   H12616598   1.856   4.216   3.832  1.2221 -0.5844 -2.9807
  117MOL   H12716599   1.955   4.039   3.944  1.6490 -1.8557 -0.3347
  117MOL   C12816600   2.122   4.127   4.042  0.7023 -0.0328  0.2349
  117MOL   C12916601   2.107   4.013   4.139 -0.2198 -0.3098  0.0231
  117MOL   C13016602   2.150   3.890   4.080  0.2458  0.5368  0.1460
  117MOL   N13116603   2.183   3.795   4.029  0.2586  0.0878 -0.4408
  117MOL   H13216604   2.225   4.138   4.008  0.1663 -0.1509 -1.4868
  117MOL   H13316605   2.101   4.222   4.091  1.4417  1.2234 -1.8096
  117MOL   H13416606   2.003   4.009   4.170 -0.6736  2.2190 -1.0926
  117MOL   C13516607   2.189   4.041   4.267  0.1490  0.1660 -0.0469
  117MOL   C13616608   2.232   3.925   4.356 -0.5303 -0.2218  0.1577
  117MOL   C13716609   2.340   3.967   4.441  0.1067 -0.9820 -0.0295
  117MOL   N13816610   2.422   4.012   4.514  0.2719 -0.0850  0.6243
  117MOL   H13916611   2.282   4.092   4.242  0.4903 -0.2799  0.3158
  117MOL   H14016612   2.136   4.117   4.326  1.0965 -0.2396  1.3433
  117MOL   H14116613   2.278   3.846   4.296  1.6744 -0.2850  1.9017
  117MOL   H14216614   2.149   3.889   4.417 -0.0923 -0.5483  0.5521
  118MOL     C116615   4.946   3.799   5.835  0.1233 -0.6694 -0.0478
  118MOL     C216616   4.839   3.692   5.815  0.2588  0.6362 -0.1063
  118MOL     C316617   4.741   3.691   5.923 -0.0465 -0.3526 -0.8037
  118MOL     N416618   4.660   3.696   6.009 -0.3622  0.3732  0.3498
  118MOL     H516619   4.901   3.896   5.857 -1.7197 -1.3839 -0.6450
  118MOL     H616620   5.005   3.808   5.743 -0.4343 -1.3615 -0.4785
  118MOL     H716621   4.888   3.595   5.821 -0.1336  0.2439 -2.5811
  118MOL     H816622   5.018   3.784   5.916  0.6520  1.4552 -0.0881
  118MOL     C916623   4.770   3.690   5.676 -0.1587 -0.5586 -0.5857
  118MOL    C1016624   4.673   3.575   5.645 -0.6445 -0.1121  0.0725
  118MOL    C1116625   4.593   3.616   5.527 -0.4153  0.6759 -0.4063
  118MOL    N1216626   4.534   3.650   5.436  0.1085 -0.3305 -0.0918
  118MOL    H1316627   4.716   3.785   5.677 -1.1400 -1.1219  0.6113
  118MOL    H1416628   4.838   3.703   5.592 -0.5561  0.7072 -0.7330
  118MOL    H1516629   4.609   3.565   5.733 -0.3845  0.9421  0.3909
  118MOL    C1616630   4.741   3.443   5.633  0.1967  0.9093 -0.2523
  118MOL    C1716631   4.847   3.444   5.521 -0.3203  0.2574  0.1384
  118MOL    C1816632   4.976   3.496   5.564 -0.2653  0.1868  0.2301
  118MOL    N1916633   5.074   3.544   5.600  0.4607 -0.3939  0.2460
  118MOL    H2016634   4.793   3.406   5.721  1.3044  0.0193 -1.2545
  118MOL    H2116635   4.657   3.377   5.609 -0.0940  1.9073 -2.0999
  118MOL    H2216636   4.813   3.506   5.438 -0.9796  1.9612  1.6579
  118MOL    C2316637   4.865   3.298   5.469 -0.5279  0.3386 -0.4034
  118MOL    C2416638   4.964   3.263   5.357 -0.0847 -0.4941 -0.1635
  118MOL    C2516639   4.939   3.342   5.233  0.5340 -0.5931  0.0204
  118MOL    N2616640   4.917   3.408   5.141 -0.3425 -0.1137 -0.1690
  118MOL    H2716641   4.876   3.242   5.562  2.7160  0.7315 -0.4924
  118MOL    H2816642   4.771   3.259   5.429  0.1707 -0.1037 -1.6605
  118MOL    H2916643   4.945   3.166   5.313  0.4620 -1.2029  1.1378
  118MOL    C3016644   5.114   3.266   5.402  0.9504 -0.1697  0.2674
  118MOL    C3116645   5.157   3.174   5.515  0.4040  0.1157 -0.6417
  118MOL    C3216646   5.100   3.040   5.501  0.1342 -0.4590  0.0492
  118MOL    N3316647   5.050   2.935   5.492 -0.3395  0.0846  0.3858
  118MOL    H3416648   5.172   3.233   5.316 -0.2309  0.6355 -0.8574
  118MOL    H3516649   5.148   3.365   5.433 -1.4178  1.2379 -1.3873
  118MOL    H3616650   5.131   3.230   5.605 -1.0499  0.1144 -1.0499
  118MOL    C3716651   5.310   3.159   5.528 -0.5423 -0.2070  0.0294
  118MOL    C3816652   5.356   3.091   5.661  0.1665 -0.2509  0.0802
  118MOL    C3916653   5.492   3.042   5.655  0.8344  0.6233 -1.3990
  118MOL    N4016654   5.601   3.002   5.651  0.0902 -0.4090 -0.1345
  118MOL    H4116655   5.350   3.100   5.445 -0.9902 -0.7734  0.2087
  118MOL    H4216656   5.354   3.258   5.519 -0.0525 -0.5565 -1.6735
  118MOL    H4316657   5.296   3.002   5.676 -2.1855  1.7180  3.0566
  118MOL    C4416658   5.342   3.188   5.782  0.1741 -0.4062  0.5811
  118MOL    C4516659   5.387   3.143   5.925 -0.4340  0.0721 -0.3569
  118MOL    C4616660   5.366   3.257   6.017  0.1921  0.0433 -0.1324
  118MOL    N4716661   5.346   3.345   6.091 -0.0015 -0.6694  0.2012
  118MOL    H4816662   5.394   3.278   5.751  0.3794 -0.4383  0.8271
  118MOL    H4916663   5.237   3.217   5.788  0.0159 -0.1793 -2.4713
  118MOL    H5016664   5.496   3.140   5.913 -0.4096 -0.6448  0.0351
  118MOL    C5116665   5.335   3.007   5.973 -0.3509 -0.0676 -0.3722
  118MOL    C5216666   5.391   2.952   6.107 -0.9128 -0.3868  0.6102
  118MOL    C5316667   5.533   2.920   6.074  0.0454 -0.5759 -0.2558
  118MOL    N5416668   5.643   2.896   6.044 -0.3978 -0.5685 -0.1268
  118MOL    H5516669   5.226   3.014   5.973 -0.3900 -0.6683 -0.3013
  118MOL    H5616670   5.354   2.935   5.894 -0.1592 -0.4524  0.0237
  118MOL    H5716671   5.340   2.858   6.129  1.4830 -2.5740 -2.6258
  118MOL    C5816672   5.389   3.055   6.224  0.3033  0.4259  0.0547
  118MOL    C5916673   5.380   2.985   6.367  0.3072  0.0073 -0.8029
  118MOL    C6016674   5.469   2.863   6.384 -0.1757 -0.6031 -0.4843
  118MOL    N6116675   5.539   2.771   6.400  0.0238 -0.3548  0.2440
  118MOL    H6216676   5.484   3.108   6.213 -0.5352  1.3768 -3.4201
  118MOL    H6316677   5.300   3.118   6.218 -0.8404 -1.3272 -2.0035
  118MOL    H6416678   5.281   2.943   6.383 -0.5058  1.4687 -1.9105
  118MOL    C6516679   5.411   3.083   6.478  0.2658 -0.2016 -0.5780
  118MOL    C6616680   5.325   3.055   6.606 -0.2181  0.1936 -0.8109
  118MOL    C6716681   5.340   2.917   6.659 -0.0712 -0.0107 -0.0563
  118MOL    N6816682   5.348   2.805   6.696  0.0340  0.4199  0.5386
  118MOL    H6916683   5.518   3.078   6.501  0.0463  0.5811  0.6792
  118MOL    H7016684   5.387   3.182   6.440  2.1517  0.2895 -0.5725
  118MOL    H7116685   5.222   3.063   6.570 -1.4466  0.6326  2.6169
  118MOL    C7216686   5.337   3.161   6.718  0.7335 -0.1746 -0.3608
  118MOL    C7316687   5.258   3.134   6.841  0.0976 -1.1494  0.0065
  118MOL    C7416688   5.294   3.237   6.941  0.7860  0.2097  0.1017
  118MOL    N7516689   5.320   3.323   7.012  0.0469 -0.0430 -0.3580
  118MOL    H7616690   5.443   3.172   6.740  0.6308 -0.8736  0.5119
  118MOL    H7716691   5.296   3.253   6.676  0.4346 -0.5307 -0.8644
  118MOL    H7816692   5.296   3.040   6.881  2.3941 -2.5445 -5.0186
  118MOL    C7916693   5.108   3.133   6.810  0.2272 -0.2816 -0.8675
  118MOL    C8016694   5.010   3.068   6.909 -0.8085  0.3527 -0.2992
  118MOL    C8116695   5.012   3.146   7.037 -0.4991  0.4634  0.5915
  118MOL    N8216696   5.014   3.208   7.135 -0.0695 -0.5821  0.1528
  118MOL    H8316697   5.080   3.237   6.791 -0.2027 -0.3982 -0.8698
  118MOL    H8416698   5.086   3.081   6.717 -1.0397  0.2490 -0.8758
  118MOL    H8516699   5.052   2.974   6.946  0.8245  0.8958 -0.7032
  118MOL    C8616700   4.868   3.047   6.861  0.5608  0.5032  0.1529
  118MOL    C8716701   4.779   2.965   6.959  1.5436 -0.4022 -0.8480
  118MOL    C8816702   4.737   3.046   7.076  0.6039 -0.4805 -0.4106
  118MOL    N8916703   4.711   3.116   7.164 -0.5471  0.0882 -0.4748
  118MOL    H9016704   4.825   3.147   6.863  1.8664  1.0599  2.0393
  118MOL    H9116705   4.852   3.011   6.760  2.0441  1.7578 -0.5447
  118MOL    H9216706   4.822   2.871   6.994  1.6041 -0.0418  0.0623
  118MOL    C9316707   4.653   2.910   6.890 -0.7859 -0.0207 -0.1710
  118MOL    C9416708   4.543   3.020   6.861 -0.3496  0.5102 -0.1002
  118MOL    C9516709   4.583   3.137   6.776  0.4459 -0.8134  0.3653
  118MOL    N9616710   4.608   3.232   6.712  0.3616  0.2251  0.0126
  118MOL    H9716711   4.676   2.879   6.788  1.2652  2.4681 -0.5375
  118MOL    H9816712   4.600   2.831   6.943  2.4347 -1.4036  1.1099
  118MOL    H9916713   4.527   3.063   6.959 -1.5728  0.6171 -0.3366
  118MOL   C10016714   4.408   2.942   6.829  0.0410  0.4480  0.3909
  118MOL   C10116715   4.290   3.038   6.819  0.3291  0.4352  0.5445
  118MOL   C10216716   4.287   3.134   6.708 -0.5695  0.3868 -0.0336
  118MOL   N10316717   4.294   3.216   6.625  0.0445  0.2780  0.8423
  118MOL   H10416718   4.420   2.881   6.739 -0.9426 -0.3087  0.7758
  118MOL   H10516719   4.394   2.865   6.905  2.2553 -0.0060  0.3968
  118MOL   H10616720   4.299   3.106   6.904 -1.1974  1.0108  0.2658
  118MOL   C10716721   4.148   2.976   6.842  0.8311 -0.5483 -0.2811
  118MOL   C10816722   4.073   2.934   6.710 -0.1572 -0.5692 -0.0774
  118MOL   C10916723   4.158   2.866   6.614  0.3923  0.9921  0.4677
  118MOL   N11016724   4.227   2.816   6.536  0.6774  0.6945  0.0501
  118MOL   H11116725   4.169   2.890   6.906 -2.2704  0.2042  1.8315
  118MOL   H11216726   4.087   3.049   6.894 -1.1132 -2.5717  0.3742
  118MOL   H11316727   4.038   3.027   6.664  0.6409 -0.7401 -1.0302
  118MOL   C11416728   3.961   2.830   6.743 -0.3825  0.7654 -0.0497
  118MOL   C11516729   3.861   2.788   6.630 -0.1347 -0.5427  0.4652
  118MOL   C11616730   3.816   2.903   6.554  0.3659  0.1498 -0.2836
  118MOL   N11716731   3.776   2.999   6.503 -0.8415 -0.1376 -0.7571
  118MOL   H11816732   4.003   2.748   6.802 -0.9757 -0.7712 -1.7384
  118MOL   H11916733   3.898   2.887   6.811 -0.4008  1.4547 -0.6370
  118MOL   H12016734   3.768   2.760   6.679 -0.8150 -0.4041 -0.7407
  118MOL   C12116735   3.911   2.666   6.546 -0.2640 -0.0654  0.7888
  118MOL   C12216736   3.799   2.591   6.483  0.5421 -0.7081 -0.4309
  118MOL   C12316737   3.731   2.676   6.388  0.3786 -0.7864 -0.0249
  118MOL   N12416738   3.668   2.738   6.310 -0.4074 -0.6590  0.2980
  118MOL   H12516739   3.982   2.698   6.469 -1.3843  2.0805  0.5899
  118MOL   H12616740   3.974   2.595   6.599  2.0850  0.5985 -1.0036
  118MOL   H12716741   3.731   2.578   6.567 -0.2731  0.8758 -0.8196
  118MOL   C12816742   3.844   2.457   6.425  0.7844  0.1136  0.0848
  118MOL   C12916743   3.734   2.372   6.357  0.6177 -0.0461  0.4818
  118MOL   C13016744   3.787   2.244   6.313 -0.2642 -0.0442  0.1187
  118MOL   N13116745   3.834   2.144   6.272 -0.1123 -0.6258  0.4418
  118MOL   H13216746   3.925   2.476   6.354 -0.8660  1.6608 -1.4440
  118MOL   H13316747   3.892   2.395   6.501  0.9915 -1.0218 -0.9475
  118MOL   H13416748   3.696   2.428   6.272  2.8170  0.5403 -0.1407
  118MOL   C13516749   3.615   2.355   6.452 -0.0205  0.4265 -0.3779
  118MOL   C13616750   3.643   2.270   6.578 -0.2497  0.1431 -0.2881
  118MOL   C13716751   3.529   2.270   6.667  0.0295 -0.1471  0.0737
  118MOL   N13816752   3.434   2.266   6.731  0.8164  0.3584 -0.5957
  118MOL   H13916753   3.574   2.450   6.487 -1.1380 -0.4585  0.7675
  118MOL   H14016754   3.534   2.308   6.395  0.3383  1.3615 -1.6686
  118MOL   H14116755   3.726   2.304   6.639  1.5438 -2.6013 -1.0864
  118MOL   H14216756   3.670   2.168   6.550  0.7476  0.7178 -1.4403
  119MOL     C116757   0.011   2.861   1.304 -0.0986 -0.1700  0.7482
  119MOL     C216758   8.298   3.005   1.351  0.0018 -0.0351  1.2312
  119MOL     C316759   8.212   3.014   1.473 -0.3422 -0.3308 -0.4928
  119MOL     N416760   8.147   3.030   1.565  0.0498 -0.1161 -0.0957
  119MOL     H516761   0.087   2.815   1.366  0.5264  1.5389  1.2698
  119MOL     H616762   0.064   2.867   1.209 -0.7238 -0.3305  0.3859
  119MOL     H716763   8.243   3.063   1.278  0.1067  0.1131  1.2698
  119MOL     H816764   8.230   2.804   1.299  0.4928 -0.9526 -2.0609
  119MOL     C916765   0.114   3.079   1.349  0.1439 -0.0682  0.1607
  119MOL    C1016766   0.184   3.096   1.210 -0.1249  0.2848 -0.0502
  119MOL    C1116767   0.097   3.112   1.096 -0.1883  0.1089 -0.4182
  119MOL    N1216768   0.030   3.123   1.000 -0.2113  0.6785  0.0617
  119MOL    H1316769   0.091   3.178   1.388 -1.0196 -0.9253  1.7175
  119MOL    H1416770   0.192   3.041   1.414  2.4798  1.0697 -1.8540
  119MOL    H1516771   0.240   3.010   1.175 -0.2335 -0.4024  1.4538
  119MOL    C1616772   0.279   3.215   1.210 -0.2612 -0.5845 -0.2553
  119MOL    C1716773   0.434   3.182   1.220 -0.4123 -0.1277  0.0804
  119MOL    C1816774   0.471   3.113   1.346 -0.0238 -0.2285  0.3313
  119MOL    N1916775   0.497   3.056   1.441 -0.0087  0.8001  0.1163
  119MOL    H2016776   0.247   3.277   1.127 -2.4901 -2.3728 -0.7922
  119MOL    H2116777   0.257   3.273   1.299 -0.2027 -1.1712  0.1509
  119MOL    H2216778   0.492   3.273   1.235  2.3192 -2.0290  1.4257
  119MOL    C2316779   0.480   3.108   1.099 -0.4297  0.5974 -0.9420
  119MOL    C2416780   0.468   3.196   0.973 -0.4058  0.4879  0.2676
  119MOL    C2516781   0.586   3.278   0.961  0.5970  1.3198 -0.1996
  119MOL    N2616782   0.679   3.343   0.955 -0.0233 -0.4224 -0.5746
  119MOL    H2716783   0.580   3.069   1.115 -0.6865 -0.6132 -2.1527
  119MOL    H2816784   0.420   3.017   1.098 -1.3188  1.1520  0.6325
  119MOL    H2916785   0.384   3.265   0.975  0.7418  1.8827  2.1896
  119MOL    C3016786   0.468   3.102   0.846  0.2466 -0.1582 -0.3863
  119MOL    C3116787   0.505   3.167   0.713  0.1154 -0.3972  0.5608
  119MOL    C3216788   0.488   3.067   0.604  0.6793  0.3785  0.3249
  119MOL    N3316789   0.479   2.987   0.521 -0.0023  0.1123 -0.0733
  119MOL    H3416790   0.537   3.018   0.857 -0.5337 -0.5346  1.9059
  119MOL    H3516791   0.369   3.062   0.826  0.3632 -0.2037 -0.8855
  119MOL    H3616792   0.610   3.196   0.724  0.6094 -2.4947  1.5388
  119MOL    C3716793   0.433   3.302   0.688  0.0846  0.0843  0.1770
  119MOL    C3816794   0.496   3.393   0.579 -0.6433  0.2267 -0.4017
  119MOL    C3916795   0.438   3.522   0.567 -0.0733  0.8369  1.0883
  119MOL    N4016796   0.397   3.630   0.557 -0.2022  0.5034 -0.2621
  119MOL    H4116797   0.329   3.277   0.667  0.7554 -1.4497 -1.4639
  119MOL    H4216798   0.427   3.363   0.778  0.2509  0.2912  0.0475
  119MOL    H4316799   0.475   3.332   0.491 -1.4548 -0.0240 -0.0383
  119MOL    C4416800   0.647   3.411   0.579  0.2045  0.2081  0.3529
  119MOL    C4516801   0.707   3.512   0.467  0.8533  0.7817 -0.3450
  119MOL    C4616802   0.852   3.513   0.479  0.1560 -0.7782 -0.0868
  119MOL    N4716803   0.967   3.514   0.478 -0.0172 -0.1925 -0.1206
  119MOL    H4816804   0.680   3.449   0.676 -0.6127 -1.5003  1.3382
  119MOL    H4916805   0.701   3.318   0.561  0.7703  0.4940  0.5554
  119MOL    H5016806   0.674   3.609   0.503 -0.7584  0.7974 -1.8160
  119MOL    C5116807   0.663   3.476   0.323  0.3594 -0.8122 -0.1582
  119MOL    C5216808   0.673   3.585   0.209  0.1664  0.5838  0.0953
  119MOL    C5316809   0.809   3.632   0.193 -0.2226  0.2282  0.6206
  119MOL    N5416810   0.922   3.671   0.168 -1.2680 -0.2512 -0.7616
  119MOL    H5516811   0.708   3.379   0.303  0.7646 -0.5914 -0.3240
  119MOL    H5616812   0.561   3.438   0.327  0.2544 -0.4090  1.4178
  119MOL    H5716813   0.614   3.674   0.230 -1.1914 -0.0547 -0.8945
  119MOL    C5816814   0.614   3.540   0.077 -0.0368 -0.3117 -0.3495
  119MOL    C5916815   0.461   3.536   0.068 -0.4562 -0.2641 -0.2790
  119MOL    C6016816   0.405   3.665   0.102  0.3183 -0.5265 -0.2303
  119MOL    N6116817   0.359   3.767   0.131 -0.1474 -0.3911  0.8357
  119MOL    H6216818   0.664   3.589   8.306  3.1343  0.4329  1.9004
  119MOL    H6316819   0.637   3.434   0.067 -0.7035 -0.4409 -0.5277
  119MOL    H6416820   0.428   3.470   0.148 -0.9026  1.9452  1.4141
  119MOL    C6516821   0.398   3.499   8.253 -0.0085  0.3600  0.1766
  119MOL    C6616822   0.394   3.346   8.234  0.3287 -0.2674  0.6645
  119MOL    C6716823   0.317   3.266   0.023 -0.3413  0.3897  0.3325
  119MOL    N6816824   0.249   3.191   0.091 -0.1643 -0.7206  0.1486
  119MOL    H6916825   0.297   3.536   8.243 -0.2367 -0.0571  0.9225
  119MOL    H7016826   0.452   3.542   8.169 -0.5782 -0.0519 -0.4054
  119MOL    H7116827   0.494   3.305   8.243 -0.5581 -2.5289  0.5843
  119MOL    C7216828   0.349   3.310   8.090  0.1196  0.4871 -0.5263
  119MOL    C7316829   0.398   3.169   8.043 -0.3944  0.1775 -0.4854
  119MOL    C7416830   0.363   3.048   8.122  0.5286  0.8326 -0.2938
  119MOL    N7516831   0.335   2.956   8.187 -0.0033  0.2761  0.4865
  119MOL    H7616832   0.242   3.327   8.077 -0.0224 -0.6206 -0.8227
  119MOL    H7716833   0.400   3.377   8.021  0.9887 -0.2116 -0.5637
  119MOL    H7816834   0.507   3.163   8.043 -0.3222  1.0580  1.5332
  119MOL    C7916835   0.362   3.140   7.896 -0.0791  0.9255 -0.4955
  119MOL    C8016836   0.410   3.238   7.788 -0.2113  0.3573 -0.2174
  119MOL    C8116837   0.555   3.265   7.790 -0.6219 -0.0140  1.3099
  119MOL    N8216838   0.671   3.280   7.780  0.3280 -0.2515  0.0407
  119MOL    H8316839   0.410   3.042   7.891 -1.3524  0.1295  1.7719
  119MOL    H8416840   0.255   3.117   7.890 -0.4609  2.3894  0.2653
  119MOL    H8516841   0.364   3.333   7.816  1.6666  0.4322  2.8328
  119MOL    C8616842   0.380   3.200   7.645 -0.0488 -0.2391  0.2650
  119MOL    C8716843   0.227   3.164   7.628 -0.0655  0.2862  0.1355
  119MOL    C8816844   0.143   3.270   7.696  0.3895  0.6243  0.1607
  119MOL    N8916845   0.077   3.350   7.746  0.6201 -0.1012 -0.2028
  119MOL    H9016846   0.401   3.285   7.580  2.0190 -2.0261 -1.4908
  119MOL    H9116847   0.445   3.119   7.614  1.2412  1.1308 -0.6956
  119MOL    H9216848   0.212   3.070   7.682 -2.0510  0.7832  0.5057
  119MOL    C9316849   0.176   3.137   7.481 -0.0374  0.1532 -0.6280
  119MOL    C9416850   0.041   3.063   7.456 -0.4439 -0.1551 -0.7182
  119MOL    C9516851   8.239   3.142   7.509 -0.0611  0.8961 -0.3053
  119MOL    N9616852   8.148   3.200   7.549  0.0082 -0.3536  0.4762
  119MOL    H9716853   0.151   3.231   7.433 -1.2172 -0.2055 -0.7289
  119MOL    H9816854   0.260   3.105   7.419 -3.0077 -3.3823 -3.0013
  119MOL    H9916855   0.022   2.985   7.530  1.3923  0.5153  0.4969
  119MOL   C10016856   0.018   3.011   7.310  0.2828 -0.0376 -1.0844
  119MOL   C10116857   8.271   2.872   7.298  0.7502  0.1662  0.4844
  119MOL   C10216858   8.247   2.857   7.154  0.2057  0.3439  0.8269
  119MOL   N10316859   8.225   2.839   7.044  0.1139 -0.3058  0.0613
  119MOL   H10416860   8.270   3.082   7.254  1.0098 -0.3839 -2.3327
  119MOL   H10516861   0.113   3.019   7.258 -0.1445  0.8611 -1.7333
  119MOL   H10616862   8.174   2.868   7.349 -0.7668 -1.7009 -2.4508
  119MOL   C10716863   0.056   2.769   7.356 -0.4642  0.2987  0.4217
  119MOL   C10816864   0.011   2.616   7.331 -1.0454  0.4483  0.1840
  119MOL   C10916865   0.070   2.525   7.428 -0.5765  0.3904 -0.4624
  119MOL   N11016866   0.116   2.461   7.507 -0.2842 -0.9372  0.3226
  119MOL   H11116867   0.156   2.782   7.314  0.5390 -1.2469  2.2682
  119MOL   H11216868   0.062   2.778   7.464 -2.4482 -0.5018  0.6322
  119MOL   H11316869   0.063   2.582   7.241 -2.6738 -0.7051 -0.3296
  119MOL   C11416870   8.171   2.582   7.300 -0.3692 -0.4128  0.6969
  119MOL   C11516871   8.069   2.589   7.423 -0.5979 -0.1935 -0.1669
  119MOL   C11616872   8.102   2.697   7.517 -0.9500  0.0047 -0.7824
  119MOL   N11716873   8.131   2.783   7.588  0.1001  0.4344  0.3274
  119MOL   H11816874   8.130   2.629   7.211 -0.5974  2.5390  2.2891
  119MOL   H11916875   8.170   2.476   7.273 -1.1764  0.3969 -2.6527
  119MOL   H12016876   8.110   2.502   7.474 -1.9768  0.1884  1.6403
  119MOL   C12116877   7.918   2.574   7.386 -0.5760  0.0311 -0.1173
  119MOL   C12216878   7.805   2.571   7.489 -0.1222 -0.1380  0.3351
  119MOL   C12316879   7.845   2.613   7.626 -0.6543 -0.2305  0.1674
  119MOL   N12416880   7.874   2.645   7.732  0.1270 -0.0759 -0.5055
  119MOL   H12516881   7.897   2.652   7.313 -0.6405 -1.1672 -1.4061
  119MOL   H12616882   7.899   2.490   7.319  0.5588 -1.3995  1.3084
  119MOL   H12716883   7.796   2.463   7.500  0.9494 -0.2723 -0.0864
  119MOL   C12816884   7.670   2.631   7.430  0.8655 -0.3517  0.9120
  119MOL   C12916885   7.657   2.783   7.451 -0.1674 -0.4536  0.3707
  119MOL   C13016886   7.767   2.857   7.402  0.0962  0.5225  0.2223
  119MOL   N13116887   7.859   2.914   7.355 -0.4647  0.0851 -0.3074
  119MOL   H13216888   7.649   2.588   7.332 -0.2857 -0.2375  1.1073
  119MOL   H13316889   7.587   2.590   7.487 -2.3991  2.1417 -1.8930
  119MOL   H13416890   7.657   2.812   7.556 -0.4172  0.3273  0.1571
  119MOL   C13516891   7.522   2.837   7.400  0.7895  0.0868 -0.0259
  119MOL   C13616892   7.393   2.780   7.460 -0.0509  0.2573  0.5444
  119MOL   C13716893   7.264   2.854   7.437 -0.8415  0.3362 -0.4442
  119MOL   N13816894   7.168   2.922   7.420  0.0118  0.0297 -0.2699
  119MOL   H13916895   7.515   2.944   7.416 -1.3940 -0.0573  0.1629
  119MOL   H14016896   7.512   2.820   7.293 -0.0035  1.1661 -0.1338
  119MOL   H14116897   7.409   2.757   7.565 -0.3154 -0.1846  0.4919
  119MOL   H14216898   7.371   2.690   7.403  1.1954  0.8676 -0.9387
  120MOL     C116899   6.696   1.295   6.274  0.6234  0.1764  0.5648
  120MOL     C216900   6.623   1.171   6.314  0.0706  0.7375  0.1817
  120MOL     C316901   6.685   1.113   6.435  0.3384  0.5194 -0.0112
  120MOL     N416902   6.734   1.063   6.527 -0.2156  0.0156 -0.3931
  120MOL     H516903   6.677   1.330   6.173  2.6880  0.0322  0.1214
  120MOL     H616904   6.804   1.284   6.283  0.8391  1.5974 -0.1064
  120MOL     H716905   6.653   1.090   6.247  1.6161  0.6911  0.9093
  120MOL     H816906   6.669   1.379   6.339  0.0881  0.5121 -0.0828
  120MOL     C916907   6.471   1.186   6.314  0.6027 -0.3162  0.6532
  120MOL    C1016908   6.416   1.213   6.172  0.2166  0.2047  0.2976
  120MOL    C1116909   6.478   1.123   6.073 -0.0570 -0.0758  0.4660
  120MOL    N1216910   6.528   1.050   5.996  0.4470 -0.2618  0.3279
  120MOL    H1316911   6.426   1.097   6.356  0.9739 -0.7328  0.1747
  120MOL    H1416912   6.435   1.258   6.387 -3.3795  0.0593 -1.5286
  120MOL    H1516913   6.454   1.309   6.138 -0.1146  0.0961 -0.4084
  120MOL    C1616914   6.258   1.219   6.177 -0.3643 -0.4039  0.3866
  120MOL    C1716915   6.173   1.094   6.152  0.1296 -0.0330  0.0815
  120MOL    C1816916   6.219   0.980   6.227  0.0148  0.3740  0.3925
  120MOL    N1916917   6.254   0.887   6.284  0.1495  0.4152 -0.1221
  120MOL    H2016918   6.227   1.260   6.273 -0.2887  0.2342  0.1368
  120MOL    H2116919   6.218   1.298   6.113 -0.8856 -1.3565 -0.4871
  120MOL    H2216920   6.201   1.053   6.055  2.0092 -1.0309  1.0323
  120MOL    C2316921   6.020   1.124   6.154 -0.5656  0.4019  0.2333
  120MOL    C2416922   5.951   1.164   6.025 -0.2552 -0.4300 -0.0419
  120MOL    C2516923   5.805   1.146   6.037 -0.3007  0.9262 -0.8861
  120MOL    N2616924   5.692   1.130   6.045  0.5185 -1.0321 -0.0739
  120MOL    H2716925   5.966   1.032   6.178  0.2961 -0.2475 -0.2769
  120MOL    H2816926   5.991   1.190   6.236  0.2856  1.3654 -0.2263
  120MOL    H2916927   5.969   1.089   5.948  3.7368 -0.5908  0.9582
  120MOL    C3016928   5.988   1.295   5.959  0.7060  0.2345 -0.2652
  120MOL    C3116929   5.900   1.351   5.852 -0.4974  0.0291  0.9260
  120MOL    C3216930   5.792   1.441   5.898 -0.0196  0.8123  0.2574
  120MOL    N3316931   5.713   1.511   5.935  0.2322 -0.9849  0.0755
  120MOL    H3416932   6.009   1.363   6.041  1.4885  0.3390 -0.5411
  120MOL    H3516933   6.092   1.283   5.927  0.6807  0.7692 -0.5599
  120MOL    H3616934   5.843   1.274   5.799  0.8504 -0.0675 -0.4059
  120MOL    C3716935   5.976   1.428   5.738 -0.2453 -0.1633  0.2479
  120MOL    C3816936   6.101   1.509   5.780 -0.4793 -0.4459  0.2585
  120MOL    C3916937   6.158   1.565   5.654  0.3226  0.2401  0.0512
  120MOL    N4016938   6.194   1.605   5.552  0.6115 -0.1141  0.3309
  120MOL    H4116939   5.999   1.367   5.651 -0.6141 -0.7595  0.5600
  120MOL    H4216940   5.916   1.509   5.697 -0.5611 -0.2175  0.5955
  120MOL    H4316941   6.170   1.437   5.825  0.5589  0.1714 -0.3155
  120MOL    C4416942   6.090   1.616   5.894  0.5527 -0.1214  0.5144
  120MOL    C4516943   6.210   1.665   5.969  0.0286 -0.4229 -0.3873
  120MOL    C4616944   6.311   1.713   5.875  1.0228  0.0371 -0.3760
  120MOL    N4716945   6.394   1.756   5.806 -0.3780  0.1880  1.1573
  120MOL    H4816946   6.034   1.704   5.860  0.3135 -1.4704 -2.7472
  120MOL    H4916947   6.028   1.580   5.976  0.3084  2.1158  1.3603
  120MOL    H5016948   6.258   1.581   6.020  0.1245  0.6005  1.2231
  120MOL    C5116949   6.176   1.783   6.072 -0.4760 -0.2444  1.0478
  120MOL    C5216950   6.078   1.749   6.194 -0.0554  0.3661 -0.0505
  120MOL    C5316951   6.130   1.619   6.249  0.0401 -0.5260 -0.3915
  120MOL    N5416952   6.175   1.521   6.293 -0.2939  0.2563  0.1713
  120MOL    H5516953   6.278   1.796   6.110  0.0062 -1.9438  0.3712
  120MOL    H5616954   6.136   1.864   6.012 -0.4392 -2.2506 -1.7382
  120MOL    H5716955   5.976   1.732   6.160  0.3465 -1.3108 -0.4870
  120MOL    C5816956   6.099   1.863   6.295  0.1747  0.3402 -0.4588
  120MOL    C5916957   5.980   1.887   6.390  0.1214  0.2988 -0.4583
  120MOL    C6016958   5.922   1.761   6.428  0.0596  0.3966 -0.0241
  120MOL    N6116959   5.879   1.658   6.457  0.2036  0.5429  0.3866
  120MOL    H6216960   6.189   1.840   6.352 -0.1589  1.6177  0.6051
  120MOL    H6316961   6.124   1.958   6.247 -0.5459  1.0238  0.5219
  120MOL    H6416962   5.900   1.944   6.343 -0.7598 -1.1021 -0.6942
  120MOL    C6516963   6.032   1.973   6.511  0.4185  0.4636  0.7522
  120MOL    C6616964   6.074   2.114   6.475  0.1824 -0.6398 -0.4041
  120MOL    C6716965   5.948   2.173   6.431 -0.3829 -0.0522  1.0625
  120MOL    N6816966   5.846   2.219   6.394  0.4879  0.5240  0.2365
  120MOL    H6916967   5.961   1.975   6.593 -0.4535 -1.3361  0.0667
  120MOL    H7016968   6.115   1.917   6.555  0.7493  0.1857 -0.2242
  120MOL    H7116969   6.156   2.130   6.406  0.4993  1.5056  0.4370
  120MOL    C7216970   6.116   2.190   6.602 -0.0406  0.6018 -0.1505
  120MOL    C7316971   6.155   2.335   6.593 -0.1046  0.8107 -0.0558
  120MOL    C7416972   6.142   2.402   6.721 -0.6763  0.4777  1.0998
  120MOL    N7516973   6.134   2.460   6.820 -0.1170  0.2405 -0.3682
  120MOL    H7616974   6.028   2.198   6.666  0.9090  0.1041  1.2512
  120MOL    H7716975   6.190   2.131   6.656 -3.9812 -3.7904  0.8425
  120MOL    H7816976   6.075   2.382   6.536 -2.5249 -2.1933  0.6915
  120MOL    C7916977   6.293   2.355   6.529  0.8932  1.0577 -0.0194
  120MOL    C8016978   6.335   2.497   6.491  0.2219 -0.4375 -0.1512
  120MOL    C8116979   6.223   2.565   6.434  0.4945 -0.4691 -0.5300
  120MOL    N8216980   6.129   2.618   6.389  0.5816  0.0595 -0.6365
  120MOL    H8316981   6.368   2.313   6.597  0.9446  1.2308  0.0332
  120MOL    H8416982   6.297   2.306   6.432 -2.1607  1.8519 -0.5982
  120MOL    H8516983   6.417   2.491   6.420  0.9089 -2.3559  0.7613
  120MOL    C8616984   6.397   2.569   6.610  0.4320  0.2235  0.2311
  120MOL    C8716985   6.406   2.721   6.602  0.5503  0.1883  0.2998
  120MOL    C8816986   6.274   2.772   6.645  0.0617 -0.0034 -0.1574
  120MOL    N8916987   6.174   2.823   6.671 -0.1155  0.0900  0.4260
  120MOL    H9016988   6.337   2.552   6.700 -1.6456  1.0231 -0.9786
  120MOL    H9116989   6.490   2.521   6.640  0.6803 -0.1928 -1.1823
  120MOL    H9216990   6.427   2.746   6.498 -2.3885  2.3605  0.1579
  120MOL    C9316991   6.519   2.789   6.679 -0.7442 -0.1894 -0.0723
  120MOL    C9416992   6.556   2.931   6.628  0.1440 -0.7278 -0.3573
  120MOL    C9516993   6.627   3.000   6.735  0.4408 -0.2285  0.3051
  120MOL    N9616994   6.682   3.049   6.823  0.0086  0.2683 -0.3970
  120MOL    H9716995   6.486   2.805   6.782 -2.8144  0.2354 -0.7811
  120MOL    H9816996   6.602   2.719   6.686  2.0555  3.1736  2.1122
  120MOL    H9916997   6.468   2.986   6.594 -1.3126 -2.7640  0.0403
  120MOL   C10016998   6.638   2.906   6.499 -0.0236 -0.6242 -0.1359
  120MOL   C10116999   6.699   3.037   6.432  0.0259  0.2409 -0.7416
  120MOL   C10217000   6.620   3.154   6.455  0.1079  0.0111  0.0717
  120MOL   N10317001   6.549   3.242   6.483 -0.4056  0.2334 -0.7875
  120MOL   H10417002   6.709   2.824   6.506  0.6185 -0.2628 -2.0823
  120MOL   H10517003   6.577   2.876   6.414  1.5908  2.3736 -2.4441
  120MOL   H10617004   6.694   3.018   6.325 -0.6841  1.3680 -0.9112
  120MOL   C10717005   6.849   3.043   6.471 -0.2031 -0.3415 -0.9023
  120MOL   C10817006   6.928   3.169   6.428  0.7528 -0.0532 -0.1936
  120MOL   C10917007   7.048   3.191   6.509  0.4778  0.8758 -0.0902
  120MOL   N11017008   7.143   3.215   6.573 -0.1271  0.4237 -0.7587
  120MOL   H11117009   6.854   3.044   6.580 -3.6185  0.5035 -0.7045
  120MOL   H11217010   6.888   2.952   6.426 -1.4813  0.0683 -2.8967
  120MOL   H11317011   6.862   3.253   6.452 -0.6980 -0.8900 -1.1609
  120MOL   C11417012   6.970   3.164   6.276  0.4554  0.1653  0.1159
  120MOL   C11517013   7.076   3.270   6.214  0.2798  0.1455  0.9895
  120MOL   C11617014   7.032   3.399   6.251 -0.6160 -0.6997  1.0832
  120MOL   N11717015   6.994   3.504   6.275 -0.1016 -0.5642  0.1650
  120MOL   H11817016   7.004   3.066   6.242 -0.8777 -0.3746  0.3075
  120MOL   H11917017   6.880   3.178   6.216 -0.3360  0.6087  1.3746
  120MOL   H12017018   7.074   3.256   6.106  0.0657 -3.2000  1.3553
  120MOL   C12117019   7.224   3.254   6.253 -0.5396  0.6834 -0.3162
  120MOL   C12217020   7.333   3.300   6.158  0.0036  0.4051  0.5516
  120MOL   C12317021   7.326   3.446   6.140  0.9460  0.0620 -0.2923
  120MOL   N12417022   7.309   3.556   6.130 -0.2408  0.3679 -0.3014
  120MOL   H12517023   7.243   3.290   6.353  1.7241 -1.9451  0.2574
  120MOL   H12617024   7.241   3.146   6.250  1.4212  0.9604  0.0325
  120MOL   H12717025   7.313   3.260   6.059 -2.6559  0.1038  1.1496
  120MOL   C12817026   7.474   3.266   6.202  0.4590 -0.0050 -0.0802
  120MOL   C12917027   7.575   3.269   6.085  0.1144  0.6795 -0.2556
  120MOL   C13017028   7.572   3.393   6.014  0.3305 -0.5301  0.5656
  120MOL   N13117029   7.577   3.495   5.958 -0.1276  0.3015  0.0734
  120MOL   H13217030   7.504   3.324   6.289  0.8590  0.1292 -0.3036
  120MOL   H13317031   7.485   3.164   6.237  1.0718  0.2376  0.4398
  120MOL   H13417032   7.553   3.194   6.009 -1.3646  1.6102 -0.7703
  120MOL   C13517033   7.721   3.246   6.134 -0.2888  1.4166  0.0380
  120MOL   C13617034   7.743   3.101   6.181  0.5539  0.7205 -0.7107
  120MOL   C13717035   7.871   3.098   6.263 -0.4669  0.0548  1.0043
  120MOL   N13817036   7.968   3.097   6.323 -0.6981  0.6985 -0.3383
  120MOL   H13917037   7.796   3.266   6.058  1.8233  0.3845  1.8138
  120MOL   H14017038   7.747   3.303   6.223  1.8295  2.3415 -1.1450
  120MOL   H14117039   7.760   3.039   6.093 -2.0630  0.2332 -0.9063
  120MOL   H14217040   7.668   3.067   6.252  0.7296  3.5449  0.9081
  121MOL     C117041   6.770   0.729   6.000  0.2628  0.0360 -0.2502
  121MOL     C217042   6.822   0.643   5.890 -0.1056 -0.4144  0.7265
  121MOL     C317043   6.964   0.621   5.896  0.3406  0.4828 -0.1269
  121MOL     N417044   7.082   0.600   5.896  0.3550  0.0190 -0.4868
  121MOL     H517045   6.765   0.667   6.089  0.3810 -1.2328 -1.1135
  121MOL     H617046   6.669   0.762   5.975  1.3243  2.1309 -1.9710
  121MOL     H717047   6.816   0.697   5.796 -1.5846 -2.9492 -0.6966
  121MOL     H817048   6.832   0.819   6.008  1.4332 -0.7555 -0.3197
  121MOL     C917049   6.748   0.510   5.873 -0.3033  0.5295  0.1043
  121MOL    C1017050   6.732   0.445   5.739  0.1353 -0.0893 -0.2770
  121MOL    C1117051   6.848   0.458   5.654 -0.6767 -0.9270 -0.6311
  121MOL    N1217052   6.937   0.476   5.584 -0.3888  0.0312  0.6596
  121MOL    H1317053   6.802   0.444   5.940 -0.7523  0.6214  0.5677
  121MOL    H1417054   6.644   0.528   5.902 -0.6683  0.4746 -1.1387
  121MOL    H1517055   6.650   0.482   5.678  0.4873  0.8170 -0.2046
  121MOL    C1617056   6.712   0.296   5.746  0.3046 -0.2457 -0.3947
  121MOL    C1717057   6.571   0.258   5.793  0.0870 -1.1354  0.7059
  121MOL    C1817058   6.459   0.315   5.713 -0.0903 -0.0463 -0.5281
  121MOL    N1917059   6.369   0.346   5.654 -0.2535 -0.2848 -0.2778
  121MOL    H2017060   6.731   0.254   5.648 -0.3136 -4.9500  1.3579
  121MOL    H2117061   6.783   0.255   5.817  1.7499 -0.1158 -1.7493
  121MOL    H2217062   6.567   0.306   5.891  1.7823 -0.6780  0.5520
  121MOL    C2317063   6.551   0.110   5.812  0.4462  0.2452  0.9009
  121MOL    C2417064   6.459   0.074   5.929 -0.4478  0.0876  0.3499
  121MOL    C2517065   6.329   0.138   5.922  0.4299 -0.1453 -0.3218
  121MOL    N2617066   6.221   0.187   5.914  0.5692 -0.3646  0.4244
  121MOL    H2717067   6.521   0.060   5.720 -1.0844  0.0653  1.4886
  121MOL    H2817068   6.654   0.078   5.829  1.3507  2.5545  0.0346
  121MOL    H2917069   6.497   0.121   6.020 -2.2093  1.3015  0.4753
  121MOL    C3017070   6.442   8.240   5.944 -0.0899 -0.7608  0.3443
  121MOL    C3117071   6.565   8.150   5.966  0.3272 -0.1051  0.3482
  121MOL    C3217072   6.619   8.187   6.093  0.1558  0.1034  0.2667
  121MOL    N3317073   6.664   8.214   6.198  0.3256  0.4986 -0.2177
  121MOL    H3417074   6.386   8.223   6.036 -2.8457  0.2733 -1.1008
  121MOL    H3517075   6.374   8.203   5.867 -0.8398  0.5470  0.3674
  121MOL    H3617076   6.642   8.171   5.892  1.8655  0.2087  1.9739
  121MOL    C3717077   6.530   8.001   5.955 -0.2157 -0.6077  0.1590
  121MOL    C3817078   6.444   7.955   5.836  0.1361 -1.0405 -0.4530
  121MOL    C3917079   6.481   8.022   5.710 -0.1670 -0.7717 -0.0932
  121MOL    N4017080   6.512   8.082   5.615 -0.1425  0.5943  0.0065
  121MOL    H4117081   6.622   7.943   5.947 -0.2093 -0.4645 -0.8667
  121MOL    H4217082   6.493   7.967   6.051  4.0462 -2.5949  1.2611
  121MOL    H4317083   6.342   7.990   5.853  1.5559  1.9551  2.5259
  121MOL    C4417084   6.436   7.796   5.830  0.2930 -0.4360  0.7257
  121MOL    C4517085   6.349   7.730   5.937 -0.5967 -0.0286  0.2575
  121MOL    C4617086   6.210   7.752   5.939  0.4637 -0.7106 -0.1232
  121MOL    N4717087   6.094   7.763   5.943 -0.0677  0.0615  0.4817
  121MOL    H4817088   6.400   7.768   5.731  1.4429 -0.6278  0.3588
  121MOL    H4917089   6.539   7.764   5.840  0.8506  0.6137 -1.3792
  121MOL    H5017090   6.386   7.771   6.030 -0.9669 -0.7515  0.7295
  121MOL    C5117091   6.392   7.580   5.966  0.4479  0.2274  0.3681
  121MOL    C5217092   6.313   7.468   5.896  0.1506 -0.5555 -0.4350
  121MOL    C5317093   6.288   7.506   5.761 -0.6617  0.1257  0.8354
  121MOL    N5417094   6.271   7.531   5.652 -0.0869 -0.2288  0.3678
  121MOL    H5517095   6.498   7.566   5.943 -0.1145  0.4413 -2.5260
  121MOL    H5617096   6.397   7.575   6.075  1.0654 -1.7253  0.2629
  121MOL    H5717097   6.216   7.451   5.941 -0.1415  0.8298 -0.5074
  121MOL    C5817098   6.398   7.334   5.891  0.5162 -0.0990 -0.8265
  121MOL    C5917099   6.412   7.282   6.031 -0.1720  0.4628 -0.2292
  121MOL    C6017100   6.295   7.214   6.071  0.5414 -0.0375  0.9232
  121MOL    N6117101   6.198   7.163   6.100  0.1278 -0.1363  0.4489
  121MOL    H6217102   6.349   7.255   5.833  2.4942 -1.8950 -0.1303
  121MOL    H6317103   6.491   7.360   5.842  1.4743 -1.7357  0.0737
  121MOL    H6417104   6.421   7.371   6.093 -3.2136  0.6923 -0.0726
  121MOL    C6517105   6.537   7.190   6.066  0.3434  0.0658  0.0342
  121MOL    C6617106   6.679   7.250   6.067 -0.3051 -0.7063  1.2249
  121MOL    C6717107   6.690   7.387   6.125  0.0058 -0.7725  0.8679
  121MOL    N6817108   6.706   7.495   6.166  0.4645  0.3161 -0.1575
  121MOL    H6917109   6.518   7.155   6.167  1.4648 -0.3705  0.1050
  121MOL    H7017110   6.524   7.103   6.001 -0.9698  0.0681  0.2730
  121MOL    H7117111   6.698   7.259   5.960 -1.9925  1.3482  1.0755
  121MOL    C7217112   6.779   7.154   6.126 -0.1862 -0.5113 -0.3893
  121MOL    C7317113   6.926   7.196   6.162 -0.1222 -1.0216 -0.2267
  121MOL    C7417114   6.942   7.285   6.274  0.2977 -0.3408 -0.0663
  121MOL    N7517115   6.956   7.358   6.366  0.1455  0.0809  0.0398
  121MOL    H7617116   6.732   7.119   6.217 -0.4678  1.5478  0.2770
  121MOL    H7717117   6.795   7.072   6.056 -0.4767 -1.4654  0.6541
  121MOL    H7817118   6.968   7.251   6.077  0.1763  0.4829  0.8611
  121MOL    C7917119   7.005   7.063   6.176  0.5782 -0.1376  0.2940
  121MOL    C8017120   7.149   7.073   6.221  0.0698 -0.0880 -0.9069
  121MOL    C8117121   7.212   6.949   6.261 -0.0616  0.0249  0.0515
  121MOL    N8217122   7.260   6.849   6.293 -0.1737  0.1239  0.3609
  121MOL    H8317123   6.938   7.004   6.239 -1.1006  0.4814 -0.8510
  121MOL    H8417124   6.998   7.015   6.078 -0.6043 -1.3444  0.9410
  121MOL    H8517125   7.136   7.123   6.317 -4.1478 -0.6401 -1.1100
  121MOL    C8617126   7.242   7.155   6.131  0.9091 -0.0508  0.1164
  121MOL    C8717127   7.304   7.083   6.017  0.9685  0.1301  0.1756
  121MOL    C8817128   7.211   7.002   5.940 -0.2206  0.2408  0.0522
  121MOL    N8917129   7.143   6.934   5.880  0.2749 -0.2704  0.0070
  121MOL    H9017130   7.184   7.239   6.093  0.9864 -0.4662 -0.9540
  121MOL    H9117131   7.317   7.204   6.193  0.2308  0.0966  0.8335
  121MOL    H9217132   7.375   7.009   6.055  0.4610  0.5693  2.0751
  121MOL    C9317133   7.375   7.190   5.920 -0.3081 -0.4451 -0.1191
  121MOL    C9417134   7.299   7.260   5.804 -0.1913  0.0272  0.1533
  121MOL    C9517135   7.155   7.281   5.824  0.5027 -0.1124 -0.9029
  121MOL    N9617136   7.039   7.291   5.835 -0.0667  0.7465  0.1418
  121MOL    H9717137   7.430   7.249   5.994  0.0732 -2.6092  1.3692
  121MOL    H9817138   7.463   7.142   5.877 -0.2702  0.0849 -0.6459
  121MOL    H9917139   7.294   7.181   5.730 -0.8336  0.3251 -0.1232
  121MOL   C10017140   7.364   7.393   5.750  0.5438 -0.1285 -0.2093
  121MOL   C10117141   7.283   7.525   5.748  0.4895 -0.1156  0.1336
  121MOL   C10217142   7.233   7.564   5.885  0.4487 -0.2783 -0.3627
  121MOL   N10317143   7.204   7.593   5.993 -0.1350  0.0730  0.0688
  121MOL   H10417144   7.459   7.410   5.801 -0.1888  3.9272 -0.0240
  121MOL   H10517145   7.415   7.370   5.657 -0.1516 -0.5578 -0.4867
  121MOL   H10617146   7.203   7.505   5.676  1.7587 -0.3695 -1.2379
  121MOL   C10717147   7.366   7.647   5.688  0.7420  0.1862 -0.0650
  121MOL   C10817148   7.296   7.776   5.705 -0.3526 -0.5848  0.4185
  121MOL   C10917149   7.389   7.872   5.651 -1.3043 -0.6076 -0.1855
  121MOL   N11017150   7.463   7.953   5.607 -0.2860 -0.1399  0.3980
  121MOL   H11117151   7.473   7.644   5.708  0.7827  1.4581 -0.0677
  121MOL   H11217152   7.370   7.622   5.582 -0.9157  0.5992 -0.2349
  121MOL   H11317153   7.291   7.800   5.811 -0.1095 -2.6171  0.9092
  121MOL   C11417154   7.158   7.774   5.643  0.2909 -0.4830 -0.1983
  121MOL   C11517155   7.093   7.911   5.610  0.8894  0.0983 -0.4079
  121MOL   C11617156   7.154   7.994   5.501  0.0282 -0.6566  0.9050
  121MOL   N11717157   7.197   8.062   5.418 -0.6662 -0.4943  0.3649
  121MOL   H11817158   7.161   7.712   5.553 -1.8917  0.5764 -1.0453
  121MOL   H11917159   7.103   7.719   5.719  0.0782 -1.9388 -1.3647
  121MOL   H12017160   7.098   7.974   5.699  0.3853 -1.7415  0.9684
  121MOL   C12117161   6.951   7.886   5.572  0.0094  0.3399  0.4115
  121MOL   C12217162   6.848   7.996   5.573 -0.0564 -0.3608 -0.1715
  121MOL   C12317163   6.865   8.091   5.691 -0.0771 -0.5939 -0.1690
  121MOL   N12417164   6.878   8.170   5.775  0.4925 -0.7029  0.2453
  121MOL   H12517165   6.940   7.833   5.478 -1.2443  0.0437  0.7160
  121MOL   H12617166   6.911   7.822   5.651 -1.4716 -0.8354 -1.2488
  121MOL   H12717167   6.759   7.942   5.607  0.4740 -0.3547  1.3039
  121MOL   C12817168   6.832   8.070   5.441 -0.4156  0.1373 -0.1751
  121MOL   C12917169   6.772   8.205   5.440 -0.3253  0.4942 -0.1977
  121MOL   C13017170   6.869   8.306   5.467  0.2542  0.8026  0.3846
  121MOL   N13117171   6.945   0.075   5.494 -0.4425 -0.3415 -0.4690
  121MOL   H13217172   6.933   8.082   5.400 -0.6506  2.2203 -0.1814
  121MOL   H13317173   6.772   8.007   5.374 -1.4215 -0.6289  1.4193
  121MOL   H13417174   6.706   8.206   5.527  1.2383 -0.5760  1.0522
  121MOL   C13517175   6.700   8.248   5.302 -0.0747 -0.3497 -0.6701
  121MOL   C13617176   6.566   0.004   5.327  0.2012 -0.1837 -0.5151
  121MOL   C13717177   6.590   0.134   5.390 -0.2371  0.0511 -0.9721
  121MOL   N13817178   6.613   0.236   5.437 -0.0660 -0.0628  0.1100
  121MOL   H13917179   6.768   8.309   5.244 -0.3719  1.5192  0.8899
  121MOL   H14017180   6.673   8.163   5.240  0.0333  0.2594 -1.5641
  121MOL   H14117181   6.503   8.244   5.379  0.8727 -1.1665 -1.0468
  121MOL   H14217182   6.523   0.031   5.230 -0.2706 -1.7556 -0.7573
  122MOL     C117183   6.413   4.658   6.150  0.1338 -0.3051 -0.8026
  122MOL     C217184   6.500   4.556   6.073  0.3465  0.4844  0.7125
  122MOL     C317185   6.645   4.586   6.067 -0.2885 -0.0601 -0.3818
  122MOL     N417186   6.757   4.618   6.056 -0.4940 -0.0229  0.0675
  122MOL     H517187   6.419   4.756   6.103  3.5086 -0.4898 -0.8343
  122MOL     H617188   6.463   4.669   6.246 -1.0631  2.2256 -0.4267
  122MOL     H717189   6.468   4.563   5.969 -1.0531 -0.8740  1.0228
  122MOL     H817190   6.309   4.630   6.171  0.3329  0.3976  1.1223
  122MOL     C917191   6.473   4.413   6.118 -0.1003 -0.7191 -0.1310
  122MOL    C1017192   6.564   4.302   6.065 -0.4435  0.6873 -0.6559
  122MOL    C1117193   6.683   4.277   6.143 -0.5992 -0.4941  0.2763
  122MOL    N1217194   6.782   4.257   6.193  0.1878  0.0746  0.4337
  122MOL    H1317195   6.485   4.397   6.225  0.6612  0.4784 -0.0273
  122MOL    H1417196   6.365   4.404   6.106 -0.2082  0.5828 -0.2889
  122MOL    H1517197   6.584   4.327   5.960  0.1185  1.6799 -0.3268
  122MOL    C1617198   6.490   4.166   6.069  0.3383 -0.7166  0.0195
  122MOL    C1717199   6.551   4.046   5.989 -0.2607 -0.0656 -0.2831
  122MOL    C1817200   6.481   3.918   6.005 -0.0054 -0.0723 -0.9979
  122MOL    N1917201   6.420   3.820   6.016  0.1873  0.4150 -0.4446
  122MOL    H2017202   6.480   4.146   6.176  1.4869  2.7358  0.8300
  122MOL    H2117203   6.389   4.179   6.032  0.4723  0.6100  0.1215
  122MOL    H2217204   6.644   4.014   6.037 -1.3771 -0.9781  1.3369
  122MOL    C2317205   6.564   4.094   5.837 -0.7425  0.3485  0.0818
  122MOL    C2417206   6.605   3.986   5.728  0.0056 -0.2516  0.4046
  122MOL    C2517207   6.492   3.894   5.702 -0.0571  0.6686  0.2287
  122MOL    N2617208   6.408   3.817   5.681 -0.4981  0.0387  0.9672
  122MOL    H2717209   6.471   4.141   5.806 -1.6872 -1.8120 -0.4435
  122MOL    H2817210   6.639   4.173   5.839 -0.7177  0.3073  0.7328
  122MOL    H2917211   6.697   3.940   5.764  0.6165 -1.1471 -2.1985
  122MOL    C3017212   6.656   4.051   5.596 -0.5243 -0.0457 -0.4046
  122MOL    C3117213   6.727   3.962   5.497  0.1538  0.0955 -0.7884
  122MOL    C3217214   6.636   3.863   5.426 -0.0919 -0.2864 -0.5855
  122MOL    N3317215   6.562   3.789   5.371 -0.5903  0.1764 -0.0617
  122MOL    H3417216   6.570   4.089   5.541 -0.8605  0.2778  0.3322
  122MOL    H3517217   6.699   4.145   5.630 -0.7003  1.0985 -3.2418
  122MOL    H3617218   6.787   3.894   5.558 -1.2004 -0.4020  0.0021
  122MOL    C3717219   6.815   4.040   5.399 -0.1486  0.3902  0.2827
  122MOL    C3817220   6.751   4.104   5.277  0.4782 -0.0602  0.4274
  122MOL    C3917221   6.656   4.219   5.315 -0.3926 -0.3506  0.7074
  122MOL    N4017222   6.584   4.302   5.341  0.0841 -0.3505 -0.0233
  122MOL    H4117223   6.876   4.123   5.435 -0.8604  2.0518 -2.2277
  122MOL    H4217224   6.879   3.957   5.368 -1.0157 -0.7094  1.3722
  122MOL    H4317225   6.687   4.032   5.224 -0.1663 -0.7733  2.1484
  122MOL    C4417226   6.861   4.150   5.174 -0.0060  0.1341  0.1117
  122MOL    C4517227   6.811   4.207   5.046  0.7984 -0.6228  0.3711
  122MOL    C4617228   6.766   4.348   5.063  0.1609 -0.4306 -0.6250
  122MOL    N4717229   6.727   4.457   5.076  0.3258  0.1705 -0.0971
  122MOL    H4817230   6.930   4.215   5.228 -0.4973 -1.3446  2.5810
  122MOL    H4917231   6.925   4.062   5.169  0.4126  0.4650 -0.4268
  122MOL    H5017232   6.722   4.152   5.016  2.0749 -1.3225 -2.3519
  122MOL    C5117233   6.918   4.189   4.937  0.0635 -0.5104  0.6600
  122MOL    C5217234   6.894   4.256   4.803  0.1077 -0.4018 -0.1080
  122MOL    C5317235   7.024   4.276   4.742  0.3860 -0.6569 -0.0109
  122MOL    N5417236   7.137   4.292   4.702  0.1246 -0.1904 -0.8293
  122MOL    H5517237   7.017   4.210   4.978  0.0001  0.5867  0.2770
  122MOL    H5617238   6.935   4.081   4.931  1.9195 -0.2503  0.8143
  122MOL    H5717239   6.853   4.355   4.823 -0.9033 -0.9794  0.7350
  122MOL    C5817240   6.796   4.175   4.710 -0.0260  0.2857  1.2922
  122MOL    C5917241   6.858   4.089   4.598 -0.1511 -0.7356 -0.6180
  122MOL    C6017242   6.964   4.006   4.656  0.2094  0.2883 -0.1946
  122MOL    N6117243   7.051   3.941   4.688  0.4959  0.3481  0.0742
  122MOL    H6217244   6.721   4.121   4.769 -0.0988 -0.5508  0.4336
  122MOL    H6317245   6.727   4.243   4.660 -1.5937 -2.4269 -0.3464
  122MOL    H6417246   6.904   4.155   4.524 -0.3824 -1.6011 -1.5352
  122MOL    C6517247   6.758   4.011   4.527 -0.3356  0.3138 -0.4104
  122MOL    C6617248   6.733   4.056   4.373  0.2402  0.2153  0.1991
  122MOL    C6717249   6.651   3.956   4.311 -0.1621  0.0205 -0.3571
  122MOL    N6817250   6.589   3.878   4.256  0.2288  0.0931 -0.1451
  122MOL    H6917251   6.787   3.907   4.511 -0.5139  0.5316 -2.3023
  122MOL    H7017252   6.657   4.009   4.569 -0.7111 -0.3512 -1.3288
  122MOL    H7117253   6.823   4.045   4.314  0.5226 -1.0555  0.8456
  122MOL    C7217254   6.683   4.195   4.341  0.6065 -0.3637 -0.1393
  122MOL    C7317255   6.529   4.214   4.351  0.6964  0.1482  0.6209
  122MOL    C7417256   6.472   4.183   4.479 -0.2795 -0.6098 -0.4946
  122MOL    N7517257   6.427   4.156   4.590  0.9778 -0.0376  0.7126
  122MOL    H7617258   6.741   4.270   4.394  1.7902  0.0554 -1.9869
  122MOL    H7717259   6.715   4.220   4.240  0.6504 -0.3301 -0.1173
  122MOL    H7817260   6.480   4.134   4.295 -0.0325  1.9560 -1.3918
  122MOL    C7917261   6.473   4.344   4.284  0.2602  0.4508 -0.3035
  122MOL    C8017262   6.485   4.361   4.132  1.1654 -0.1296  0.0862
  122MOL    C8117263   6.621   4.402   4.093  0.3929 -0.4260 -0.3017
  122MOL    N8217264   6.731   4.437   4.069 -0.3241 -0.3390 -0.5323
  122MOL    H8317265   6.371   4.350   4.322 -0.5038  1.3974 -2.4304
  122MOL    H8417266   6.520   4.435   4.322  2.4847 -0.9598  0.4323
  122MOL    H8517267   6.418   4.446   4.121  1.7815  0.6150  1.9149
  122MOL    C8617268   6.435   4.245   4.048  1.0897 -0.1118 -0.9321
  122MOL    C8717269   6.375   4.284   3.914  0.5341 -0.2225 -0.7762
  122MOL    C8817270   6.254   4.367   3.938  0.4091 -0.4239 -0.6245
  122MOL    N8917271   6.159   4.431   3.954 -0.3604  0.7009 -0.0946
  122MOL    H9017272   6.517   4.175   4.035 -0.0170 -1.8359  0.8838
  122MOL    H9117273   6.362   4.185   4.104  1.6552 -1.2148 -1.3605
  122MOL    H9217274   6.329   4.195   3.870  2.4561 -0.2141 -2.8771
  122MOL    C9317275   6.469   4.353   3.819  0.5467 -0.6287 -0.0883
  122MOL    C9417276   6.569   4.261   3.747 -0.1523 -0.1025 -0.9790
  122MOL    C9517277   6.492   4.168   3.655 -0.1927  0.3292  0.8516
  122MOL    N9617278   6.431   4.096   3.585 -1.2203 -0.2395 -0.2179
  122MOL    H9717279   6.409   4.401   3.741  0.2723  2.8105  2.1294
  122MOL    H9817280   6.517   4.436   3.872 -0.5007  0.2406 -0.4888
  122MOL    H9917281   6.631   4.202   3.815 -0.0708  2.1275  0.9323
  122MOL   C10017282   6.647   4.349   3.658  0.3300  0.3053 -0.1713
  122MOL   C10117283   6.758   4.412   3.732  0.1620  0.4166  0.0254
  122MOL   C10217284   6.874   4.319   3.751 -0.0852 -0.0583 -0.0754
  122MOL   N10317285   6.962   4.244   3.768 -0.0972 -0.1909  0.5450
  122MOL   H10417286   6.698   4.297   3.577 -0.3646 -1.4220  0.4723
  122MOL   H10517287   6.584   4.421   3.606  0.4589  0.6837  0.1992
  122MOL   H10617288   6.725   4.454   3.827  2.6191  2.3820  0.0651
  122MOL   C10717289   6.818   4.519   3.645  0.4481 -0.0070 -0.0834
  122MOL   C10817290   6.937   4.602   3.702  0.1669  0.7016  0.2156
  122MOL   C10917291   6.971   4.697   3.594 -0.8507  0.3084  0.2443
  122MOL   N11017292   6.994   4.771   3.505  0.4181 -0.4646  0.1478
  122MOL   H11117293   6.855   4.465   3.558  0.6600  1.0174 -0.6409
  122MOL   H11217294   6.742   4.591   3.614  1.2064  1.0531  0.4772
  122MOL   H11317295   7.018   4.530   3.716 -1.6317 -1.4771 -0.1729
  122MOL   C11417296   6.896   4.670   3.836  0.3620  0.2296  0.3295
  122MOL   C11517297   6.993   4.660   3.956 -0.0262 -0.0174  0.5578
  122MOL   C11617298   7.114   4.732   3.923 -0.7556 -0.2461 -0.8219
  122MOL   N11717299   7.212   4.784   3.893 -0.8304  0.6826 -0.9447
  122MOL   H11817300   6.870   4.775   3.824 -1.3378 -0.3869 -1.7450
  122MOL   H11917301   6.807   4.626   3.879  0.8683 -1.7087 -0.5427
  122MOL   H12017302   7.019   4.557   3.979 -1.3532 -0.4982 -0.0979
  122MOL   C12117303   6.944   4.711   4.090 -0.4801 -0.1760  0.3114
  122MOL   C12217304   6.980   4.628   4.209 -0.4359  0.6548 -0.5450
  122MOL   C12317305   7.123   4.586   4.211  0.6218  0.0347  0.1402
  122MOL   N12417306   7.232   4.553   4.205 -0.0172 -0.3998  0.3087
  122MOL   H12517307   6.978   4.814   4.102  0.2522 -0.4586  0.6206
  122MOL   H12617308   6.835   4.718   4.085 -0.6193 -2.9295 -1.4656
  122MOL   H12717309   6.915   4.542   4.196  0.3120  0.1042 -0.6667
  122MOL   C12817310   6.951   4.700   4.345  0.2620 -0.4897  0.2838
  122MOL   C12917311   6.988   4.640   4.478 -1.1249 -0.0641 -0.5445
  122MOL   C13017312   6.992   4.499   4.454  0.3032 -0.0873  0.2220
  122MOL   N13117313   6.993   4.388   4.436  1.0101 -0.2015 -0.0212
  122MOL   H13217314   6.984   4.804   4.335 -2.3617  0.1919 -2.2242
  122MOL   H13317315   6.842   4.713   4.346  0.4394  1.4311 -1.4065
  122MOL   H13417316   6.901   4.653   4.542 -1.6823  1.0661 -1.5146
  122MOL   C13517317   7.126   4.697   4.528 -0.5182  0.0318 -0.0328
  122MOL   C13617318   7.198   4.629   4.634 -0.6203  0.5177  0.5182
  122MOL   C13717319   7.110   4.616   4.749  0.0702 -0.2388 -0.0224
  122MOL   N13817320   7.030   4.602   4.834  0.6587 -1.0495 -0.1742
  122MOL   H13917321   7.194   4.701   4.442  0.1836 -1.8455  0.4208
  122MOL   H14017322   7.106   4.800   4.559 -1.6922 -0.0965 -0.3407
  122MOL   H14117323   7.291   4.676   4.667  0.5209 -0.2617 -1.5505
  122MOL   H14217324   7.220   4.526   4.606 -1.2156  0.0680  1.6646
  123MOL     C117325   4.306   4.220   1.091 -1.3693  0.3279  0.5201
  123MOL     C217326   4.328   4.072   1.074 -0.6627  0.4313  0.3496
  123MOL     C317327   4.227   4.017   0.979 -0.3554 -0.0850 -0.2240
  123MOL     N417328   4.153   3.967   0.905 -0.0323  0.3769 -0.0058
  123MOL     H517329   4.375   4.257   1.167 -1.2659  1.1801  0.0209
  123MOL     H617330   4.207   4.234   1.133 -2.1214 -0.2277 -1.0441
  123MOL     H717331   4.294   4.018   1.163 -2.0120 -0.4928 -0.7071
  123MOL     H817332   4.318   4.278   0.999 -0.1839 -1.8820 -0.7530
  123MOL     C917333   4.470   4.043   1.040 -0.2834 -0.8136  0.5009
  123MOL    C1017334   4.495   4.010   0.900 -0.5590  0.6050 -0.1064
  123MOL    C1117335   4.451   4.116   0.811 -0.1954 -0.4324 -0.4709
  123MOL    N1217336   4.411   4.190   0.727  0.3893  0.4856 -0.7745
  123MOL    H1317337   4.545   4.120   1.059 -0.0246 -0.6638 -1.0582
  123MOL    H1417338   4.505   3.959   1.100  0.3797 -0.2687  0.8765
  123MOL    H1517339   4.443   3.917   0.881 -1.3652  0.5803  2.1692
  123MOL    C1617340   4.647   3.979   0.882  0.3117  0.0072 -0.2624
  123MOL    C1717341   4.703   3.845   0.945  0.1334 -0.0308  0.1802
  123MOL    C1817342   4.744   3.861   1.091  0.4382 -0.0714  0.6136
  123MOL    N1917343   4.775   3.878   1.204  0.7620  0.0187 -0.4003
  123MOL    H2017344   4.672   3.981   0.776 -1.3588  2.8757 -0.6490
  123MOL    H2117345   4.710   4.056   0.926  0.1393 -1.2894  2.3964
  123MOL    H2217346   4.801   3.829   0.898  0.0599  0.5743 -0.1731
  123MOL    C2317347   4.618   3.714   0.922 -0.1759  0.2288  0.2702
  123MOL    C2417348   4.688   3.584   0.953 -0.4903 -0.0765 -0.0487
  123MOL    C2517349   4.588   3.474   0.942 -0.2559  0.2477  0.3995
  123MOL    N2617350   4.508   3.392   0.935 -0.5697  0.1143  0.6300
  123MOL    H2717351   4.536   3.721   0.993 -0.2865 -1.0927  0.2961
  123MOL    H2817352   4.562   3.704   0.829  1.0889 -0.4746 -0.4260
  123MOL    H2917353   4.720   3.578   1.057  0.1681  2.1838 -0.0978
  123MOL    C3017354   4.820   3.555   0.877 -0.8633 -0.0219 -0.0685
  123MOL    C3117355   4.809   3.540   0.731  0.6653  0.1316  0.7585
  123MOL    C3217356   4.767   3.656   0.650  0.0382  0.4763 -0.2153
  123MOL    N3317357   4.728   3.740   0.582  0.1494  0.7037  0.3146
  123MOL    H3417358   4.899   3.628   0.897 -0.6368 -0.1756 -0.3985
  123MOL    H3517359   4.860   3.463   0.921 -1.1349  0.5096  1.3343
  123MOL    H3617360   4.724   3.474   0.716 -0.8886  2.1873  0.3416
  123MOL    C3717361   4.921   3.459   0.677 -1.2189 -0.1808  0.2044
  123MOL    C3817362   4.942   3.440   0.528 -0.1433 -0.1670 -0.4962
  123MOL    C3917363   5.041   3.536   0.479  0.6933  0.4593 -0.6271
  123MOL    N4017364   5.119   3.611   0.442 -0.2698 -0.0294  0.7602
  123MOL    H4117365   5.013   3.480   0.732 -0.6972  0.9482 -1.0604
  123MOL    H4217366   4.910   3.361   0.725  0.7768  0.3315  1.7948
  123MOL    H4317367   4.854   3.469   0.470 -1.3328  0.3637  1.5155
  123MOL    C4417368   4.970   3.290   0.496  0.6809 -0.8643  0.2253
  123MOL    C4517369   5.056   3.257   0.367  0.5183  0.2378 -0.1334
  123MOL    C4617370   5.198   3.261   0.397 -0.3570  0.7177 -0.0420
  123MOL    N4717371   5.312   3.262   0.417  0.8426 -0.1654 -0.3665
  123MOL    H4817372   5.032   3.246   0.574  1.7040  0.2239  0.0388
  123MOL    H4917373   4.876   3.234   0.499  0.9237 -1.3722 -1.0068
  123MOL    H5017374   5.036   3.342   0.303 -1.0034  0.5623  0.7376
  123MOL    C5117375   5.022   3.117   0.311  0.1744 -0.2753  0.2082
  123MOL    C5217376   4.883   3.117   0.243  0.7037 -0.7432 -0.2521
  123MOL    C5317377   4.882   3.203   0.122  0.4322 -0.0084 -0.8302
  123MOL    N5417378   4.887   3.265   0.022 -0.7039 -0.0126 -0.3460
  123MOL    H5517379   5.106   3.080   0.253 -0.1829  0.2232 -0.6271
  123MOL    H5617380   5.008   3.046   0.394 -1.2615 -0.3686 -0.1003
  123MOL    H5717381   4.821   3.165   0.318  1.5544 -1.4271  0.9026
  123MOL    C5817382   4.818   2.982   0.210 -0.5243 -0.1910 -0.5050
  123MOL    C5917383   4.672   2.953   0.211 -0.0958 -0.7508 -0.3721
  123MOL    C6017384   4.610   2.983   0.334 -0.5842 -0.2368  0.4608
  123MOL    N6117385   4.555   3.010   0.432  0.3917  0.6268 -0.4157
  123MOL    H6217386   4.862   2.945   0.118 -0.9641  1.8764 -1.5736
  123MOL    H6317387   4.856   2.907   0.280  1.8088  1.4815  0.0750
  123MOL    H6417388   4.659   2.845   0.206 -0.6066 -0.7134  0.0706
  123MOL    C6517389   4.606   3.028   0.092 -0.0657  0.1932 -0.0140
  123MOL    C6617390   4.667   2.989   8.265  0.0201 -0.0391 -0.5167
  123MOL    C6717391   4.663   2.847   8.248  0.3297  0.3111 -0.1993
  123MOL    N6817392   4.658   2.728   8.238 -0.2170 -0.3355  0.4144
  123MOL    H6917393   4.508   2.980   0.090 -0.2035  0.5058 -0.8915
  123MOL    H7017394   4.600   3.137   0.097 -0.0426  0.1899  0.1073
  123MOL    H7117395   4.770   3.022   8.253  1.1388 -2.6147  1.4637
  123MOL    C7217396   4.593   3.069   8.156  0.7790 -0.2028  0.4085
  123MOL    C7317397   4.647   3.075   8.006 -0.3577 -0.5220 -0.8128
  123MOL    C7417398   4.644   2.943   7.951  0.0716 -0.1759  1.0224
  123MOL    N7517399   4.645   2.834   7.907  0.2306 -0.3315  0.2046
  123MOL    H7617400   4.485   3.070   8.168  0.9121 -0.6948  1.7590
  123MOL    H7717401   4.611   3.171   8.190 -0.9090  0.2809 -0.0974
  123MOL    H7817402   4.753   3.100   8.009 -0.4114 -0.3771 -0.0876
  123MOL    C7917403   4.565   3.171   7.921 -0.4491  0.3051  0.2818
  123MOL    C8017404   4.645   3.293   7.881 -0.2725 -0.2456  0.2951
  123MOL    C8117405   4.574   3.377   7.781 -0.3213 -0.6856  0.0225
  123MOL    N8217406   4.512   3.441   7.703 -0.6733  0.2918 -0.6244
  123MOL    H8317407   4.535   3.123   7.828  0.1864  0.2460  0.1042
  123MOL    H8417408   4.474   3.202   7.973 -1.2186 -1.5043  0.0531
  123MOL    H8517409   4.719   3.253   7.812 -0.7902 -0.9943  0.1551
  123MOL    C8617410   4.721   3.363   7.995  0.2214  0.7012 -0.2324
  123MOL    C8717411   4.791   3.491   7.952 -0.1816 -0.3315 -0.3212
  123MOL    C8817412   4.783   3.589   8.061  0.3645  0.6748  0.7616
  123MOL    N8917413   4.781   3.664   8.146  0.6292  0.2182  0.3352
  123MOL    H9017414   4.647   3.390   8.070  0.2328  0.5988 -0.1825
  123MOL    H9117415   4.792   3.303   8.053  0.5768  1.8320  0.5215
  123MOL    H9217416   4.742   3.541   7.868 -0.0324 -1.6953 -1.2368
  123MOL    C9317417   4.941   3.476   7.919  0.6703  0.4818  1.2144
  123MOL    C9417418   4.984   3.553   7.796 -0.3470 -0.1093 -0.3814
  123MOL    C9517419   4.988   3.695   7.819  0.2229 -0.0206 -0.1952
  123MOL    N9617420   4.990   3.813   7.822  0.0549 -0.1651  0.1620
  123MOL    H9717421   4.993   3.510   8.008 -0.0653  3.5276  0.5589
  123MOL    H9817422   4.969   3.372   7.904 -3.0979 -0.4389 -0.0053
  123MOL    H9917423   4.902   3.535   7.727  2.1635  1.0687 -3.8363
  123MOL   C10017424   5.119   3.504   7.735 -0.1692 -0.1976  0.2925
  123MOL   C10117425   5.235   3.541   7.817 -0.5789 -0.5373 -0.3485
  123MOL   C10217426   5.229   3.494   7.957 -0.1913 -0.2680  0.0765
  123MOL   N10317427   5.231   3.459   8.070 -0.4474 -0.8712 -1.0710
  123MOL   H10417428   5.117   3.398   7.709  0.3599  0.3247 -1.9770
  123MOL   H10517429   5.118   3.555   7.638  0.7146 -1.8941 -0.6373
  123MOL   H10617430   5.225   3.646   7.845 -0.7379 -1.1706  2.0902
  123MOL   C10717431   5.370   3.518   7.744 -0.0186 -0.5023 -0.9893
  123MOL   C10817432   5.493   3.570   7.818 -0.5983 -0.6907  0.4684
  123MOL   C10917433   5.468   3.703   7.869  0.3536  0.3719 -0.7304
  123MOL   N11017434   5.442   3.808   7.916  0.1276  0.1974 -0.2438
  123MOL   H11117435   5.391   3.416   7.714 -0.3285 -0.3771 -1.6634
  123MOL   H11217436   5.367   3.577   7.652 -0.0800  2.0187  0.5886
  123MOL   H11317437   5.577   3.587   7.750 -1.0029  0.0603  0.1543
  123MOL   C11417438   5.544   3.466   7.926 -0.8070  0.5647  0.2062
  123MOL   C11517439   5.695   3.441   7.910 -0.4452  0.2704 -0.3491
  123MOL   C11617440   5.764   3.574   7.895 -0.1595 -0.2875  0.3327
  123MOL   N11717441   5.826   3.675   7.878  0.0018  0.2581 -0.0343
  123MOL   H11817442   5.513   3.502   8.024 -0.4337 -0.8105  0.8430
  123MOL   H11917443   5.500   3.367   7.910  0.7669  0.0780 -1.3256
  123MOL   H12017444   5.709   3.383   7.819  0.6498  0.9157 -0.5993
  123MOL   C12117445   5.763   3.366   8.027 -0.9194 -0.2977 -0.4865
  123MOL   C12217446   5.752   3.440   8.161  0.0850 -0.4270 -1.0817
  123MOL   C12317447   5.646   3.382   8.244 -0.1522  0.5222  0.1195
  123MOL   N12417448   5.565   3.338   8.312  0.0859  0.1575  0.3625
  123MOL   H12517449   5.720   3.267   8.043 -2.2659  0.1630 -1.2136
  123MOL   H12617450   5.865   3.342   7.996 -0.2644  0.3224  1.1408
  123MOL   H12717451   5.723   3.543   8.143 -0.1665  0.1161  2.1317
  123MOL   C12817452   5.882   3.444   8.243  0.7032 -0.1006 -0.1668
  123MOL   C12917453   5.872   3.551   0.046 -1.0485 -0.7886 -0.4011
  123MOL   C13017454   5.836   3.504   0.180 -0.2370  0.0019 -0.2766
  123MOL   N13117455   5.803   3.474   0.291 -0.3745 -0.7343  1.1444
  123MOL   H13217456   5.888   3.349   8.297 -0.6765  0.4630  1.0035
  123MOL   H13317457   5.964   3.444   8.171  0.4201  0.9565 -0.4922
  123MOL   H13417458   5.787   3.619   0.041 -1.4314 -1.2529 -0.1944
  123MOL   C13517459   5.995   3.635   0.031 -0.3060  0.1274 -0.0617
  123MOL   C13617460   6.134   3.564   0.043 -0.0316 -0.5626 -0.4373
  123MOL   C13717461   6.235   3.648   8.285  0.8789 -0.1926  0.8586
  123MOL   N13817462   6.314   3.710   8.235  0.5872 -0.6164  0.3999
  123MOL   H13917463   5.973   3.696   8.256 -1.0636 -0.9533 -0.6332
  123MOL   H14017464   6.000   3.690   0.125  4.1177  0.5575 -0.4010
  123MOL   H14117465   6.131   3.468   8.305 -0.1964 -0.5773 -0.4008
  123MOL   H14217466   6.169   3.557   0.146 -0.5325  0.4872 -0.1881
  124MOL     C117467   2.339   0.781   2.664 -0.1678  0.8590  0.1803
  124MOL     C217468   2.470   0.733   2.596 -0.8178  0.3409  0.0360
  124MOL     C317469   2.593   0.784   2.657  0.3866 -0.4409  0.3838
  124MOL     N417470   2.687   0.831   2.707  0.5159 -0.2304  0.6135
  124MOL     H517471   2.305   0.736   2.758  0.6311  0.2596  0.1902
  124MOL     H617472   2.254   0.762   2.598  0.3007 -0.2093 -0.1253
  124MOL     H717473   2.476   0.783   2.499  0.9853  1.2448  0.5900
  124MOL     H817474   2.342   0.888   2.685 -0.3121  0.7246  0.9224
  124MOL     C917475   2.463   0.579   2.584  1.0728  0.0102 -0.2313
  124MOL    C1017476   2.560   0.506   2.493  0.2526  0.5615 -0.6266
  124MOL    C1117477   2.598   0.375   2.554 -0.6749  0.1196  0.7747
  124MOL    N1217478   2.625   0.275   2.602 -0.0808  0.2201  0.5692
  124MOL    H1317479   2.468   0.532   2.683 -0.9342 -0.0639 -0.1450
  124MOL    H1417480   2.365   0.541   2.554 -0.2704  2.0964  1.3336
  124MOL    H1517481   2.654   0.558   2.475  0.2673  1.0833  0.8653
  124MOL    C1617482   2.517   0.499   2.347 -0.0378  1.2995  1.1903
  124MOL    C1717483   2.626   0.437   2.257 -0.0046 -0.0901 -0.2179
  124MOL    C1817484   2.560   0.385   2.138  0.5525 -0.1818  0.1199
  124MOL    N1917485   2.510   0.342   2.039 -0.0806 -0.0782 -0.5919
  124MOL    H2017486   2.435   0.427   2.351  1.3463 -0.3603  0.4684
  124MOL    H2117487   2.469   0.587   2.305 -1.6382 -1.0591 -2.1495
  124MOL    H2217488   2.665   0.355   2.317 -0.2405  0.1045  0.2089
  124MOL    C2317489   2.723   0.547   2.221  0.1456 -0.9952 -0.2708
  124MOL    C2417490   2.846   0.519   2.126 -0.2591 -0.5652  0.7745
  124MOL    C2517491   2.895   0.379   2.116 -0.2512 -0.1072 -0.0442
  124MOL    N2617492   2.933   0.269   2.095  0.2403  0.1537 -0.8284
  124MOL    H2717493   2.669   0.635   2.188 -1.1163 -0.8191  2.1780
  124MOL    H2817494   2.773   0.584   2.311 -1.8826 -0.9285  0.8402
  124MOL    H2917495   2.933   0.569   2.168 -0.5142  0.8728 -0.3916
  124MOL    C3017496   2.824   0.574   1.979 -0.9501  0.2632 -0.7513
  124MOL    C3117497   2.809   0.730   1.977  0.3243  0.1569 -0.1735
  124MOL    C3217498   2.907   0.793   2.054 -0.6669  0.8219 -0.1119
  124MOL    N3317499   2.992   0.837   2.120 -0.0214  0.1739 -0.1256
  124MOL    H3417500   2.916   0.545   1.928  0.0902  3.5038 -0.8895
  124MOL    H3517501   2.745   0.518   1.930  0.9724 -2.6648 -0.5989
  124MOL    H3617502   2.719   0.766   2.026 -0.1820 -0.1734 -0.8536
  124MOL    C3717503   2.798   0.771   1.830 -0.3874 -0.4026  0.2416
  124MOL    C3817504   2.711   0.889   1.796  1.1772 -0.1709  0.5503
  124MOL    C3917505   2.753   1.022   1.852 -0.6266  0.1699 -0.6359
  124MOL    N4017506   2.786   1.128   1.886 -0.4602 -0.3464  0.0086
  124MOL    H4117507   2.897   0.804   1.799 -0.3234  1.7949  2.5999
  124MOL    H4217508   2.761   0.688   1.771 -1.5466  1.0698 -1.1596
  124MOL    H4317509   2.617   0.864   1.846  1.1851 -0.1323  0.5835
  124MOL    C4417510   2.663   0.897   1.650 -0.3333  0.2838  0.1151
  124MOL    C4517511   2.746   0.981   1.552  0.0385 -0.0607  0.2246
  124MOL    C4617512   2.890   0.989   1.587  0.0780  0.4960 -0.2968
  124MOL    N4717513   3.002   0.999   1.619  0.2920  0.1872  0.0194
  124MOL    H4817514   2.643   0.800   1.604  1.8860  0.2004 -0.7070
  124MOL    H4917515   2.567   0.949   1.650 -0.3048  0.3350  0.4724
  124MOL    H5017516   2.718   1.086   1.559 -0.9717 -0.3718  1.0426
  124MOL    C5117517   2.740   0.931   1.406 -0.1174 -0.2729 -0.2910
  124MOL    C5217518   2.594   0.924   1.346  0.0883 -0.5721  0.2794
  124MOL    C5317519   2.499   1.028   1.397  0.1398 -0.4268  0.1686
  124MOL    N5417520   2.430   1.109   1.442  0.0204 -0.5989 -0.0759
  124MOL    H5517521   2.800   1.002   1.349 -0.0334  0.7190  0.9819
  124MOL    H5617522   2.799   0.840   1.399  1.0070  0.4165  0.0131
  124MOL    H5717523   2.553   0.832   1.388 -0.8749  0.5168  1.7644
  124MOL    C5817524   2.613   0.912   1.191 -0.2931  0.1073  0.5524
  124MOL    C5917525   2.599   1.050   1.113  0.1897  0.7817  0.0772
  124MOL    C6017526   2.663   1.164   1.184 -1.0306 -0.4422  0.5049
  124MOL    N6117527   2.711   1.249   1.241  0.3736 -0.3004  0.6025
  124MOL    H6217528   2.707   0.869   1.158  0.8770  2.1994  1.0803
  124MOL    H6317529   2.539   0.843   1.151 -0.8321  0.2971  1.2188
  124MOL    H6417530   2.493   1.072   1.119  0.0677 -0.5559  4.2109
  124MOL    C6517531   2.636   1.042   0.964 -0.2588  0.6011 -0.4715
  124MOL    C6617532   2.553   0.951   0.864  0.4453 -0.0984  0.0204
  124MOL    C6717533   2.407   0.938   0.904  0.0493 -0.1239  0.5299
  124MOL    N6817534   2.297   0.928   0.942  0.0137 -0.2301  0.5465
  124MOL    H6917535   2.629   1.142   0.922 -3.0882 -0.5020 -2.8014
  124MOL    H7017536   2.741   1.013   0.959 -0.0595  0.9904  1.0964
  124MOL    H7117537   2.585   0.847   0.877 -0.0550 -0.5004 -1.7878
  124MOL    C7217538   2.568   1.002   0.717 -0.0014  0.0728  0.2801
  124MOL    C7317539   2.715   1.005   0.663 -0.7331 -0.2213 -0.0808
  124MOL    C7417540   2.785   0.875   0.700  0.4103 -0.6806  0.2453
  124MOL    N7517541   2.837   0.779   0.736 -0.6177  0.3104  0.9990
  124MOL    H7617542   2.500   0.939   0.660  1.1028 -0.2237 -0.7293
  124MOL    H7717543   2.533   1.104   0.726 -3.5091 -0.9466 -1.2092
  124MOL    H7817544   2.775   1.077   0.718 -4.4845  1.6416  1.8280
  124MOL    C7917545   2.734   1.028   0.513 -0.1850  0.0149 -0.7866
  124MOL    C8017546   2.721   1.176   0.470 -0.5520 -0.5748  0.1955
  124MOL    C8117547   2.836   1.252   0.507 -0.2669 -0.4310  0.2055
  124MOL    N8217548   2.931   1.315   0.532  0.0694 -0.2396 -0.4435
  124MOL    H8317549   2.837   1.000   0.490  0.3072  0.9607  0.2220
  124MOL    H8417550   2.665   0.964   0.457 -0.7658  0.6569 -0.8092
  124MOL    H8517551   2.629   1.211   0.517 -0.9711 -0.7225 -0.4984
  124MOL    C8617552   2.682   1.199   0.327 -0.3503 -0.1554  0.4834
  124MOL    C8717553   2.535   1.173   0.286  0.0577  0.3722 -0.3792
  124MOL    C8817554   2.433   1.205   0.387  0.1412 -0.4686  0.5004
  124MOL    N8917555   2.360   1.235   0.472 -0.1575  0.8713 -0.4533
  124MOL    H9017556   2.701   1.306   0.317 -0.7240 -0.0888  0.4939
  124MOL    H9117557   2.754   1.146   0.264  1.3430  2.5773  0.0083
  124MOL    H9217558   2.531   1.065   0.271  3.3514 -0.2611  2.6013
  124MOL    C9317559   2.507   1.237   0.146  0.0163  0.2097 -0.1885
  124MOL    C9417560   2.365   1.252   0.094 -0.1481 -0.1082 -0.5248
  124MOL    C9517561   2.308   1.372   0.148 -0.4656 -0.6591  0.3574
  124MOL    N9617562   2.269   1.472   0.190 -0.3622  0.0696  0.3895
  124MOL    H9717563   2.557   1.334   0.151  0.4538  0.0935 -2.1200
  124MOL    H9817564   2.566   1.187   0.069  1.9752 -0.0550  1.4108
  124MOL    H9917565   2.301   1.170   0.128  0.4747 -1.0529 -1.6080
  124MOL   C10017566   2.348   1.235   8.251 -0.1399 -0.3743 -0.1489
  124MOL   C10117567   2.412   1.115   8.187 -0.0812  0.2710 -0.3734
  124MOL   C10217568   2.404   0.999   8.275  0.0264  0.2430 -0.1505
  124MOL   N10317569   2.390   0.911   0.034 -0.9748 -0.0162  0.0945
  124MOL   H10417570   2.240   1.235   8.239  0.0237  0.6660 -1.9059
  124MOL   H10517571   2.377   1.328   8.201  0.5388 -0.3544  0.2812
  124MOL   H10617572   2.518   1.138   8.176  0.2355 -1.0275 -0.1234
  124MOL   C10717573   2.374   1.092   8.043  0.3659 -0.4030  0.0148
  124MOL   C10817574   2.233   1.035   8.021 -0.1106  0.5012 -0.5073
  124MOL   C10917575   2.135   1.139   8.026 -1.0783 -0.4645  0.7353
  124MOL   N11017576   2.058   1.222   8.028 -0.2924  0.5423 -0.1042
  124MOL   H11117577   2.405   1.180   7.987  1.5520  2.2112  4.5832
  124MOL   H11217578   2.442   1.011   8.017 -0.9309 -1.4575 -0.1956
  124MOL   H11317579   2.214   0.973   8.108  1.2580 -0.5167 -0.9100
  124MOL   C11417580   2.210   0.943   7.892  0.3536  0.5556  0.2121
  124MOL   C11517581   2.227   1.011   7.753 -0.6783 -0.5518 -0.1432
  124MOL   C11617582   2.349   1.095   7.740  0.2780 -0.0745  0.2230
  124MOL   N11717583   2.442   1.159   7.724 -0.0776  0.2398 -0.1231
  124MOL   H11817584   2.273   0.854   7.900 -0.7025 -0.0268  2.4251
  124MOL   H11917585   2.105   0.912   7.895  0.6993 -0.7149 -0.4669
  124MOL   H12017586   2.142   1.076   7.736  1.9026  2.6959 -1.2381
  124MOL   C12117587   2.248   0.902   7.641 -0.6261 -0.0189 -0.0353
  124MOL   C12217588   2.125   0.842   7.568 -0.0984 -0.4993  0.4834
  124MOL   C12317589   2.145   0.787   7.433  0.6098  0.1746 -0.2020
  124MOL   N12417590   2.162   0.738   7.330 -0.0781  0.0123  0.3927
  124MOL   H12517591   2.297   0.962   7.564 -1.7380 -1.4768 -1.9133
  124MOL   H12617592   2.320   0.832   7.684 -0.9331 -0.6798 -0.5873
  124MOL   H12717593   2.072   0.936   7.547  0.5832 -0.1492  0.3322
  124MOL   C12817594   2.041   0.750   7.655 -0.1198 -0.3000  0.3958
  124MOL   C12917595   1.897   0.722   7.612 -0.5371  0.0276  0.0209
  124MOL   C13017596   1.845   0.828   7.519 -0.0976  0.4326  0.9249
  124MOL   N13117597   1.802   0.907   7.445 -0.3670  0.1145  0.2600
  124MOL   H13217598   2.095   0.659   7.681 -0.3903 -0.7525 -0.5863
  124MOL   H13317599   2.015   0.805   7.746 -0.3672 -1.2176  0.8835
  124MOL   H13417600   1.831   0.736   7.698 -2.7487 -0.4215 -1.5663
  124MOL   C13517601   1.878   0.576   7.557  0.2299 -0.2263  0.2267
  124MOL   C13617602   1.734   0.521   7.572  0.2386  0.7250  0.2142
  124MOL   C13717603   1.632   0.622   7.604  0.1808 -0.6420 -0.0406
  124MOL   N13817604   1.551   0.702   7.643  0.1247 -0.0363 -0.3246
  124MOL   H13917605   1.909   0.582   7.453  0.3847  1.8177  0.3587
  124MOL   H14017606   1.945   0.502   7.601  1.4305  1.6995  1.7655
  124MOL   H14117607   1.726   0.427   7.627  0.3531 -1.1768 -2.8654
  124MOL   H14217608   1.706   0.485   7.473  0.6533 -0.9981  0.6911
  125MOL     C117609   3.251   7.519   5.670  0.1503  0.1291  0.8424
  125MOL     C217610   3.343   7.407   5.713  0.3759  0.0880  0.5404
  125MOL     C317611   3.285   7.293   5.784  0.2231  0.0828  0.2429
  125MOL     N417612   3.244   7.200   5.838 -0.2599 -0.0405  0.0488
  125MOL     H517613   3.167   7.475   5.615 -0.0078 -1.2133  2.1332
  125MOL     H617614   3.310   7.592   5.615 -1.1902 -1.8279 -3.3867
  125MOL     H717615   3.385   7.450   5.804  0.2865 -0.4569  0.8425
  125MOL     H817616   3.196   7.578   5.743 -1.5124 -0.9001  0.4496
  125MOL     C917617   3.449   7.373   5.608 -0.4043  0.1514 -0.5651
  125MOL    C1017618   3.512   7.234   5.606 -1.3268  0.4405 -0.2282
  125MOL    C1117619   3.584   7.212   5.473  0.6302  0.6317 -0.5270
  125MOL    N1217620   3.638   7.194   5.372 -0.8174 -0.2348  0.0580
  125MOL    H1317621   3.416   7.397   5.507  0.7546 -1.1803 -1.2731
  125MOL    H1417622   3.528   7.448   5.617  0.0360 -0.1804 -1.5634
  125MOL    H1517623   3.431   7.162   5.619 -0.6638 -0.8629 -2.9361
  125MOL    C1617624   3.616   7.196   5.720  0.1576  0.5208  0.6349
  125MOL    C1717625   3.678   7.060   5.708 -0.1084  0.3519  0.4782
  125MOL    C1817626   3.806   7.070   5.646  0.6841  0.3595 -0.2459
  125MOL    N1917627   3.909   7.083   5.589 -0.4230  0.0415  0.5017
  125MOL    H2017628   3.692   7.274   5.721  1.0243 -0.3043  0.8113
  125MOL    H2117629   3.555   7.204   5.810 -0.0311  1.0246  0.4634
  125MOL    H2217630   3.620   7.004   5.634  0.7713  1.4099 -1.0403
  125MOL    C2317631   3.652   6.985   5.841  0.1958  0.6878 -0.0463
  125MOL    C2417632   3.661   6.833   5.844  1.1096  0.4814 -0.3181
  125MOL    C2517633   3.709   6.783   5.973  0.4151  0.3719 -0.0255
  125MOL    N2617634   3.752   6.734   6.068  0.0001  0.7743 -0.4409
  125MOL    H2717635   3.719   7.017   5.921  0.6133  1.8020 -0.8382
  125MOL    H2817636   3.557   7.019   5.881 -0.8000 -0.7417 -1.1256
  125MOL    H2917637   3.752   6.818   5.785 -0.3832 -1.2636 -2.2338
  125MOL    C3017638   3.545   6.738   5.784  0.3045 -0.5990  0.3739
  125MOL    C3117639   3.416   6.711   5.859  0.0129 -0.2973 -0.5305
  125MOL    C3217640   3.430   6.677   5.999 -0.8631 -0.5131  0.2306
  125MOL    N3317641   3.440   6.655   6.115  0.4233 -0.0401 -0.0890
  125MOL    H3417642   3.516   6.776   5.686  0.7631 -1.3107 -0.0410
  125MOL    H3517643   3.597   6.643   5.775 -2.1645 -2.0425  0.9508
  125MOL    H3617644   3.383   6.621   5.806  0.0604 -1.6034  1.5820
  125MOL    C3717645   3.307   6.819   5.818  0.1065 -0.3698  0.0495
  125MOL    C3817646   3.193   6.841   5.920  0.4697 -0.2143 -0.8207
  125MOL    C3917647   3.124   6.713   5.940  0.0276  0.0012  0.3083
  125MOL    N4017648   3.070   6.609   5.954 -0.8862 -0.0736  0.3645
  125MOL    H4117649   3.350   6.916   5.794  0.1751 -0.9555 -2.2962
  125MOL    H4217650   3.271   6.791   5.720  0.8563  1.5212 -0.7846
  125MOL    H4317651   3.118   6.891   5.858  1.0223  0.1101 -1.2322
  125MOL    C4417652   3.223   6.920   6.048 -0.0568 -0.2794  0.2060
  125MOL    C4517653   3.141   6.870   6.171  0.6606 -0.0567 -0.6796
  125MOL    C4617654   3.192   6.931   6.293 -0.6801 -0.5731 -0.9399
  125MOL    N4717655   3.236   6.975   6.395 -0.1244  0.4743 -0.4720
  125MOL    H4817656   3.328   6.903   6.067  1.1327  1.9112 -3.7438
  125MOL    H4917657   3.207   7.028   6.036 -0.4620 -0.3659 -0.0504
  125MOL    H5017658   3.147   6.762   6.175  1.5254 -0.0403 -1.5071
  125MOL    C5117659   2.990   6.908   6.151 -0.7121 -0.3297 -0.4915
  125MOL    C5217660   2.883   6.829   6.229 -0.8223  0.2165 -0.4696
  125MOL    C5317661   2.883   6.851   6.371 -0.3864 -0.3070 -0.0249
  125MOL    N5417662   2.877   6.875   6.484 -0.7249  0.0307  0.5997
  125MOL    H5517663   2.973   7.011   6.184 -1.4171 -0.2934 -0.9423
  125MOL    H5617664   2.966   6.912   6.044 -1.9464  0.1250 -0.2116
  125MOL    H5717665   2.915   6.726   6.215  1.4932  0.8153  0.1499
  125MOL    C5817666   2.744   6.844   6.164  0.0597  0.0373 -0.7495
  125MOL    C5917667   2.636   6.743   6.216 -0.4089 -0.4075 -0.2601
  125MOL    C6017668   2.594   6.756   6.355  0.0008  0.4776 -0.3361
  125MOL    N6117669   2.555   6.751   6.469  0.5948 -0.3131 -0.1446
  125MOL    H6217670   2.696   6.940   6.179  0.2504 -0.0396  0.3736
  125MOL    H6317671   2.753   6.837   6.056  0.3230 -1.1511 -0.6573
  125MOL    H6417672   2.677   6.642   6.212  0.7876  0.1108 -1.2224
  125MOL    C6517673   2.508   6.741   6.129 -0.7621  0.3848 -0.3927
  125MOL    C6617674   2.383   6.666   6.185  0.2095  0.1098  0.6053
  125MOL    C6717675   2.259   6.727   6.131  0.0543  0.4567  0.1557
  125MOL    N6817676   2.162   6.766   6.090  0.4804  0.0789  0.7269
  125MOL    H6917677   2.473   6.839   6.097 -1.5727  0.7856  1.7048
  125MOL    H7017678   2.526   6.702   6.028 -1.5054  1.0627 -0.7883
  125MOL    H7117679   2.364   6.701   6.287 -2.1782 -1.0100  0.5873
  125MOL    C7217680   2.395   6.514   6.162 -0.1503  0.3829  0.7702
  125MOL    C7317681   2.313   6.427   6.267 -1.1706 -0.6269  0.5667
  125MOL    C7417682   2.170   6.421   6.243  0.1508 -0.4157 -0.1920
  125MOL    N7517683   2.055   6.415   6.224 -0.3048 -0.4112  0.7541
  125MOL    H7617684   2.356   6.491   6.063 -2.0433  2.1351  1.0826
  125MOL    H7717685   2.501   6.489   6.164 -0.6104 -1.9880 -2.1012
  125MOL    H7817686   2.334   6.465   6.367  0.4910  1.0935 -0.3925
  125MOL    C7917687   2.367   6.283   6.280 -0.7100 -0.8415 -0.2317
  125MOL    C8017688   2.371   6.196   6.151  0.4961 -0.6932  0.0319
  125MOL    C8117689   2.467   6.244   6.047  0.0814 -0.2456 -0.2823
  125MOL    N8217690   2.546   6.280   5.968 -0.1944  0.6356  0.3384
  125MOL    H8317691   2.469   6.285   6.316 -0.7794 -2.0311  0.0439
  125MOL    H8417692   2.308   6.240   6.361 -0.0825 -1.5916 -0.1693
  125MOL    H8517693   2.270   6.202   6.110  0.3202  0.5193  0.6174
  125MOL    C8617694   2.404   6.042   6.188  0.2380 -0.1626  0.6748
  125MOL    C8717695   2.331   5.939   6.093 -0.0590 -0.4357  0.1548
  125MOL    C8817696   2.365   5.960   5.953 -0.8113  0.0591  0.5209
  125MOL    N8917697   2.391   5.973   5.837 -0.2425 -1.1757  0.3119
  125MOL    H9017698   2.510   6.016   6.193  0.0922 -0.8099  0.3765
  125MOL    H9117699   2.358   6.023   6.285 -1.6191  0.3363 -0.0814
  125MOL    H9217700   2.225   5.960   6.103  0.1198  1.6849 -1.9086
  125MOL    C9317701   2.366   5.786   6.124 -0.1126  0.2679  0.0835
  125MOL    C9417702   2.298   5.736   6.252  0.8986  0.1127 -0.0844
  125MOL    C9517703   2.160   5.764   6.260 -0.0729  0.1798  0.0664
  125MOL    N9617704   2.046   5.776   6.264 -0.5881 -0.3260 -0.2793
  125MOL    H9717705   2.347   5.717   6.042  0.5555 -1.0499  0.9995
  125MOL    H9817706   2.473   5.768   6.139  0.5145  0.8366 -3.3563
  125MOL    H9917707   2.340   5.795   6.334  0.2842  0.7905 -0.2554
  125MOL   C10017708   2.312   5.580   6.275 -0.1631  0.0313 -0.3271
  125MOL   C10117709   2.462   5.530   6.295  0.8268 -0.4839  0.7993
  125MOL   C10217710   2.532   5.627   6.384  0.3119  0.1207  0.1355
  125MOL   N10317711   2.583   5.699   6.454 -0.1706 -0.0981  0.8401
  125MOL   H10417712   2.246   5.538   6.351 -0.6771  1.2719 -0.0855
  125MOL   H10517713   2.274   5.526   6.188 -0.4401 -2.2376  1.1457
  125MOL   H10617714   2.520   5.540   6.203 -0.2209 -1.1175  0.0489
  125MOL   C10717715   2.470   5.388   6.344 -0.3709  0.2190 -0.4983
  125MOL   C10817716   2.459   5.278   6.236  0.1831  0.2739 -0.8612
  125MOL   C10917717   2.559   5.309   6.136  0.0808  0.3934 -0.7080
  125MOL   N11017718   2.639   5.334   6.058 -0.4927  0.0596  0.9023
  125MOL   H11117719   2.553   5.362   6.410 -0.9905 -1.3644 -0.3123
  125MOL   H11217720   2.390   5.376   6.417  1.2873  1.7770  1.6490
  125MOL   H11317721   2.360   5.267   6.190 -0.4331  0.8275  0.3109
  125MOL   C11417722   2.498   5.134   6.285  0.2057 -0.7573 -0.0170
  125MOL   C11517723   2.404   5.059   6.387  0.5072 -0.3836 -0.1528
  125MOL   C11617724   2.257   5.077   6.359  0.3659  0.6689  0.2160
  125MOL   N11717725   2.144   5.097   6.330 -0.0564  0.2047  0.2915
  125MOL   H11817726   2.501   5.064   6.201 -1.5835  2.0074 -2.4818
  125MOL   H11917727   2.602   5.143   6.318  0.0528  1.0618  0.0395
  125MOL   H12017728   2.406   5.105   6.486 -0.0119 -1.8938  0.5770
  125MOL   C12117729   2.446   4.908   6.376  0.1541 -0.0672 -0.0014
  125MOL   C12217730   2.433   4.827   6.505  0.1754 -0.4912 -0.6256
  125MOL   C12317731   2.302   4.856   6.565  0.1237  0.0151 -0.1169
  125MOL   N12417732   2.197   4.886   6.606  0.0104  0.2757 -0.2835
  125MOL   H12517733   2.398   4.856   6.292  0.3249 -1.3878  0.7044
  125MOL   H12617734   2.551   4.903   6.347  0.5462 -0.0953  1.4174
  125MOL   H12717735   2.503   4.856   6.583 -1.1823  2.1486 -0.3370
  125MOL   C12817736   2.459   4.678   6.496 -0.1315  0.1424  0.4555
  125MOL   C12917737   2.587   4.638   6.408  0.6292 -0.5259 -0.5606
  125MOL   C13017738   2.712   4.707   6.451  0.4243  0.3855  0.2738
  125MOL   N13117739   2.809   4.757   6.483  0.0395 -0.7202  0.1958
  125MOL   H13217740   2.464   4.637   6.597  2.1622  1.1381  0.7639
  125MOL   H13317741   2.377   4.625   6.447  0.9653  0.6666 -2.0549
  125MOL   H13417742   2.568   4.674   6.307 -2.7731  0.0144  0.2240
  125MOL   C13517743   2.604   4.482   6.418 -0.8289  0.0320 -0.0334
  125MOL   C13617744   2.637   4.416   6.558  0.5658  0.2858  0.2284
  125MOL   C13717745   2.636   4.271   6.570  0.5276  0.0360 -0.0233
  125MOL   N13817746   2.641   4.157   6.579 -0.6048  0.7632  0.2017
  125MOL   H13917747   2.524   4.430   6.366 -1.2761  0.7864 -0.1054
  125MOL   H14017748   2.693   4.459   6.359 -0.9139 -0.8536  0.1784
  125MOL   H14117749   2.565   4.446   6.634  1.0327 -0.4965  0.9927
  125MOL   H14217750   2.733   4.452   6.594  0.8273 -1.7410  1.6875
  126MOL     C117751   3.581   1.848   3.346  0.5638 -0.3695  0.2875
  126MOL     C217752   3.566   1.834   3.198  0.4804  0.1807  0.1879
  126MOL     C317753   3.463   1.735   3.157  0.4629 -0.3338 -0.5424
  126MOL     N417754   3.375   1.668   3.121 -0.5700  0.9156  0.4721
  126MOL     H517755   3.499   1.900   3.396  0.6383  1.2485 -1.2441
  126MOL     H617756   3.665   1.914   3.368 -0.6327  0.1576  3.6275
  126MOL     H717757   3.658   1.794   3.155  0.4578 -0.4870  0.7567
  126MOL     H817758   3.595   1.752   3.395  0.2510 -1.4582 -1.7092
  126MOL     C917759   3.550   1.977   3.150 -0.0995  0.3593  0.3742
  126MOL    C1017760   3.514   1.990   2.999 -0.3250  0.8119 -0.5823
  126MOL    C1117761   3.480   2.131   2.961 -0.5244 -0.0165  1.1978
  126MOL    N1217762   3.450   2.242   2.940 -0.3808 -1.0737 -0.0003
  126MOL    H1317763   3.482   2.036   3.213  1.3953 -0.3525  2.6997
  126MOL    H1417764   3.645   2.030   3.151 -0.6232  1.3241  2.8939
  126MOL    H1517765   3.421   1.933   2.995  1.1017 -1.6039 -0.5373
  126MOL    C1617766   3.611   1.924   2.892  0.7025 -0.7689 -0.0520
  126MOL    C1717767   3.575   1.957   2.750  0.3153 -0.3547  0.3231
  126MOL    C1817768   3.428   1.951   2.722 -0.2884 -0.2800  0.7328
  126MOL    N1917769   3.319   1.947   2.692 -0.5398 -0.2584 -0.0604
  126MOL    H2017770   3.712   1.957   2.916  0.3187 -0.3557  1.0253
  126MOL    H2117771   3.601   1.817   2.913  1.5700 -0.3165  2.8610
  126MOL    H2217772   3.618   1.874   2.694  4.2568  1.3861  0.5979
  126MOL    C2317773   3.632   2.084   2.686  0.7859  0.7411 -0.3455
  126MOL    C2417774   3.654   2.083   2.533 -0.3460 -0.1897  0.2832
  126MOL    C2517775   3.639   2.217   2.481 -0.2511  0.0714 -0.3203
  126MOL    N2617776   3.620   2.322   2.439 -0.1767 -0.7242 -0.6546
  126MOL    H2717777   3.559   2.160   2.714  0.8763  0.7479 -0.1247
  126MOL    H2817778   3.725   2.111   2.736  1.4751 -2.3077  0.1276
  126MOL    H2917779   3.582   2.022   2.478  0.4693  1.6717 -2.9901
  126MOL    C3017780   3.793   2.027   2.499  0.0521 -0.2993 -0.2279
  126MOL    C3117781   3.823   2.006   2.343  1.1370  0.6109  0.4627
  126MOL    C3217782   3.816   2.124   2.255  0.0841 -0.1067  0.7995
  126MOL    N3317783   3.809   2.219   2.191 -1.1733  0.6283  0.6737
  126MOL    H3417784   3.877   2.085   2.537 -2.5742  2.9343  0.8114
  126MOL    H3517785   3.795   1.932   2.553  4.2163 -0.5108 -0.6240
  126MOL    H3617786   3.744   1.939   2.309  3.4851 -0.5515 -2.9314
  126MOL    C3717787   3.954   1.931   2.326  0.0707  0.3255 -0.3342
  126MOL    C3817788   3.963   1.836   2.203  0.6176 -0.2720 -0.2641
  126MOL    C3917789   3.965   1.904   2.064  1.2475  0.5250 -0.0624
  126MOL    N4017790   3.966   1.956   1.962 -0.3993 -0.1053  0.6470
  126MOL    H4117791   4.033   2.005   2.317  1.6417 -1.0785  1.3954
  126MOL    H4217792   3.980   1.880   2.419  3.0999 -0.4789 -1.5578
  126MOL    H4317793   3.878   1.768   2.206  0.5760 -0.1741  1.5207
  126MOL    C4417794   4.080   1.740   2.225 -0.4779 -0.9231  0.6180
  126MOL    C4517795   4.219   1.823   2.223  0.3574  0.0010 -0.2147
  126MOL    C4617796   4.273   1.833   2.365 -0.1878  0.4046 -0.9602
  126MOL    N4717797   4.324   1.842   2.468  0.1328  0.5173  0.3607
  126MOL    H4817798   4.073   1.681   2.317 -0.1366 -1.4390  0.3122
  126MOL    H4917799   4.066   1.664   2.149 -0.3330 -0.9035  0.5725
  126MOL    H5017800   4.199   1.924   2.188 -3.7286 -0.2389  1.0865
  126MOL    C5117801   4.322   1.766   2.121  0.4024 -0.0052  0.0526
  126MOL    C5217802   4.302   1.776   1.967  0.4819  0.3139 -0.1957
  126MOL    C5317803   4.182   1.709   1.917 -0.2014  0.5809  0.2057
  126MOL    N5417804   4.089   1.649   1.879 -0.4860 -0.6826  0.0175
  126MOL    H5517805   4.420   1.803   2.150 -0.1315 -0.1734  2.1537
  126MOL    H5617806   4.331   1.658   2.132  0.8516  0.2794  2.6830
  126MOL    H5717807   4.384   1.724   1.917  1.2747  1.0047  0.3766
  126MOL    C5817808   4.307   1.925   1.920 -0.7152 -0.5063 -0.4392
  126MOL    C5917809   4.316   1.956   1.765  0.2836  0.3687 -0.0363
  126MOL    C6017810   4.311   1.825   1.688  0.1784 -0.4506  0.0857
  126MOL    N6117811   4.303   1.727   1.630  0.6313 -0.0727  0.6490
  126MOL    H6217812   4.224   1.974   1.971 -0.1155  1.3856 -1.2276
  126MOL    H6317813   4.392   1.975   1.967 -0.4502 -0.4700 -0.9555
  126MOL    H6417814   4.415   1.989   1.731  2.0044 -3.9236  0.4852
  126MOL    C6517815   4.196   2.047   1.719 -0.2691 -0.4455 -0.5769
  126MOL    C6617816   4.174   2.060   1.567  0.3807  0.0889 -0.0388
  126MOL    C6717817   4.099   1.939   1.515 -0.5456 -0.2555  0.0713
  126MOL    N6817818   4.044   1.847   1.480  0.2742  0.0072 -0.5693
  126MOL    H6917819   4.096   2.016   1.749  0.3048 -1.0769  0.7323
  126MOL    H7017820   4.201   2.143   1.772  1.0263 -1.5408  1.3921
  126MOL    H7117821   4.271   2.061   1.517 -0.3036 -0.7488 -1.4185
  126MOL    C7217822   4.087   2.186   1.533 -0.3922 -0.8673  0.0544
  126MOL    C7317823   4.043   2.201   1.386  0.2380  0.3186  0.2666
  126MOL    C7417824   3.931   2.297   1.370 -0.1708 -0.3522  0.5977
  126MOL    N7517825   3.844   2.370   1.359 -0.1191  0.0985  0.5358
  126MOL    H7617826   3.997   2.183   1.594  0.8027 -2.3551  1.7873
  126MOL    H7717827   4.136   2.275   1.571 -1.0066  0.8829 -3.0088
  126MOL    H7817828   4.019   2.102   1.348  2.1798  1.0679 -3.1543
  126MOL    C7917829   4.154   2.247   1.283 -0.0156 -0.1824 -0.1730
  126MOL    C8017830   4.111   2.249   1.128 -0.7117  0.1812 -0.0562
  126MOL    C8117831   4.003   2.146   1.108  0.2666 -0.1763 -0.0216
  126MOL    N8217832   3.916   2.074   1.096 -0.2708 -0.1304 -0.0415
  126MOL    H8317833   4.181   2.350   1.302 -0.0157 -0.2025 -0.0669
  126MOL    H8417834   4.243   2.186   1.300 -0.7613 -2.2860 -3.2679
  126MOL    H8517835   4.194   2.218   1.063 -1.8000 -2.9492 -0.0660
  126MOL    C8617836   4.071   2.385   1.085  0.1776 -0.2582 -0.3927
  126MOL    C8717837   4.186   2.475   1.040 -0.6387 -0.0206 -0.7265
  126MOL    C8817838   4.258   2.428   0.923  0.7478  0.3482  0.0079
  126MOL    N8917839   4.318   2.383   0.837  0.5634  0.4553  0.0888
  126MOL    H9017840   4.001   2.366   1.004 -1.0187 -1.8270  0.9966
  126MOL    H9117841   4.003   2.428   1.158  0.4562  0.1477 -0.3700
  126MOL    H9217842   4.258   2.478   1.121 -1.2248  1.9434 -0.2374
  126MOL    C9317843   4.136   2.621   1.009 -0.1384  0.4765  0.0404
  126MOL    C9417844   4.065   2.706   1.121  0.0464  0.2226 -0.2442
  126MOL    C9517845   4.168   2.748   1.212 -0.3484 -0.3537  0.3867
  126MOL    N9617846   4.262   2.769   1.275  0.8068 -0.7287  0.1985
  126MOL    H9717847   4.221   2.679   0.974 -0.8744  0.5417 -1.6850
  126MOL    H9817848   4.054   2.612   0.939 -0.2892  0.2981  0.2388
  126MOL    H9917849   3.990   2.644   1.171  0.9654 -1.4751 -0.9503
  126MOL   C10017850   4.002   2.823   1.056 -0.0716  0.0760  0.0027
  126MOL   C10117851   3.991   2.948   1.137  0.3785 -0.5268 -0.0212
  126MOL   C10217852   3.960   3.071   1.058  0.6552  0.3210 -0.0089
  126MOL   N10317853   3.942   3.164   0.996 -0.3430 -0.2798 -0.1018
  126MOL   H10417854   4.045   2.850   0.960 -0.4262  3.4399  0.7320
  126MOL   H10517855   3.901   2.797   1.023  0.1828 -0.7648 -0.1200
  126MOL   H10617856   4.088   2.977   1.177 -0.5712  2.5577  0.1450
  126MOL   C10717857   3.898   2.941   1.259  0.0828  0.3322  0.0407
  126MOL   C10817858   3.750   2.977   1.227 -0.5974  0.2704 -0.4748
  126MOL   C10917859   3.681   2.861   1.176  0.7227 -0.0447 -0.5137
  126MOL   N11017860   3.625   2.773   1.123 -0.2191  0.0310 -0.0852
  126MOL   H11117861   3.892   2.838   1.293 -1.4854  0.4999  0.3075
  126MOL   H11217862   3.948   2.991   1.341  0.0001 -1.7970  1.4270
  126MOL   H11317863   3.735   3.045   1.143  0.8280 -1.7515 -2.4245
  126MOL   C11417864   3.680   3.035   1.360 -0.0558 -0.0602 -0.4575
  126MOL   C11517865   3.671   3.187   1.378 -1.0222  0.0124 -0.0347
  126MOL   C11617866   3.803   3.260   1.379  0.2984  0.4389 -0.2309
  126MOL   N11717867   3.901   3.324   1.376 -1.1053 -0.6888 -0.3720
  126MOL   H11817868   3.584   2.983   1.368  0.6400 -1.0522  1.9345
  126MOL   H11917869   3.740   2.993   1.441 -1.0896  0.9292  0.8528
  126MOL   H12017870   3.614   3.191   1.471  0.2233 -2.5056  0.8752
  126MOL   C12117871   3.579   3.252   1.274 -0.0222 -0.3333 -0.4227
  126MOL   C12217872   3.441   3.187   1.258  0.0600 -0.0430  0.4614
  126MOL   C12317873   3.376   3.168   1.388 -0.8982 -0.0283 -0.6595
  126MOL   N12417874   3.319   3.167   1.489 -0.7743  0.4008 -0.2629
  126MOL   H12517875   3.580   3.354   1.312  0.7594 -0.5338  0.1129
  126MOL   H12617876   3.644   3.259   1.187  0.9241  0.8344  0.3522
  126MOL   H12717877   3.440   3.090   1.208 -1.4133  1.0853 -1.8168
  126MOL   C12817878   3.346   3.281   1.173 -0.1174  0.2075  0.5558
  126MOL   C12917879   3.417   3.348   1.043  0.8730 -0.0547 -0.3404
  126MOL   C13017880   3.501   3.244   0.973  0.6113 -0.0399 -0.2022
  126MOL   N13117881   3.569   3.167   0.925  0.1532  1.2108  0.3235
  126MOL   H13217882   3.264   3.216   1.145 -0.2702  0.3406  0.6902
  126MOL   H13317883   3.298   3.358   1.234 -1.7849 -0.0435 -0.4224
  126MOL   H13417884   3.476   3.426   1.090  2.9129 -0.2144 -2.5249
  126MOL   C13517885   3.316   3.421   0.952 -0.3705 -0.1264  0.2700
  126MOL   C13617886   3.373   3.546   0.892  0.1499 -0.0229 -0.4055
  126MOL   C13717887   3.275   3.639   0.828 -0.1403 -0.2820 -0.2730
  126MOL   N13817888   3.195   3.717   0.787 -0.5564 -0.4017  0.3862
  126MOL   H13917889   3.276   3.356   0.874 -1.3635  1.6065 -0.6974
  126MOL   H14017890   3.225   3.435   1.011 -0.5628 -0.7123  0.1218
  126MOL   H14117891   3.439   3.502   0.817  2.7562  0.9472  1.2304
  126MOL   H14217892   3.437   3.590   0.968  0.1288 -2.2593  0.9438
  127MOL     C117893   7.909   3.585   7.649 -0.5233  0.1390 -0.0046
  127MOL     C217894   7.936   3.709   7.727 -1.1421  0.0045 -0.1153
  127MOL     C317895   7.815   3.793   7.718  0.0995  0.3235 -0.1200
  127MOL     N417896   7.721   3.858   7.711 -0.3248 -0.0217  0.1123
  127MOL     H517897   8.003   3.531   7.646 -0.1430  0.8144 -0.3643
  127MOL     H617898   7.867   3.597   7.549  0.7190  0.0188 -0.5478
  127MOL     H717899   8.018   3.765   7.682  0.8374 -1.6790  1.3170
  127MOL     H817900   7.839   3.530   7.712 -0.7535 -0.6874 -0.9615
  127MOL     C917901   7.975   3.688   7.873  0.4887  0.3260  1.0210
  127MOL    C1017902   8.117   3.632   7.890  0.4826 -0.5828 -0.7789
  127MOL    C1117903   8.217   3.713   7.828  0.2113  0.7545  0.7757
  127MOL    N1217904   8.301   3.776   7.779  0.0657  0.1839  0.1262
  127MOL    H1317905   7.976   3.791   7.908 -2.3168  0.7058  0.1326
  127MOL    H1417906   7.900   3.634   7.931  0.4958 -0.6602  0.1219
  127MOL    H1517907   8.107   3.531   7.850  1.9101 -0.6489 -1.0049
  127MOL    C1617908   8.140   3.601   8.037  0.1716  0.5074 -1.0983
  127MOL    C1717909   8.256   3.495   8.067 -0.0135  0.0394  0.2345
  127MOL    C1817910   0.069   3.567   8.034 -0.3575 -0.3364 -0.5331
  127MOL    N1917911   0.171   3.616   8.008 -0.3123  0.2302 -0.4305
  127MOL    H2017912   8.139   3.695   8.093 -0.2553 -0.4584  0.5322
  127MOL    H2117913   8.046   3.552   8.065  0.8080 -0.8536 -1.3052
  127MOL    H2217914   8.254   3.412   7.998  1.5314  1.2044 -1.2610
  127MOL    C2317915   8.263   3.448   8.213  0.5831 -0.1252 -0.6921
  127MOL    C2417916   8.215   3.300   8.241  0.1297 -0.1009 -0.0692
  127MOL    C2517917   8.302   3.208   8.160  0.3801 -0.2919 -0.5053
  127MOL    N2617918   0.062   3.142   8.101  0.0324  0.2449 -0.9376
  127MOL    H2717919   0.057   3.457   8.235  0.5122 -0.5543 -0.1877
  127MOL    H2817920   8.218   3.522   8.279  1.6474 -0.1157  0.0252
  127MOL    H2917921   8.115   3.279   8.202 -0.4434  0.9011  0.8174
  127MOL    C3017922   8.216   3.259   0.079 -0.3071 -0.0048  0.1819
  127MOL    C3117923   8.236   3.113   0.121 -0.4298  0.0870 -0.5341
  127MOL    C3217924   8.306   3.093   0.247 -1.0438 -0.3014 -0.1220
  127MOL    N3317925   0.052   3.082   0.352  0.1358 -0.3660  0.0476
  127MOL    H3417926   8.303   3.308   0.125  0.4410  0.3626 -1.5964
  127MOL    H3517927   8.132   3.296   0.137 -2.2186  1.1752 -3.2302
  127MOL    H3617928   8.301   3.057   0.054 -0.8882 -2.5154  1.1486
  127MOL    C3717929   8.109   3.026   0.114  0.6301 -0.3086  0.4905
  127MOL    C3817930   8.029   3.019   0.244 -0.7403 -0.4071  0.0479
  127MOL    C3917931   7.980   3.155   0.289 -0.0621  0.1948  0.2917
  127MOL    N4017932   7.939   3.259   0.325 -0.2024 -0.3212  0.4054
  127MOL    H4117933   8.043   3.067   0.037 -2.2638  1.1535  3.6399
  127MOL    H4217934   8.144   2.928   0.083 -0.4025 -1.3350  2.5758
  127MOL    H4317935   8.100   2.984   0.319 -0.9060 -0.5038  0.1616
  127MOL    C4417936   7.913   2.925   0.227 -0.9735  0.4979  0.0047
  127MOL    C4517937   7.946   2.776   0.196  0.3019  0.0505  0.2109
  127MOL    C4617938   8.058   2.729   0.276  0.4651  0.4451 -0.6752
  127MOL    N4717939   8.146   2.685   0.341  0.5662  0.6233  0.4602
  127MOL    H4817940   7.866   2.928   0.325  1.2569 -0.9179  1.1692
  127MOL    H4917941   7.847   2.964   0.150 -0.3344  0.9286 -0.3305
  127MOL    H5017942   7.990   2.768   0.097 -1.3565 -0.5470 -0.5091
  127MOL    C5117943   7.825   2.684   0.204  0.2246 -0.5269 -0.2006
  127MOL    C5217944   7.863   2.540   0.167 -0.2359  0.4204  0.6214
  127MOL    C5317945   7.746   2.452   0.202 -0.3920  0.5045 -1.0380
  127MOL    N5417946   7.648   2.392   0.228 -0.0848  0.3378 -0.4886
  127MOL    H5517947   7.793   2.680   0.308  1.5040 -0.0875  0.2174
  127MOL    H5617948   7.738   2.716   0.147  1.1303 -1.1889 -1.9741
  127MOL    H5717949   7.919   2.513   0.257 -2.5628  0.0539  1.9939
  127MOL    C5817950   7.935   2.514   0.029 -0.2248  0.3084 -0.1851
  127MOL    C5917951   7.940   2.372   8.279 -0.0335  0.6247 -0.1360
  127MOL    C6017952   7.953   2.271   0.075 -0.3018 -0.4957  0.0153
  127MOL    N6117953   7.965   2.190   0.159 -0.4502  0.0665 -0.0311
  127MOL    H6217954   7.902   2.584   8.265  1.9950 -0.2720 -1.7168
  127MOL    H6317955   8.037   2.539   0.057 -0.7011  1.2247  0.7961
  127MOL    H6417956   8.028   2.373   8.214  0.8618  0.1959  1.0469
  127MOL    C6517957   7.827   2.338   8.184 -0.3765  0.2193 -0.3043
  127MOL    C6617958   7.832   2.418   8.055  0.4912 -0.1286  0.1955
  127MOL    C6717959   7.966   2.407   7.994  0.1064  0.1428 -0.3097
  127MOL    N6817960   8.072   2.408   7.948 -0.6863  0.9783  0.1868
  127MOL    H6917961   7.836   2.233   8.156  0.6735  0.6580 -1.5893
  127MOL    H7017962   7.735   2.345   8.243 -0.9136 -1.6671 -0.8610
  127MOL    H7117963   7.803   2.521   8.077  2.2347  0.5944 -0.8162
  127MOL    C7217964   7.727   2.372   7.946  0.4879  0.3031  0.5580
  127MOL    C7317965   7.766   2.247   7.859  0.4994  0.5648  0.3611
  127MOL    C7417966   7.764   2.118   7.942 -0.5356 -0.2929  0.7141
  127MOL    N7517967   7.764   2.028   8.009 -0.3243 -0.4799 -0.4200
  127MOL    H7617968   7.628   2.362   7.989  0.3289 -0.6547 -0.0173
  127MOL    H7717969   7.721   2.454   7.874 -3.3196  0.6353  1.1559
  127MOL    H7817970   7.864   2.265   7.816 -0.2176 -0.5973 -1.8006
  127MOL    C7917971   7.676   2.257   7.732 -0.2447  0.4806 -0.2654
  127MOL    C8017972   7.685   2.131   7.640  0.5212  0.0876  0.1048
  127MOL    C8117973   7.820   2.069   7.639  0.0392  0.3343 -0.2263
  127MOL    N8217974   7.921   2.023   7.643  0.1552  0.5795  0.0166
  127MOL    H8317975   7.575   2.281   7.765 -0.4107  1.3956 -1.3715
  127MOL    H8417976   7.728   2.339   7.682 -0.9467  2.2176  1.7721
  127MOL    H8517977   7.666   2.161   7.537 -1.5419  2.3282  1.0732
  127MOL    C8617978   7.576   2.028   7.678 -0.2024  0.0465  0.2073
  127MOL    C8717979   7.580   1.892   7.607 -0.7099  0.4434 -0.4249
  127MOL    C8817980   7.680   1.814   7.668  0.7667 -0.0182 -0.3222
  127MOL    N8917981   7.754   1.748   7.728  0.1813 -0.3099  0.0135
  127MOL    H9017982   7.556   2.011   7.784 -1.6513  1.0071  0.1069
  127MOL    H9117983   7.492   2.092   7.651  1.4892  0.8782 -3.4312
  127MOL    H9217984   7.611   1.907   7.503  0.6969  0.4775 -0.0019
  127MOL    C9317985   7.448   1.813   7.618  0.2414  0.4797  0.2594
  127MOL    C9417986   7.318   1.891   7.597  0.0441 -0.4495 -0.5373
  127MOL    C9517987   7.316   1.947   7.461 -0.2948 -0.2857 -0.3489
  127MOL    N9617988   7.302   1.991   7.351  0.1658  0.5442  0.5173
  127MOL    H9717989   7.441   1.721   7.560  0.2164  0.1517  0.7689
  127MOL    H9817990   7.450   1.781   7.723 -1.6791  0.4579  0.3145
  127MOL    H9917991   7.325   1.983   7.655 -2.4811 -1.5964  1.7008
  127MOL   C10017992   7.196   1.813   7.627 -0.5672  1.2837 -0.2691
  127MOL   C10117993   7.064   1.892   7.620 -0.0393 -0.4907  0.3609
  127MOL   C10217994   7.079   2.032   7.658  0.1072  0.7138  0.2924
  127MOL   N10317995   7.093   2.144   7.686 -0.3244  0.4860  0.5644
  127MOL   H10417996   7.190   1.726   7.561 -0.4175  0.5350  0.7007
  127MOL   H10517997   7.194   1.765   7.725  0.0782 -0.5521 -1.1212
  127MOL   H10617998   6.996   1.845   7.691  0.2115 -1.8799 -0.2931
  127MOL   C10717999   6.992   1.888   7.488 -0.1906 -0.2235 -0.3287
  127MOL   C10818000   6.839   1.907   7.495  0.3165  0.5759  0.0382
  127MOL   C10918001   6.771   1.806   7.585  0.1230  1.2246  0.2340
  127MOL   N11018002   6.721   1.723   7.654  0.1739 -0.0783  0.3525
  127MOL   H11118003   7.027   1.966   7.421 -0.5436  0.2541  0.0343
  127MOL   H11218004   7.012   1.790   7.446  0.2905  0.0013 -0.6264
  127MOL   H11318005   6.809   1.892   7.392  1.2679  0.8097 -0.2826
  127MOL   C11418006   6.797   2.053   7.527 -0.4400  0.3715 -0.1121
  127MOL   C11518007   6.652   2.099   7.469  0.0046 -0.2400 -0.3100
  127MOL   C11618008   6.547   2.009   7.506  0.3045  0.9232  0.0194
  127MOL   N11718009   6.466   1.936   7.542  0.2323 -0.1402 -1.1583
  127MOL   H11818010   6.796   2.079   7.633  1.7938 -0.1158  0.0611
  127MOL   H11918011   6.870   2.114   7.474  0.0387 -0.5227 -0.5087
  127MOL   H12018012   6.647   2.088   7.361 -1.4949  1.4973 -0.4465
  127MOL   C12118013   6.636   2.248   7.503 -0.2279  0.7722  0.2356
  127MOL   C12218014   6.528   2.320   7.421  0.5030 -0.2974 -0.0134
  127MOL   C12318015   6.394   2.263   7.402  0.9143  0.5017 -0.3480
  127MOL   N12418016   6.288   2.227   7.391  0.2566  0.2402 -0.0700
  127MOL   H12518017   6.621   2.240   7.611 -0.2671 -0.4573  0.1467
  127MOL   H12618018   6.737   2.287   7.489  0.9233 -1.2110  2.5871
  127MOL   H12718019   6.580   2.300   7.327 -1.3013 -0.2166 -1.0379
  127MOL   C12818020   6.537   2.476   7.420 -0.5021  0.6017  0.2498
  127MOL   C12918021   6.450   2.561   7.518  0.3563 -0.6618 -0.5182
  127MOL   C13018022   6.483   2.528   7.653 -0.0855 -0.0157  0.1338
  127MOL   N13118023   6.508   2.506   7.766  0.3148  0.7765 -0.0816
  127MOL   H13218024   6.644   2.492   7.437  0.1037 -0.3067 -2.4254
  127MOL   H13318025   6.515   2.514   7.320  1.4820 -0.4241 -0.5999
  127MOL   H13418026   6.344   2.541   7.501  0.4638 -1.8654  0.1653
  127MOL   C13518027   6.475   2.710   7.498 -0.4583  0.6921  0.0513
  127MOL   C13618028   6.390   2.796   7.594 -0.1986 -0.1981  0.1474
  127MOL   C13718029   6.252   2.768   7.588  0.2393  0.2738 -0.2301
  127MOL   N13818030   6.136   2.754   7.575 -1.0339 -0.0734 -1.0883
  127MOL   H13918031   6.581   2.736   7.499 -0.0217 -1.0558  1.1265
  127MOL   H14018032   6.451   2.729   7.393 -0.6511 -2.4731 -0.5398
  127MOL   H14118033   6.403   2.902   7.573 -1.2557  0.2002  1.4418
  127MOL   H14218034   6.416   2.775   7.698 -0.1289 -1.4203 -0.1071
  128MOL     C118035   0.495   4.746   8.077 -0.5629  0.2849  0.4017
  128MOL     C218036   0.539   4.597   8.088  0.4771  0.0603 -0.1008
  128MOL     C318037   0.432   4.517   8.145  0.6241  0.0334  0.2507
  128MOL     N418038   0.348   4.461   8.204  0.4502  0.0748  0.1061
  128MOL     H518039   0.474   4.777   8.180 -0.6609 -0.3564  0.5831
  128MOL     H618040   0.403   4.759   8.021 -0.7167  0.2197  0.6371
  128MOL     H718041   0.623   4.585   8.157 -0.5993  1.6298  1.5396
  128MOL     H818042   0.575   4.814   8.047  0.1581 -1.6082 -2.1229
  128MOL     C918043   0.581   4.550   7.950 -0.1450 -0.1819  0.5239
  128MOL    C1018044   0.490   4.544   7.828 -0.5066  0.1393 -0.0270
  128MOL    C1118045   0.432   4.672   7.794 -0.6853  0.6145 -0.0974
  128MOL    N1218046   0.384   4.774   7.767 -0.5623  0.0120  0.1891
  128MOL    H1318047   0.675   4.594   7.918 -0.5463 -2.2111 -3.7775
  128MOL    H1418048   0.613   4.446   7.956  6.4569  1.5115 -1.2304
  128MOL    H1518049   0.408   4.479   7.858  1.2701 -2.2242 -0.1446
  128MOL    C1618050   0.571   4.478   7.711 -0.3570 -0.0325 -0.5789
  128MOL    C1718051   0.524   4.482   7.561  0.4021 -0.0473 -0.4507
  128MOL    C1818052   0.621   4.415   7.464  0.7886 -0.6523  0.0909
  128MOL    N1918053   0.696   4.362   7.397  0.4346  0.8302  0.3537
  128MOL    H2018054   0.664   4.533   7.706 -0.8878  0.6141 -5.3317
  128MOL    H2118055   0.595   4.376   7.741 -2.9630 -0.5614 -0.0828
  128MOL    H2218056   0.518   4.584   7.524 -1.3240 -0.2560 -0.7876
  128MOL    C2318057   0.388   4.413   7.540 -0.1292 -1.2423 -0.5876
  128MOL    C2418058   0.261   4.506   7.535 -0.5688  0.5347  0.0059
  128MOL    C2518059   0.267   4.602   7.427  0.2737  0.1826  0.3933
  128MOL    N2618060   0.274   4.677   7.340  1.0042 -0.2612 -0.8238
  128MOL    H2718061   0.385   4.338   7.460 -1.2983 -1.3121 -0.4876
  128MOL    H2818062   0.376   4.341   7.621 -0.4522  0.0321  0.5173
  128MOL    H2918063   0.267   4.582   7.613  0.6656 -0.7389  1.1720
  128MOL    C3018064   0.128   4.424   7.534 -0.5213  0.1198  0.2561
  128MOL    C3118065   0.090   4.370   7.673  0.0372 -0.2559  0.5089
  128MOL    C3218066   0.135   4.451   7.787 -0.0485  0.2495 -0.2882
  128MOL    N3318067   0.170   4.520   7.871  0.4064  0.0436 -0.4585
  128MOL    H3418068   0.047   4.483   7.492  1.9343  1.2427 -3.0900
  128MOL    H3518069   0.146   4.335   7.475 -0.5773 -1.2298  2.2247
  128MOL    H3618070   0.157   4.284   7.682 -0.6785 -1.0049 -1.2114
  128MOL    C3718071   8.254   4.328   7.681  0.8705 -0.2784  0.1334
  128MOL    C3818072   8.209   4.232   7.561 -0.2660  0.4856 -0.6006
  128MOL    C3918073   0.001   4.129   7.535  0.6488 -0.1819 -0.1175
  128MOL    N4018074   0.090   4.057   7.514  0.3809  0.4798 -0.1743
  128MOL    H4118075   8.243   4.262   7.768  0.0415 -1.8725 -1.1456
  128MOL    H4218076   8.180   4.406   7.698  3.1089  1.7123  0.9392
  128MOL    H4318077   8.199   4.278   7.462 -1.3413 -2.1418 -1.7531
  128MOL    C4418078   8.072   4.162   7.580 -0.1689  0.6119 -0.1074
  128MOL    C4518079   7.948   4.257   7.578  0.0352  0.0678 -0.1680
  128MOL    C4618080   7.903   4.299   7.445 -0.8768 -0.2829 -0.0807
  128MOL    N4718081   7.874   4.338   7.338  0.1015  0.1597  0.2328
  128MOL    H4818082   8.064   4.097   7.493  2.3120 -0.2909  0.3168
  128MOL    H4918083   8.080   4.112   7.676 -0.6927  3.2689  1.3620
  128MOL    H5018084   7.977   4.348   7.631 -1.3225  0.3512  0.1293
  128MOL    C5118085   7.833   4.201   7.662 -0.2339  0.1384  0.6246
  128MOL    C5218086   7.715   4.296   7.660 -0.6694 -0.1901  0.2286
  128MOL    C5318087   7.590   4.219   7.679 -0.6204  0.5206  0.4470
  128MOL    N5418088   7.495   4.154   7.694  0.0489  0.6678  0.1611
  128MOL    H5518089   7.802   4.100   7.634 -1.4106  0.9889 -1.2422
  128MOL    H5618090   7.858   4.202   7.768 -0.5129 -0.0397  0.6938
  128MOL    H5718091   7.689   4.321   7.557  0.3781 -0.4935 -0.1142
  128MOL    C5818092   7.729   4.431   7.736  0.1541  0.2885 -0.1536
  128MOL    C5918093   7.777   4.553   7.660  0.0572  0.3918  0.6555
  128MOL    C6018094   7.695   4.577   7.541 -0.1551  0.0765 -0.2439
  128MOL    N6118095   7.631   4.600   7.447  0.1487  0.1186 -0.4897
  128MOL    H6218096   7.632   4.458   7.779  0.6363  1.3301  0.3003
  128MOL    H6318097   7.791   4.413   7.824  0.3835 -0.7820 -0.5341
  128MOL    H6418098   7.879   4.545   7.625 -0.2896 -0.1580 -0.2395
  128MOL    C6518099   7.770   4.681   7.742 -0.6060 -0.2240  0.4639
  128MOL    C6618100   7.865   4.682   7.861  0.1117 -0.4723 -0.3648
  128MOL    C6718101   8.005   4.661   7.819  0.5072  0.3061 -0.7991
  128MOL    N6818102   8.113   4.643   7.779 -0.2834 -0.2894  0.5168
  128MOL    H6918103   7.801   4.776   7.699  2.7654 -0.3766  2.3828
  128MOL    H7018104   7.667   4.689   7.778 -1.4489 -1.1835 -1.6767
  128MOL    H7118105   7.838   4.597   7.923 -0.0940  0.0463  0.2573
  128MOL    C7218106   7.850   4.811   7.944 -0.1733 -0.3033 -0.0605
  128MOL    C7318107   7.715   4.844   8.013  0.8308 -0.1634  0.5289
  128MOL    C7418108   7.645   4.723   8.063 -0.3399  0.2115 -0.2520
  128MOL    N7518109   7.580   4.633   8.101 -0.3594 -0.6068 -0.2405
  128MOL    H7618110   7.926   4.799   8.021 -0.4591  0.4038  0.3385
  128MOL    H7718111   7.872   4.892   7.876 -1.4134  0.1118  0.0209
  128MOL    H7818112   7.651   4.888   7.937  0.3797 -0.7781  0.5466
  128MOL    C7918113   7.717   4.954   8.116 -0.1081 -0.2841  0.5911
  128MOL    C8018114   7.762   5.090   8.065 -0.1130 -0.1796 -0.0187
  128MOL    C8118115   7.674   5.128   7.946 -0.3073 -0.2220  0.3068
  128MOL    N8218116   7.606   5.154   7.857  0.6950  0.3125 -0.5508
  128MOL    H8318117   7.616   4.979   8.148 -1.3771 -1.5608 -2.2109
  128MOL    H8418118   7.776   4.918   8.201  1.4570 -0.6020 -0.6231
  128MOL    H8518119   7.866   5.089   8.033  0.0283  0.0582  0.4260
  128MOL    C8618120   7.750   5.195   8.177  0.0845  0.5958  0.2799
  128MOL    C8718121   7.851   5.302   8.192  0.5759  0.6735 -0.2116
  128MOL    C8818122   7.849   5.413   8.094  0.7511 -0.0242  0.2943
  128MOL    N8918123   7.848   5.502   8.014 -0.4146 -0.2599  0.4674
  128MOL    H9018124   7.660   5.253   8.155  0.2846  0.8251  0.0699
  128MOL    H9118125   7.730   5.137   8.268  0.4299 -4.0077 -2.4031
  128MOL    H9218126   7.942   5.245   8.169  0.0059 -0.4298  0.2256
  128MOL    C9318127   7.878   5.336   0.030  0.1022  0.1041 -0.3600
  128MOL    C9418128   7.994   5.435   0.062 -0.3464  0.4362  0.4323
  128MOL    C9518129   7.978   5.576   0.010 -0.3979  0.1100  0.6393
  128MOL    N9618130   7.960   5.686   8.286 -0.5309  0.4883 -0.0820
  128MOL    H9718131   7.789   5.371   0.082  0.5821 -0.7996  1.1131
  128MOL    H9818132   7.905   5.246   0.085 -1.6758  0.9273  1.9495
  128MOL    H9918133   8.073   5.402   8.308 -1.5102 -0.6150 -0.4641
  128MOL   C10018134   8.029   5.428   0.213 -0.2569  0.5698 -0.2801
  128MOL   C10118135   8.098   5.552   0.271  0.2126 -0.2997  0.6878
  128MOL   C10218136   8.195   5.626   0.185  0.0349  0.2005  0.5462
  128MOL   N10318137   8.266   5.690   0.114  0.1084 -0.0176 -0.2798
  128MOL   H10418138   7.936   5.395   0.259  0.8812 -1.5023  0.6086
  128MOL   H10518139   8.096   5.343   0.227 -0.0302  0.8220  0.1771
  128MOL   H10618140   8.161   5.528   0.357 -1.2599 -0.7704  1.6532
  128MOL   C10718141   7.998   5.648   0.335 -0.0908 -0.2832 -0.2362
  128MOL   C10818142   7.908   5.593   0.451  0.5881 -0.5797  0.3912
  128MOL   C10918143   7.999   5.541   0.550  0.4955  0.0772  0.1715
  128MOL   N11018144   8.071   5.501   0.628  1.4304  0.5889 -0.3507
  128MOL   H11118145   8.051   5.730   0.385 -2.5402  0.4267  1.2810
  128MOL   H11218146   7.949   5.699   0.252 -2.6109 -2.0474  0.1350
  128MOL   H11318147   7.856   5.504   0.417  0.2211  0.6006 -2.3081
  128MOL   C11418148   7.799   5.699   0.502 -0.5735  0.7441  0.1898
  128MOL   C11518149   7.703   5.663   0.608 -0.0065  0.5063  0.1455
  128MOL   C11618150   7.775   5.647   0.741 -0.9152 -0.4937  0.7383
  128MOL   N11718151   7.831   5.639   0.844 -0.0393 -0.8990 -0.9355
  128MOL   H11818152   7.852   5.785   0.544 -0.0665  0.2923  0.4783
  128MOL   H11918153   7.761   5.733   0.406 -1.4924 -0.3103  0.1797
  128MOL   H12018154   7.653   5.570   0.582  0.7332  0.3500 -0.7453
  128MOL   C12118155   7.586   5.772   0.618  0.1426  0.7452 -0.4131
  128MOL   C12218156   7.480   5.774   0.508  0.1495  0.5311  0.2207
  128MOL   C12318157   7.418   5.643   0.492  0.5075 -0.6033  0.4339
  128MOL   N12418158   7.366   5.539   0.487 -0.4495 -0.1775  0.2709
  128MOL   H12518159   7.537   5.751   0.713 -0.7668  1.4479 -0.7199
  128MOL   H12618160   7.636   5.867   0.639  0.1749  0.5696  0.3117
  128MOL   H12718161   7.531   5.786   0.412 -1.5368 -0.5777 -0.8519
  128MOL   C12818162   7.376   5.892   0.517 -0.2989  0.5773  0.7113
  128MOL   C12918163   7.445   6.029   0.488 -0.7210  0.2512 -0.6639
  128MOL   C13018164   7.504   6.015   0.354 -0.0986  0.2218 -0.3492
  128MOL   N13118165   7.557   6.005   0.250  0.9659 -0.5004  0.0108
  128MOL   H13218166   7.304   5.872   0.438 -1.4674 -0.3870  2.0009
  128MOL   H13318167   7.334   5.895   0.617 -1.3149 -2.5607  0.4344
  128MOL   H13418168   7.532   6.047   0.551  0.6904 -0.1723 -2.4203
  128MOL   C13518169   7.343   6.146   0.486  0.0706  0.3421 -0.3940
  128MOL   C13618170   7.277   6.176   0.619  0.2570  0.4662  0.2963
  128MOL   C13718171   7.374   6.201   0.731 -0.5328 -0.0739  0.3655
  128MOL   N13818172   7.453   6.205   0.814  0.7483 -0.1568 -0.7596
  128MOL   H13918173   7.396   6.227   0.435  1.7759 -0.5483 -0.0605
  128MOL   H14018174   7.261   6.119   0.419  0.0331 -1.6460  0.4111
  128MOL   H14118175   7.204   6.099   0.640  1.3688 -0.6424  0.1575
  128MOL   H14218176   7.215   6.264   0.606 -0.8975 -0.6189 -1.7368
  129MOL     C118177   2.831   3.524   6.988 -0.7178  0.0970 -0.1196
  129MOL     C218178   2.857   3.657   7.064 -0.3178  0.2929  0.1148
  129MOL     C318179   2.792   3.759   6.978 -0.4613  0.0730  0.0334
  129MOL     N418180   2.746   3.838   6.908 -0.2892  0.1616  0.1888
  129MOL     H518181   2.886   3.441   7.033 -0.5552  1.1082  1.5895
  129MOL     H618182   2.876   3.537   6.889  0.9818  1.9291  0.8564
  129MOL     H718183   2.960   3.694   7.062 -0.4984  0.7547 -1.0146
  129MOL     H818184   2.724   3.503   6.982 -0.4161 -1.9122  1.0580
  129MOL     C918185   2.794   3.648   7.201  0.1390  0.5333  0.0921
  129MOL    C1018186   2.842   3.753   7.309 -0.1062  0.2336  0.2218
  129MOL    C1118187   2.846   3.883   7.243 -0.0076 -0.3112 -0.5121
  129MOL    N1218188   2.849   3.988   7.189  0.8601 -0.3225  0.4363
  129MOL    H1318189   2.687   3.669   7.203 -0.4599 -2.2605 -0.4779
  129MOL    H1418190   2.804   3.546   7.238 -0.2084  0.2533 -0.5817
  129MOL    H1518191   2.948   3.749   7.335  0.1991  1.2721 -0.8277
  129MOL    C1618192   2.775   3.736   7.446 -0.2290 -0.6989  0.8532
  129MOL    C1718193   2.817   3.608   7.514 -0.1379 -0.2639  0.3538
  129MOL    C1818194   2.958   3.567   7.502 -0.7344 -0.8514  0.8484
  129MOL    N1918195   3.067   3.524   7.490 -0.2251  0.5703  0.0056
  129MOL    H2018196   2.813   3.819   7.507  0.8890 -0.6635  0.1390
  129MOL    H2118197   2.669   3.761   7.446 -0.2879 -0.7216 -2.4607
  129MOL    H2218198   2.766   3.535   7.451 -0.0908  0.6622 -0.7805
  129MOL    C2318199   2.756   3.598   7.656  0.4715  0.0169 -0.0265
  129MOL    C2418200   2.802   3.473   7.738  0.3452  0.4150 -0.0560
  129MOL    C2518201   2.757   3.475   7.879  0.7093  0.1725 -0.3291
  129MOL    N2618202   2.717   3.472   7.985  0.1597  0.2235 -0.2951
  129MOL    H2718203   2.781   3.693   7.703  0.2633  0.0039  0.1123
  129MOL    H2818204   2.649   3.612   7.643  0.7058  1.7398 -0.1972
  129MOL    H2918205   2.909   3.478   7.758  0.1423  0.5314  1.0304
  129MOL    C3018206   2.786   3.346   7.650  0.2236  0.0169 -0.1274
  129MOL    C3118207   2.776   3.212   7.737 -0.6808 -0.0075  0.0088
  129MOL    C3218208   2.734   3.102   7.648 -0.4349  0.4802  0.5425
  129MOL    N3318209   2.701   3.015   7.581 -0.3397 -0.0587 -0.4869
  129MOL    H3418210   2.699   3.352   7.584  0.6644 -0.8940 -0.8199
  129MOL    H3518211   2.876   3.333   7.589 -0.7416 -1.9049 -1.2182
  129MOL    H3618212   2.700   3.225   7.814 -1.3774  0.8504 -0.8192
  129MOL    C3718213   2.912   3.172   7.808  0.1477  0.2365  0.0698
  129MOL    C3818214   2.908   3.079   7.930  0.0195 -0.7287  0.7069
  129MOL    C3918215   2.801   3.132   8.013 -0.1077 -0.5135  0.3783
  129MOL    N4018216   2.714   3.179   8.078  0.3357 -0.2083  0.8773
  129MOL    H4118217   2.979   3.128   7.733 -0.3308  0.8249 -0.7148
  129MOL    H4218218   2.957   3.265   7.844 -3.2162  1.5444  1.0925
  129MOL    H4318219   3.010   3.099   7.963  0.1939  1.2356 -0.9790
  129MOL    C4418220   2.895   2.922   7.907 -0.8913 -0.5172  0.2763
  129MOL    C4518221   2.960   2.847   8.028  0.2792 -0.0657  0.0503
  129MOL    C4618222   2.869   2.860   8.144  0.6281 -0.1072  0.3742
  129MOL    N4718223   2.798   2.870   8.229  0.2373  0.1748 -0.3929
  129MOL    H4818224   2.790   2.897   7.900 -0.4949 -2.2226  0.3034
  129MOL    H4918225   2.938   2.883   7.814 -1.0439 -0.5431  0.2171
  129MOL    H5018226   3.050   2.903   8.056  1.3125 -1.1767 -0.9790
  129MOL    C5118227   3.013   2.706   8.014 -0.3616  0.0273  0.6842
  129MOL    C5218228   3.127   2.696   7.905 -0.0392  0.6415  0.0928
  129MOL    C5318229   3.235   2.791   7.922  0.0908 -0.2366  0.0196
  129MOL    N5418230   3.319   2.872   7.933  0.4989  0.6596  0.0181
  129MOL    H5518231   3.076   2.685   8.100  2.1215  1.4468 -0.7558
  129MOL    H5618232   2.937   2.628   8.006 -0.6471 -0.2058  4.6228
  129MOL    H5718233   3.083   2.730   7.811  0.3143 -0.7030 -0.5833
  129MOL    C5818234   3.167   2.551   7.882  0.2302 -0.3294  0.2340
  129MOL    C5918235   3.203   2.509   7.738  0.1472  0.5056 -0.0671
  129MOL    C6018236   3.305   2.590   7.671  0.5644  0.4689  0.1288
  129MOL    N6118237   3.387   2.660   7.622 -0.4913 -0.3385  0.5958
  129MOL    H6218238   3.252   2.525   7.945  0.2179 -0.5378  0.1640
  129MOL    H6318239   3.088   2.490   7.927 -0.6504 -0.1375 -1.0164
  129MOL    H6418240   3.116   2.501   7.673 -0.9283  0.2241  1.3965
  129MOL    C6518241   3.254   2.362   7.760 -0.0515  0.3402  0.4777
  129MOL    C6618242   3.236   2.275   7.634  0.6911 -0.2394 -0.4946
  129MOL    C6718243   3.297   2.329   7.511 -0.1237  0.0364  0.1279
  129MOL    N6818244   3.342   2.369   7.408  0.1220  0.2069 -0.1877
  129MOL    H6918245   3.355   2.370   7.800  0.0219 -1.8996  0.7627
  129MOL    H7018246   3.199   2.313   7.840 -0.3805 -0.1539 -0.0476
  129MOL    H7118247   3.129   2.276   7.613  0.5647 -0.4851  0.1426
  129MOL    C7218248   3.281   2.124   7.654 -0.9060 -0.5497  0.2342
  129MOL    C7318249   3.415   2.088   7.592  0.1438 -0.1315  0.0700
  129MOL    C7418250   3.529   2.169   7.633  0.4623  0.1890 -0.0125
  129MOL    N7518251   3.616   2.234   7.670  0.1084 -0.4632  0.6006
  129MOL    H7618252   3.292   2.106   7.761  0.1451  2.5213  0.6735
  129MOL    H7718253   3.199   2.059   7.624 -0.4750 -1.2149  0.4830
  129MOL    H7818254   3.411   2.111   7.485  1.4880 -0.8382 -0.1394
  129MOL    C7918255   3.450   1.943   7.619  0.8000 -0.6728 -0.1601
  129MOL    C8018256   3.556   1.896   7.523 -0.2894  0.1453 -0.2204
  129MOL    C8118257   3.564   1.753   7.551 -0.7243  0.3372  0.2472
  129MOL    N8218258   3.577   1.645   7.587 -0.8947 -0.0347 -0.1313
  129MOL    H8318259   3.474   1.920   7.723 -0.3434  1.7791  0.6923
  129MOL    H8418260   3.366   1.878   7.593  0.2844 -1.0797  2.3453
  129MOL    H8518261   3.652   1.947   7.536 -1.5036  2.5053 -0.1894
  129MOL    C8618262   3.519   1.924   7.380 -0.2020  0.1772  0.1814
  129MOL    C8718263   3.590   1.855   7.264 -0.1120 -0.4607 -0.3338
  129MOL    C8818264   3.522   1.730   7.241 -0.4552  0.3246  0.0008
  129MOL    N8918265   3.466   1.624   7.229  0.3058  0.0888 -0.3874
  129MOL    H9018266   3.411   1.920   7.369 -0.0854  0.6490 -1.3317
  129MOL    H9118267   3.540   2.026   7.349 -0.4834  0.2764  0.3232
  129MOL    H9218268   3.690   1.825   7.292  0.1838  1.4301  0.7055
  129MOL    C9318269   3.577   1.936   7.128  0.1132  0.0424 -0.2690
  129MOL    C9418270   3.644   1.865   7.003 -0.6721  0.1779 -0.1948
  129MOL    C9518271   3.656   1.955   6.894 -0.2289  0.7759 -0.1092
  129MOL    N9618272   3.674   2.031   6.804  0.1586 -0.0353  0.4523
  129MOL    H9718273   3.472   1.957   7.105  0.3021 -0.9253 -2.1060
  129MOL    H9818274   3.617   2.035   7.148 -1.5739  0.3714  1.6657
  129MOL    H9918275   3.587   1.781   6.964 -1.1723  0.4813 -0.1260
  129MOL   C10018276   3.789   1.828   7.040 -0.4697 -0.1334 -0.7291
  129MOL   C10118277   3.898   1.850   6.932  0.1022  0.3099 -0.8826
  129MOL   C10218278   3.954   1.985   6.945 -0.7638 -0.4940 -0.4848
  129MOL   N10318279   4.011   2.081   6.962 -0.2444  0.5922 -0.1813
  129MOL   H10418280   3.814   1.874   7.136 -1.9308  0.2633 -0.5143
  129MOL   H10518281   3.788   1.721   7.061 -1.0434 -0.1046 -0.5969
  129MOL   H10618282   3.851   1.844   6.833 -1.3138  4.6572 -0.5841
  129MOL   C10718283   4.008   1.742   6.949  0.7414 -0.8419 -0.1051
  129MOL   C10818284   4.149   1.793   6.984 -0.7408  0.7834 -0.0172
  129MOL   C10918285   4.155   1.823   7.130 -0.3657 -0.3648  0.4384
  129MOL   N11018286   4.159   1.846   7.242  0.6276  0.3513  0.7117
  129MOL   H11118287   3.983   1.663   7.019 -0.1427 -1.1500 -0.7561
  129MOL   H11218288   4.015   1.690   6.854 -0.3970  0.0658 -0.7011
  129MOL   H11318289   4.174   1.877   6.920 -1.2562  0.1181 -1.1170
  129MOL   C11418290   4.267   1.687   6.954 -0.3737 -0.4084 -0.5570
  129MOL   C11518291   4.279   1.573   7.059  0.5071 -0.5611 -0.2139
  129MOL   C11618292   4.163   1.484   7.054  0.3133 -0.5099 -0.4675
  129MOL   N11718293   4.067   1.420   7.050 -0.0900 -0.1413 -0.2302
  129MOL   H11818294   4.239   1.648   6.857 -0.3645  1.1755 -1.2173
  129MOL   H11918295   4.364   1.736   6.951 -0.2909 -0.3867  1.3879
  129MOL   H12018296   4.271   1.604   7.163  0.4312 -0.4357 -0.2570
  129MOL   C12118297   4.410   1.502   7.033 -0.9469  0.5237 -0.4962
  129MOL   C12218298   4.491   1.445   7.162 -0.2143 -0.7440 -0.1421
  129MOL   C12318299   4.582   1.350   7.106  0.2828  0.3839 -0.6319
  129MOL   N12418300   4.657   1.278   7.060  0.2638  0.5538  0.2296
  129MOL   H12518301   4.380   1.426   6.961 -3.6736  1.3061 -0.2380
  129MOL   H12618302   4.481   1.554   6.969  0.0477  0.8198  0.8270
  129MOL   H12718303   4.420   1.394   7.228  0.6904 -2.3972 -0.4258
  129MOL   C12818304   4.564   1.557   7.237 -0.0968 -0.3361  0.3010
  129MOL   C12918305   4.682   1.631   7.168 -0.1446 -0.2184 -0.2314
  129MOL   C13018306   4.618   1.736   7.090  0.3521 -0.0845  0.1316
  129MOL   N13118307   4.563   1.819   7.035 -0.1561 -0.3909  0.1199
  129MOL   H13218308   4.488   1.623   7.278  0.3564  0.1583  0.3502
  129MOL   H13318309   4.604   1.499   7.320 -1.5627 -0.7339  0.7452
  129MOL   H13418310   4.747   1.564   7.111  1.7715 -0.2596  1.9285
  129MOL   C13518311   4.786   1.701   7.264 -0.3546 -0.2903 -0.4022
  129MOL   C13618312   4.889   1.781   7.192 -0.6032 -0.5331  0.2278
  129MOL   C13718313   4.932   1.723   7.061 -0.4705 -0.2270 -0.3150
  129MOL   N13818314   4.966   1.677   6.961 -0.1670 -0.1747  0.4718
  129MOL   H13918315   4.730   1.751   7.343 -1.1827 -0.4453 -0.8867
  129MOL   H14018316   4.843   1.627   7.321 -0.8705  0.3670  0.9902
  129MOL   H14118317   4.975   1.787   7.258 -0.2610 -3.6813  0.1387
  129MOL   H14218318   4.844   1.873   7.154  1.1915 -0.0919 -0.8421
  130MOL     C118319   6.989   7.970   6.136 -0.6290 -1.1282  0.0765
  130MOL     C218320   6.928   7.831   6.145 -0.5866  0.1484  0.3634
  130MOL     C318321   6.917   7.768   6.015  0.5040 -0.1691  0.1682
  130MOL     N418322   6.911   7.723   5.909 -0.7764  0.4708  0.1249
  130MOL     H518323   7.096   7.960   6.117 -0.7536 -2.7957  0.2330
  130MOL     H618324   6.986   8.014   6.236 -2.7367 -0.6319 -0.1754
  130MOL     H718325   6.830   7.832   6.194 -0.9755  1.8662 -0.4074
  130MOL     H818326   6.938   8.036   6.065  0.3823 -0.1882  0.1998
  130MOL     C918327   7.014   7.736   6.236 -0.1734 -0.3274 -0.2352
  130MOL    C1018328   7.019   7.779   6.388 -0.0047  0.3103 -0.3723
  130MOL    C1118329   6.894   7.819   6.455 -0.0406 -0.1885 -0.8074
  130MOL    N1218330   6.798   7.851   6.507  0.4171 -0.4598  0.3575
  130MOL    H1318331   6.971   7.637   6.230 -0.5554 -0.2821  1.5111
  130MOL    H1418332   7.120   7.733   6.208 -0.0105  0.8867  0.2189
  130MOL    H1518333   7.079   7.868   6.406  1.1649 -0.6716  0.6179
  130MOL    C1618334   7.082   7.664   6.471  0.8388  0.6576  0.7456
  130MOL    C1718335   7.240   7.640   6.457 -0.0486 -0.0216 -0.8970
  130MOL    C1818336   7.318   7.762   6.497  0.5102 -0.4484 -0.3797
  130MOL    N1918337   7.387   7.852   6.530  0.4334 -0.3678 -0.3246
  130MOL    H2018338   7.064   7.689   6.575 -0.2624 -1.3172  1.0529
  130MOL    H2118339   7.035   7.569   6.450  1.7961  0.6067 -1.3178
  130MOL    H2218340   7.259   7.634   6.350  0.5985 -0.7845 -0.7462
  130MOL    C2318341   7.292   7.514   6.534  0.1810  0.6602  0.9945
  130MOL    C2418342   7.436   7.474   6.490 -0.1450  0.0784  0.3904
  130MOL    C2518343   7.456   7.464   6.346  0.7329 -0.2137 -0.3897
  130MOL    N2618344   7.470   7.454   6.233  0.2343  0.1192 -0.4884
  130MOL    H2718345   7.294   7.527   6.642 -0.5043  2.1467  0.8361
  130MOL    H2818346   7.232   7.426   6.509  1.0618  1.1450 -3.2463
  130MOL    H2918347   7.434   7.370   6.522  2.0260 -0.7342 -1.9844
  130MOL    C3018348   7.553   7.542   6.568  0.3844  0.1119 -0.7326
  130MOL    C3118349   7.705   7.523   6.507 -0.3049  0.0559  0.6497
  130MOL    C3218350   7.733   7.617   6.396  0.1905  0.3038 -0.4728
  130MOL    N3318351   7.747   7.693   6.309  0.4568  0.3394 -0.4427
  130MOL    H3418352   7.539   7.650   6.577  0.4562  0.0456  0.1897
  130MOL    H3518353   7.552   7.502   6.669  0.8463  0.7236 -0.4814
  130MOL    H3618354   7.719   7.423   6.465 -0.9103  0.5299 -0.7014
  130MOL    C3718355   7.818   7.545   6.612  0.0783  0.4012 -0.0876
  130MOL    C3818356   7.961   7.508   6.568 -0.1211 -0.2606 -0.0551
  130MOL    C3918357   8.048   7.608   6.510  0.0853 -0.3929 -0.0516
  130MOL    N4018358   8.122   7.686   6.463  0.8191  0.0889 -0.3714
  130MOL    H4118359   7.827   7.649   6.643  0.7945  0.0843  0.8005
  130MOL    H4218360   7.784   7.492   6.701 -0.4257  0.3131 -0.3306
  130MOL    H4318361   7.948   7.450   6.476  0.5727 -1.1859  0.4222
  130MOL    C4418362   8.036   7.422   6.669  0.1165 -0.2302 -0.2794
  130MOL    C4518363   8.139   7.326   6.606  0.2198 -0.1472  0.0130
  130MOL    C4618364   8.232   7.288   6.709 -0.1051 -0.8988 -0.1734
  130MOL    N4718365   8.309   7.261   6.791  0.9796  0.6567  0.3097
  130MOL    H4818366   8.094   7.496   6.725 -0.0199  0.4483 -1.0322
  130MOL    H4918367   7.984   7.372   6.751 -0.8839  1.2503  0.0030
  130MOL    H5018368   8.206   7.367   6.531  1.2236 -0.8281  0.5265
  130MOL    C5118369   8.067   7.202   6.557  0.4221  1.0735  0.0623
  130MOL    C5218370   8.154   7.112   6.470  0.0539 -0.9017  0.9938
  130MOL    C5318371   8.207   7.014   6.564  0.3959 -0.1619 -0.4005
  130MOL    N5418372   8.252   6.941   6.639  0.3666 -0.0734  0.9485
  130MOL    H5518373   8.023   7.150   6.642  4.1241  0.6335  1.7644
  130MOL    H5618374   7.988   7.243   6.494  0.9046  0.4885 -0.9398
  130MOL    H5718375   8.232   7.176   6.429 -0.6422 -1.3923 -1.1326
  130MOL    C5818376   8.077   7.052   6.352  0.2581  0.0816 -0.3220
  130MOL    C5918377   8.161   6.950   6.259 -1.0265  0.1322  0.2795
  130MOL    C6018378   8.064   6.914   6.155 -0.2973 -0.8504  0.5789
  130MOL    N6118379   7.993   6.884   6.068  0.4045 -0.5683  0.1437
  130MOL    H6218380   8.001   6.986   6.394  1.6126 -2.5195 -1.8303
  130MOL    H6318381   8.034   7.124   6.283 -1.5307 -1.3873 -0.7962
  130MOL    H6418382   8.174   6.855   6.310  0.1065  0.7080  1.1076
  130MOL    C6518383   8.293   7.006   6.195  0.8517 -0.5317  0.4142
  130MOL    C6618384   8.280   7.128   6.090 -0.3861  0.5739 -0.8000
  130MOL    C6718385   8.221   7.245   6.153 -0.1421  0.2496  0.0369
  130MOL    N6818386   8.179   7.344   6.203 -0.6446 -0.5198 -0.1024
  130MOL    H6918387   0.041   7.040   6.280  1.6668 -0.6138 -0.1201
  130MOL    H7018388   0.022   6.913   6.157 -1.3116 -2.0578  1.7465
  130MOL    H7118389   8.215   7.092   6.010 -0.2482 -0.3643 -0.4907
  130MOL    C7218390   0.109   7.172   6.026  0.3921  0.2700  0.1325
  130MOL    C7318391   0.107   7.251   5.897 -0.2940  0.8400 -0.1180
  130MOL    C7418392   0.236   7.327   5.893 -0.7287  0.5190  0.0815
  130MOL    N7518393   0.337   7.381   5.890 -0.1393  0.2288  0.4079
  130MOL    H7618394   0.149   7.236   6.105 -1.1948  0.1757  1.0377
  130MOL    H7718395   0.167   7.080   6.013  0.4678  0.7217 -3.1098
  130MOL    H7818396   0.036   7.332   5.907 -0.1578  1.6402 -4.4045
  130MOL    C7918397   0.062   7.169   5.772  0.2478  0.3512  0.1078
  130MOL    C8018398   0.008   7.260   5.662  0.4960 -0.2160  0.1668
  130MOL    C8118399   0.114   7.340   5.604 -0.0326 -0.4463 -0.1632
  130MOL    N8218400   0.199   7.392   5.552  0.1624  0.3881 -0.2066
  130MOL    H8318401   0.138   7.101   5.733  1.1389  1.6664 -0.4867
  130MOL    H8418402   8.301   7.093   5.801  0.3008  1.1779  2.5351
  130MOL    H8518403   8.251   7.333   5.703  0.3870 -0.4239  0.3510
  130MOL    C8618404   8.237   7.184   5.555 -0.2544 -0.4513  0.0787
  130MOL    C8718405   8.302   7.060   5.482  0.5766  0.3672  0.4192
  130MOL    C8818406   8.309   6.933   5.569  0.6189  0.9209 -0.0344
  130MOL    N8918407   8.309   6.843   5.641 -0.2781 -0.3752  0.0984
  130MOL    H9018408   8.136   7.157   5.586 -1.4780  0.9031 -2.5453
  130MOL    H9118409   8.220   7.263   5.481  2.1172  0.6798  0.7161
  130MOL    H9218410   0.096   7.073   5.461  0.2994 -0.1635 -1.4517
  130MOL    C9318411   8.235   7.032   5.342  0.8420  0.2351  0.5296
  130MOL    C9418412   0.020   6.989   5.230 -0.0006  0.1391 -0.3097
  130MOL    C9518413   0.089   6.869   5.273 -0.0196  0.3678 -0.0530
  130MOL    N9618414   0.148   6.775   5.311  0.3714 -0.5101  0.4043
  130MOL    H9718415   8.154   6.962   5.359 -0.6243  1.7690  0.0481
  130MOL    H9818416   8.182   7.120   5.304  1.7705  0.6390  0.1496
  130MOL    H9918417   0.099   7.063   5.237 -0.1909  0.2328  1.0188
  130MOL   C10018418   8.262   6.991   5.094  0.7657  0.6310  0.2475
  130MOL   C10118419   0.029   6.939   4.972  0.4819  0.9236  0.4180
  130MOL   C10218420   0.152   7.010   4.943 -0.1729 -0.5937 -0.2233
  130MOL   N10318421   0.247   7.068   4.914  0.1584 -0.2347  0.1354
  130MOL   H10418422   8.160   6.951   5.098  0.3778  1.6313  0.6851
  130MOL   H10518423   8.237   7.097   5.083 -0.0863  0.5067  0.9221
  130MOL   H10618424   8.288   6.975   4.884  2.2072  1.2225 -0.5273
  130MOL   C10718425   0.050   6.784   4.980  0.0102 -0.4192 -0.2804
  130MOL   C10818426   0.013   6.703   4.858 -0.3643 -0.9474 -0.2408
  130MOL   C10918427   0.050   6.762   4.730 -0.6140 -0.4310  0.0145
  130MOL   N11018428   0.082   6.811   4.633 -0.2434 -0.3381 -0.6557
  130MOL   H11118429   0.154   6.764   5.006 -0.1777  0.0987  0.9078
  130MOL   H11218430   8.307   6.744   5.065  0.9858  4.2643  2.7653
  130MOL   H11318431   8.216   6.698   4.860 -0.3312 -1.7244 -0.1854
  130MOL   C11418432   0.069   6.556   4.868  0.7567  0.7923 -0.2812
  130MOL   C11518433   0.033   6.463   4.748  0.4211  0.3301  0.2969
  130MOL   C11618434   0.108   6.339   4.761  0.8016  0.4425 -0.3125
  130MOL   N11718435   0.160   6.238   4.774 -0.0179  0.2944 -0.6019
  130MOL   H11818436   0.178   6.558   4.871  0.8874 -3.3454  1.4189
  130MOL   H11918437   0.028   6.510   4.959 -0.9650  0.8473 -1.0170
  130MOL   H12018438   0.073   6.499   4.654 -0.5039 -1.5447 -0.8336
  130MOL   C12118439   8.192   6.434   4.732 -0.5449 -0.0258 -0.2062
  130MOL   C12218440   8.154   6.405   4.584  0.2414 -0.9787 -0.1257
  130MOL   C12318441   8.214   6.289   4.512 -0.1718 -0.2263 -0.1532
  130MOL   N12418442   8.254   6.204   4.451  0.2922 -0.1481 -0.6834
  130MOL   H12518443   8.171   6.351   4.800 -0.7589 -1.1024 -1.5532
  130MOL   H12618444   8.143   6.525   4.765  1.8242  0.5520  1.8354
  130MOL   H12718445   8.189   6.495   4.534 -2.0520  2.1679  3.6469
  130MOL   C12818446   7.995   6.393   4.568 -0.1592 -0.5088 -0.0818
  130MOL   C12918447   7.934   6.257   4.598  0.5519 -1.2241  0.8858
  130MOL   C13018448   7.992   6.176   4.713 -0.4170 -0.2706 -0.0912
  130MOL   N13118449   8.031   6.109   4.800  0.0266 -0.0558 -0.2405
  130MOL   H13218450   7.947   6.461   4.638 -3.8557 -3.4427  0.4638
  130MOL   H13318451   7.965   6.408   4.464 -0.2413  1.1125  0.1669
  130MOL   H13418452   7.977   6.202   4.514  0.3938  1.8332 -1.2547
  130MOL   C13518453   7.784   6.251   4.583 -0.0601  0.2406 -0.1639
  130MOL   C13618454   7.730   6.112   4.538  0.1479 -0.0163  0.5011
  130MOL   C13718455   7.784   6.078   4.408  0.0946 -0.6474 -0.2228
  130MOL   N13818456   7.826   6.056   4.308  0.2417 -0.3077 -0.8514
  130MOL   H13918457   7.758   6.271   4.688  2.8808  1.3320  0.4108
  130MOL   H14018458   7.755   6.331   4.515 -1.3222  0.1279  0.2326
  130MOL   H14118459   7.622   6.094   4.542  0.1657 -0.3110 -0.2939
  130MOL   H14218460   7.760   6.042   4.616  0.8291 -0.9953 -0.6287
  131MOL     C118461   6.813   7.341   1.650  0.4027  0.1539  0.1818
  131MOL     C218462   6.834   7.274   1.783 -0.7726  0.4742 -0.5373
  131MOL     C318463   6.982   7.254   1.798 -0.2856  0.4377 -0.4816
  131MOL     N418464   7.095   7.231   1.799  1.2762 -0.7858 -0.5050
  131MOL     H518465   6.715   7.386   1.637  1.0453  1.4839 -0.0520
  131MOL     H618466   6.815   7.266   1.571  1.9635  0.7018 -0.3156
  131MOL     H718467   6.781   7.179   1.782 -2.0972  1.2047 -1.4953
  131MOL     H818468   6.887   7.414   1.619  1.2203  0.6331  3.1165
  131MOL     C918469   6.778   7.348   1.906 -0.2979  0.2682 -0.1832
  131MOL    C1018470   6.834   7.489   1.938 -0.0106  0.2113 -0.2274
  131MOL    C1118471   6.797   7.583   1.835 -0.1300 -0.3458  0.0546
  131MOL    N1218472   6.769   7.653   1.747 -0.1599 -0.2462 -0.1361
  131MOL    H1318473   6.669   7.344   1.918 -0.5150 -3.5186 -2.6921
  131MOL    H1418474   6.810   7.280   1.985 -0.4129 -0.6457 -0.9120
  131MOL    H1518475   6.942   7.500   1.930 -0.1780  1.8906 -0.2756
  131MOL    C1618476   6.791   7.533   2.081  0.0391  0.4922  0.4438
  131MOL    C1718477   6.908   7.594   2.156 -0.3791 -0.7995  0.1510
  131MOL    C1818478   6.960   7.718   2.095  0.0640 -0.9905  0.6625
  131MOL    N1918479   6.999   7.822   2.049  0.0830  0.6791 -0.3695
  131MOL    H2018480   6.709   7.604   2.080 -0.6641 -0.3078  0.0649
  131MOL    H2118481   6.766   7.449   2.147 -0.5827  1.0847  0.9656
  131MOL    H2218482   6.992   7.525   2.154  0.2028 -0.2004  2.3593
  131MOL    C2318483   6.880   7.617   2.304  0.1567 -0.8703 -0.1955
  131MOL    C2418484   6.987   7.692   2.383  0.4448 -0.1004  0.0487
  131MOL    C2518485   6.948   7.721   2.521  0.1234 -0.1313  0.1208
  131MOL    N2618486   6.915   7.738   2.633  0.2490  0.1324 -0.6324
  131MOL    H2718487   6.784   7.668   2.318  0.3295 -0.3141 -1.0055
  131MOL    H2818488   6.878   7.521   2.355 -0.9088 -1.6566 -1.6904
  131MOL    H2918489   7.006   7.793   2.347  0.2097  1.0512  3.0298
  131MOL    C3018490   7.128   7.629   2.381  0.1229  1.0801 -0.4502
  131MOL    C3118491   7.221   7.677   2.497 -0.1311 -0.0461  0.0120
  131MOL    C3218492   7.201   7.599   2.623 -0.0724 -0.1223 -0.6913
  131MOL    N3318493   7.182   7.534   2.718 -0.4950 -0.1597 -0.3107
  131MOL    H3418494   7.117   7.520   2.377 -0.5016  1.1687 -1.2859
  131MOL    H3518495   7.176   7.654   2.287  1.2320 -1.3028 -0.5550
  131MOL    H3618496   7.196   7.782   2.511 -1.2922 -0.0313 -2.0046
  131MOL    C3718497   7.374   7.684   2.458 -0.5975  0.3486 -0.2375
  131MOL    C3818498   7.444   7.804   2.528 -0.5638 -0.9338 -0.2983
  131MOL    C3918499   7.419   7.807   2.669  0.7936  0.1932 -0.1862
  131MOL    N4018500   7.392   7.813   2.778  0.0939  0.1963 -0.6655
  131MOL    H4118501   7.426   7.589   2.471 -2.4834 -0.5630  0.7360
  131MOL    H4218502   7.388   7.718   2.355  1.2220  2.5809  0.7101
  131MOL    H4318503   7.406   7.900   2.493  1.7213  0.5630  1.1649
  131MOL    C4418504   7.599   7.817   2.507 -0.8007  0.8984  0.3126
  131MOL    C4518505   7.652   7.958   2.530 -0.6849  0.0872  0.2721
  131MOL    C4618506   7.796   7.956   2.530 -0.5039  0.1126 -0.6376
  131MOL    N4718507   7.914   7.956   2.520  0.1936  0.0227  0.1010
  131MOL    H4818508   7.647   7.751   2.580 -0.1581  1.0712  0.0457
  131MOL    H4918509   7.626   7.790   2.405 -0.2551  1.7042  0.2431
  131MOL    H5018510   7.628   7.981   2.634  1.0855  1.7123  0.3449
  131MOL    C5118511   7.597   8.062   2.431  0.1539 -0.3041 -0.6147
  131MOL    C5218512   7.657   8.060   2.290  0.8842 -0.5550 -0.6170
  131MOL    C5318513   7.598   7.946   2.222 -0.7285  0.5616 -0.2340
  131MOL    N5418514   7.549   7.861   2.172  0.0074  0.0538  0.0372
  131MOL    H5518515   7.488   8.065   2.427  0.1078  0.6653  0.7783
  131MOL    H5618516   7.624   8.156   2.480  0.6464 -1.2557  0.9662
  131MOL    H5718517   7.763   8.035   2.285  1.6416  1.2943  3.6680
  131MOL    C5818518   7.639   8.193   2.218 -0.6341  0.2597  0.2604
  131MOL    C5918519   7.723   8.205   2.086 -0.5502 -0.0225  0.0788
  131MOL    C6018520   7.710   8.091   1.994 -0.1922 -0.0981 -0.0294
  131MOL    N6118521   7.696   8.005   1.919  0.2590  0.1327 -0.4089
  131MOL    H6218522   7.531   8.204   2.203 -0.5670  0.4065 -0.1147
  131MOL    H6318523   7.665   8.275   2.285  4.1895 -0.0612 -1.0768
  131MOL    H6418524   7.819   8.213   2.137 -0.7843 -2.5342  0.9729
  131MOL    C6518525   7.702   0.025   2.024 -0.3888 -0.7523  0.7244
  131MOL    C6618526   7.570   0.034   1.927 -0.3977  0.7163 -0.5909
  131MOL    C6718527   7.445   0.042   2.005  0.1031  0.1388  0.3599
  131MOL    N6818528   7.349   0.044   2.071 -0.1477 -0.2144 -0.4533
  131MOL    H6918529   7.705   0.105   2.097  1.0552 -0.0401 -0.0944
  131MOL    H7018530   7.791   0.040   1.964 -2.4849  2.0873 -1.8509
  131MOL    H7118531   7.566   8.259   1.861  0.4684  1.8011 -2.0981
  131MOL    C7218532   7.587   0.150   1.826 -0.1149  0.0090 -0.0311
  131MOL    C7318533   7.456   0.182   1.755  0.4094 -0.3762  0.0245
  131MOL    C7418534   7.459   0.312   1.687  0.1480 -0.1193  0.0602
  131MOL    N7518535   7.452   0.419   1.635 -0.3996  0.3929  0.2064
  131MOL    H7618536   7.624   0.240   1.873 -0.7278 -0.2404  0.9366
  131MOL    H7718537   7.663   0.128   1.751 -0.6346 -0.1601 -0.5068
  131MOL    H7818538   7.373   0.194   1.824  1.4064  0.2192  1.1360
  131MOL    C7918539   7.431   0.070   1.656  0.1407  0.0306  0.0007
  131MOL    C8018540   7.285   0.058   1.608 -0.1938 -0.0644 -0.3418
  131MOL    C8118541   7.233   0.182   1.545 -0.1508 -0.1796 -0.1155
  131MOL    N8218542   7.194   0.282   1.503  0.0597 -0.1593 -0.7875
  131MOL    H8318543   7.492   0.084   1.567 -1.3164  2.0263 -0.7197
  131MOL    H8418544   7.456   8.283   1.695  0.5235  0.8902  1.9590
  131MOL    H8518545   7.220   0.065   1.696  2.5889  2.7274  1.6127
  131MOL    C8618546   7.276   8.248   1.509  0.5331 -0.6419 -0.0563
  131MOL    C8718547   7.134   8.184   1.495  0.1965  0.4611 -0.5882
  131MOL    C8818548   7.034   8.287   1.446 -1.1771  0.4231 -0.0407
  131MOL    N8918549   6.960   0.051   1.403  0.0431  0.2064 -0.0173
  131MOL    H9018550   7.308   8.280   1.410  3.1818 -1.2901  0.5409
  131MOL    H9118551   7.334   8.161   1.541 -0.1361 -0.3217  2.0955
  131MOL    H9218552   7.095   8.165   1.595  1.5466  2.1932  0.2938
  131MOL    C9318553   7.136   8.057   1.415 -0.8540  0.1562 -0.0528
  131MOL    C9418554   7.002   7.984   1.387  0.4514  0.6211 -0.4234
  131MOL    C9518555   7.013   7.869   1.299 -0.5685  0.3514  1.1906
  131MOL    N9618556   7.024   7.778   1.222  0.3835  0.6046 -0.7463
  131MOL    H9718557   7.177   8.080   1.317 -1.5907 -1.7574 -0.8398
  131MOL    H9818558   7.200   7.982   1.461 -1.4098 -0.2469  0.0711
  131MOL    H9918559   6.945   8.060   1.334  1.5785  0.7744 -1.4261
  131MOL   C10018560   6.921   7.948   1.521 -0.5121 -0.6317  0.6689
  131MOL   C10118561   6.774   7.929   1.490 -0.0695 -0.3834  0.1927
  131MOL   C10218562   6.721   8.055   1.433 -0.6190 -0.0127 -0.2225
  131MOL   N10318563   6.681   8.156   1.394 -0.3872  0.1138  0.6140
  131MOL   H10418564   6.962   7.867   1.582  1.1251 -1.1674 -1.0863
  131MOL   H10518565   6.929   8.023   1.600  1.5557 -2.1459  1.9477
  131MOL   H10618566   6.717   7.924   1.583 -0.5102 -0.5023 -0.0821
  131MOL   C10718567   6.750   7.798   1.410 -0.9439  0.3665  0.3501
  131MOL   C10818568   6.609   7.746   1.408 -0.2284 -0.6381 -0.2211
  131MOL   C10918569   6.507   7.836   1.346  0.2966  0.8281  0.5251
  131MOL   N11018570   6.431   7.909   1.296  0.0049  0.2677  0.5851
  131MOL   H11118571   6.776   7.816   1.306 -1.1701 -3.1661 -0.3797
  131MOL   H11218572   6.825   7.727   1.444  0.2199  1.3280 -0.1815
  131MOL   H11318573   6.579   7.725   1.511 -0.7787 -0.0950 -0.2685
  131MOL   C11418574   6.615   7.603   1.351  0.5682  0.2026 -0.2688
  131MOL   C11518575   6.478   7.527   1.338 -0.1768 -0.2748 -0.5503
  131MOL   C11618576   6.515   7.430   1.229 -0.9609 -0.1598  0.5164
  131MOL   N11718577   6.544   7.346   1.154  0.4753 -0.5178 -0.4355
  131MOL   H11818578   6.647   7.623   1.249 -2.2253  3.1600 -0.6722
  131MOL   H11918579   6.689   7.544   1.405  0.0418  0.0893  0.3392
  131MOL   H12018580   6.398   7.578   1.284  0.0814 -0.1939 -0.8645
  131MOL   C12118581   6.421   7.441   1.452 -0.3702 -0.3637 -0.0495
  131MOL   C12218582   6.328   7.508   1.551  0.3782  0.4460 -0.4513
  131MOL   C12318583   6.236   7.589   1.471 -0.3143  0.3730  0.1110
  131MOL   N12418584   6.170   7.655   1.405 -0.6982  0.3122  0.2427
  131MOL   H12518585   6.368   7.362   1.398 -1.5259  1.7216 -2.0180
  131MOL   H12618586   6.504   7.389   1.502  0.9410  0.6229 -1.1742
  131MOL   H12718587   6.377   7.572   1.624  1.0498 -0.4172 -0.1342
  131MOL   C12818588   6.229   7.423   1.630 -0.1090  0.3216  0.0682
  131MOL   C12918589   6.269   7.375   1.774 -0.0574 -0.6117  0.4124
  131MOL   C13018590   6.380   7.283   1.763 -0.0094  0.3805  0.0457
  131MOL   N13118591   6.471   7.207   1.753 -0.7217  0.3883  0.7417
  131MOL   H13218592   6.137   7.480   1.640 -0.4648 -0.2903  0.2659
  131MOL   H13318593   6.209   7.336   1.568 -0.8693  1.6707 -1.6594
  131MOL   H13418594   6.193   7.304   1.806 -0.3135  0.1281  1.4631
  131MOL   C13518595   6.299   7.486   1.879 -0.8487 -0.2328  0.7632
  131MOL   C13618596   6.175   7.544   1.944  0.5464  0.8372 -0.9458
  131MOL   C13718597   6.106   7.628   1.848  0.1871  1.0506 -0.0929
  131MOL   N13818598   6.055   7.692   1.766  0.3380 -0.4436 -0.2860
  131MOL   H13918599   6.373   7.460   1.954 -1.1918 -1.7357  0.5919
  131MOL   H14018600   6.357   7.565   1.831 -1.3287 -1.3807 -1.8270
  131MOL   H14118601   6.194   7.603   2.035 -0.5861  0.2318 -0.3080
  131MOL   H14218602   6.109   7.465   1.979  1.1787  1.4269  1.6915
  132MOL     C118603   7.339   0.085   3.595 -0.2091  0.3107  0.4164
  132MOL     C218604   7.465   0.167   3.558  0.4577  0.1544  0.0891
  132MOL     C318605   7.455   0.282   3.650  0.6928 -0.0650 -0.6999
  132MOL     N418606   7.457   0.374   3.725 -0.3462  0.2313  0.4884
  132MOL     H518607   7.340   8.300   3.547  2.9621  1.0326 -1.0670
  132MOL     H618608   7.243   0.133   3.571  0.1044  1.3927  1.2859
  132MOL     H718609   7.454   0.199   3.454  1.4932  0.6652  0.1342
  132MOL     H818610   7.327   0.069   3.702  0.8681  0.3081  0.5395
  132MOL     C918611   7.590   0.081   3.587 -0.1460  0.1404 -0.1426
  132MOL    C1018612   7.650   0.015   3.456  0.5353 -0.1533  0.7076
  132MOL    C1118613   7.792   8.304   3.478 -0.3500 -0.0440 -0.3270
  132MOL    N1218614   7.905   8.288   3.496 -0.5979 -0.1572  0.3949
  132MOL    H1318615   7.663   0.154   3.621  0.4076  0.3474 -1.7487
  132MOL    H1418616   7.572   0.008   3.666  0.7994 -0.2202 -0.2648
  132MOL    H1518617   7.652   0.095   3.381 -2.0549 -2.4120 -1.8806
  132MOL    C1618618   7.567   8.204   3.404  0.1295  0.4647  0.1194
  132MOL    C1718619   7.642   8.128   3.296  0.2942 -0.3518  0.1398
  132MOL    C1818620   7.567   8.006   3.255  1.0969  0.3232 -0.0192
  132MOL    N1918621   7.503   7.918   3.213 -0.4517  0.9160  0.1121
  132MOL    H2018622   7.555   8.141   3.492  1.2221 -0.2442 -0.2257
  132MOL    H2118623   7.465   8.226   3.371  0.0562 -0.0455  0.0102
  132MOL    H2218624   7.736   8.088   3.335  1.3541 -2.7125 -4.4617
  132MOL    C2318625   7.667   8.206   3.163 -0.0930 -0.3707  0.7102
  132MOL    C2418626   7.541   8.256   3.092  0.5152 -0.5646  0.5080
  132MOL    C2518627   7.502   0.079   3.138  0.4814  0.4406 -0.1356
  132MOL    N2618628   7.467   0.183   3.180 -0.4877  0.0678 -0.0665
  132MOL    H2718629   7.741   8.286   3.173 -1.5871  1.1648 -0.1757
  132MOL    H2818630   7.709   8.128   3.100  0.1225 -0.4396  0.9355
  132MOL    H2918631   7.461   8.187   3.121  1.4289 -0.6376  3.0241
  132MOL    C3018632   7.560   8.244   2.938 -0.5131 -0.0729  0.3791
  132MOL    C3118633   7.649   0.049   2.890 -0.6479 -0.7086  0.1605
  132MOL    C3218634   7.723   0.006   2.769 -0.1148  0.7456  0.2880
  132MOL    N3318635   7.782   8.287   2.677  0.4448 -0.2184 -0.4200
  132MOL    H3418636   7.603   8.145   2.918 -1.9023 -1.0197  1.9360
  132MOL    H3518637   7.466   8.234   2.884 -0.6017  0.4685  0.4344
  132MOL    H3618638   7.729   0.065   2.963  0.3644 -0.4136 -0.9967
  132MOL    C3718639   7.566   0.176   2.860 -0.1833 -0.6289  0.5533
  132MOL    C3818640   7.637   0.305   2.917  0.5067 -0.8490 -0.2998
  132MOL    C3918641   7.771   0.344   2.867  0.6522  0.3553 -0.0300
  132MOL    N4018642   7.874   0.376   2.825 -0.2614  0.6103 -0.0664
  132MOL    H4118643   7.546   0.192   2.754 -2.5246  1.0427  1.2217
  132MOL    H4218644   7.464   0.178   2.897  0.3992  1.0661  2.1429
  132MOL    H4318645   7.657   0.276   3.020  0.7749 -0.2203 -0.1747
  132MOL    C4418646   7.552   0.431   2.931 -0.0204 -0.4282  0.3149
  132MOL    C4518647   7.626   0.529   3.030  0.2873 -0.4536 -0.7030
  132MOL    C4618648   7.681   0.646   2.964  0.1118  0.2665  0.1566
  132MOL    N4718649   7.716   0.742   2.909 -0.2542  0.1071 -0.5662
  132MOL    H4818650   7.557   0.484   2.836  0.3362 -3.6666 -1.5452
  132MOL    H4918651   7.445   0.416   2.945 -0.7175  3.5568  0.0131
  132MOL    H5018652   7.715   0.482   3.071  1.0761  2.0958  0.6028
  132MOL    C5118653   7.535   0.552   3.147  0.2114  0.1189 -0.9604
  132MOL    C5218654   7.596   0.587   3.283  0.3784 -0.2615  0.2808
  132MOL    C5318655   7.641   0.720   3.276 -0.2696  0.0449 -0.2832
  132MOL    N5418656   7.680   0.830   3.282  0.0949 -0.5132 -0.4688
  132MOL    H5518657   7.463   0.627   3.114 -0.5449  0.3191  1.0501
  132MOL    H5618658   7.476   0.461   3.158 -0.4496  0.5988 -0.4268
  132MOL    H5718659   7.682   0.523   3.305  1.1488  0.5172 -0.4464
  132MOL    C5818660   7.489   0.559   3.396 -0.0536 -0.0293  0.0842
  132MOL    C5918661   7.357   0.638   3.381  0.1263 -0.5757 -0.1146
  132MOL    C6018662   7.256   0.576   3.287  0.0434  0.5849  0.0048
  132MOL    N6118663   7.182   0.520   3.214 -0.2524  0.2977  0.1481
  132MOL    H6218664   7.464   0.453   3.390 -1.3420  0.2949 -0.5719
  132MOL    H6318665   7.526   0.565   3.498  1.9177  2.5313 -0.7458
  132MOL    H6418666   7.379   0.737   3.342 -2.7210 -0.0711 -0.5511
  132MOL    C6518667   7.293   0.665   3.521 -0.7773 -0.2221 -0.6719
  132MOL    C6618668   7.358   0.779   3.598  0.4578 -0.5867  0.6905
  132MOL    C6718669   7.307   0.911   3.545 -0.0736 -0.4632 -0.7592
  132MOL    N6818670   7.268   1.016   3.506  0.4668 -0.1522  0.5216
  132MOL    H6918671   7.188   0.690   3.510 -1.2756 -1.7055  0.5435
  132MOL    H7018672   7.305   0.572   3.577  1.9436  0.2404 -0.4294
  132MOL    H7118673   7.464   0.788   3.575  0.1481 -1.1875 -0.9895
  132MOL    C7218674   7.340   0.756   3.749  0.3198 -0.2494 -0.4233
  132MOL    C7318675   7.425   0.849   3.837 -0.6174  0.8504  0.1944
  132MOL    C7418676   7.397   0.993   3.824 -0.2546  0.4964  0.4413
  132MOL    N7518677   7.380   1.106   3.821  0.5613  0.6481  0.0196
  132MOL    H7618678   7.235   0.768   3.776 -0.1264  1.4678 -2.6879
  132MOL    H7718679   7.357   0.650   3.768  1.0810 -0.0919 -0.2233
  132MOL    H7818680   7.524   0.843   3.792  0.3847 -1.9296  2.5928
  132MOL    C7918681   7.421   0.810   3.990 -0.0347 -0.3511  0.3209
  132MOL    C8018682   7.517   0.693   4.027  0.0724 -0.5101 -0.2196
  132MOL    C8118683   7.650   0.705   3.979  0.5047 -0.1119 -0.4522
  132MOL    N8218684   7.756   0.709   3.935  0.2808 -0.2734  0.1636
  132MOL    H8318685   7.467   0.893   4.044 -1.5818  1.9946 -1.9003
  132MOL    H8418686   7.319   0.804   4.028 -0.1187 -3.5703 -0.2859
  132MOL    H8518687   7.473   0.604   3.983  2.9158 -1.2520 -1.6342
  132MOL    C8618688   7.503   0.669   4.173  0.6057 -0.0978 -0.5311
  132MOL    C8718689   7.550   0.522   4.198 -0.6051  0.3415  0.2248
  132MOL    C8818690   7.589   0.504   4.338  0.1182  0.2676  0.3211
  132MOL    N8918691   7.625   0.498   4.449  0.2401  0.6947  0.0563
  132MOL    H9018692   7.545   0.744   4.240  0.3103 -0.1177 -0.3165
  132MOL    H9118693   7.396   0.673   4.198  0.8175  2.1630  0.0967
  132MOL    H9218694   7.645   0.510   4.145 -0.6138  0.4853  0.1770
  132MOL    C9318695   7.453   0.407   4.162  0.0725 -0.2035 -0.7269
  132MOL    C9418696   7.520   0.263   4.185  0.5449 -0.4806  0.2042
  132MOL    C9518697   7.420   0.150   4.189  0.3150 -0.3886 -0.2076
  132MOL    N9618698   7.343   0.065   4.188  0.2074 -0.8831  0.5845
  132MOL    H9718699   7.369   0.416   4.231  0.2280 -1.1936 -0.3904
  132MOL    H9818700   7.432   0.414   4.056 -0.6487 -1.1852 -0.6613
  132MOL    H9918701   7.565   0.252   4.283 -1.5893  0.7598  1.3439
  132MOL   C10018702   7.631   0.233   4.071  0.5750 -0.3584  0.1293
  132MOL   C10118703   7.669   0.091   4.066 -0.3441 -0.7332 -0.0653
  132MOL   C10218704   7.736   0.083   3.938  0.9542 -0.7542  0.5621
  132MOL   N10318705   7.783   0.083   3.832 -0.1331 -0.4834 -0.2742
  132MOL   H10418706   7.584   0.263   3.977  2.2924 -0.0988 -0.6643
  132MOL   H10518707   7.722   0.292   4.080 -0.5903  1.4467  0.3255
  132MOL   H10618708   7.581   0.027   4.061 -0.1728 -1.0702  1.0642
  132MOL   C10718709   7.768   0.052   4.174 -0.3488 -0.5393  0.5249
  132MOL   C10818710   7.805   8.222   4.185  0.6557  0.3542 -0.2535
  132MOL   C10918711   7.689   8.137   4.223  0.1860  0.3249  0.7183
  132MOL   N11018712   7.592   8.076   4.262  0.0835  0.4522  0.3607
  132MOL   H11118713   7.861   0.099   4.143  0.4131 -1.9695  0.6141
  132MOL   H11218714   7.730   0.092   4.268  0.7159 -1.5576  1.3960
  132MOL   H11318715   7.873   8.215   4.269 -1.7944 -1.4493  1.6519
  132MOL   C11418716   7.864   8.154   4.068 -0.3190 -0.3247 -0.7255
  132MOL   C11518717   8.000   8.211   4.004  0.4147 -0.3014  0.0178
  132MOL   C11618718   8.115   8.217   4.095  0.3650 -0.1061 -0.6172
  132MOL   N11718719   8.202   8.227   4.171 -0.1128  0.4423 -0.4330
  132MOL   H11818720   7.882   8.051   4.099  2.5517 -0.2695 -2.0477
  132MOL   H11918721   7.784   8.136   3.996 -0.9835  0.6553 -0.2342
  132MOL   H12018722   7.990   0.006   3.989 -0.2743 -0.3360  0.1866
  132MOL   C12118723   8.038   8.155   3.863  0.2476  0.0434 -0.0802
  132MOL   C12218724   8.147   8.049   3.848 -0.2060 -0.4473 -0.4205
  132MOL   C12318725   8.116   7.938   3.934  0.1467  0.1845 -0.3855
  132MOL   N12418726   8.091   7.853   4.005  0.5594  0.4620 -0.4615
  132MOL   H12518727   7.952   8.128   3.802  2.2652 -0.5541 -2.8045
  132MOL   H12618728   8.074   8.237   3.800 -1.8367  1.8030  0.9354
  132MOL   H12718729   8.237   8.095   3.889 -1.5206  0.8445  1.0783
  132MOL   C12818730   8.161   7.992   3.705 -0.2141  0.2054  0.1983
  132MOL   C12918731   8.180   8.096   3.590  0.3825 -0.4160  0.0905
  132MOL   C13018732   8.280   8.195   3.615  0.4290  0.0447 -0.5214
  132MOL   N13118733   0.049   8.273   3.648  0.1761  0.0478 -0.3632
  132MOL   H13218734   8.251   7.931   3.703 -1.0866 -1.1950  2.0024
  132MOL   H13318735   8.072   7.932   3.687 -0.2462  0.3944 -0.2854
  132MOL   H13418736   8.082   8.140   3.574  0.4859  0.5392  1.9888
  132MOL   C13518737   8.212   8.041   3.454  0.1982  0.5793 -0.6856
  132MOL   C13618738   8.221   8.147   3.340 -0.2372  0.4937 -0.1688
  132MOL   C13718739   8.106   8.148   3.241  0.0360  0.6751  0.4412
  132MOL   N13818740   8.017   8.147   3.163  0.1153  0.1463 -0.7014
  132MOL   H13918741   0.002   8.004   3.463  0.0298  0.7469  2.3591
  132MOL   H14018742   8.148   7.954   3.436 -2.0160  1.7398  1.2628
  132MOL   H14118743   8.312   8.147   3.279  0.1610 -2.2478  0.3700
  132MOL   H14218744   8.205   8.246   3.384 -1.7860  0.1567  0.0422
  133MOL     C118745   1.192   6.690   7.842  0.0404  0.1159 -0.4266
  133MOL     C218746   1.307   6.753   7.765  0.0502  0.4997  0.0873
  133MOL     C318747   1.254   6.868   7.685 -0.6303 -0.2269 -0.5292
  133MOL     N418748   1.212   6.956   7.620 -0.2432  0.3223 -0.0201
  133MOL     H518749   1.120   6.637   7.780 -0.0485  0.1535 -0.3559
  133MOL     H618750   1.139   6.775   7.887  1.1833  0.7541 -0.2603
  133MOL     H718751   1.340   6.675   7.696  3.0246 -0.2488  2.2528
  133MOL     H818752   1.231   6.641   7.931  2.9055  2.4945 -0.2772
  133MOL     C918753   1.430   6.799   7.853  0.6018 -0.1307 -0.4303
  133MOL    C1018754   1.430   6.930   7.935 -0.4613  0.5757  0.4237
  133MOL    C1118755   1.300   6.960   7.995 -0.3149 -0.9551 -0.3586
  133MOL    N1218756   1.197   6.989   8.042 -0.5456  0.3701  0.4294
  133MOL    H1318757   1.464   6.714   7.914 -2.4668 -2.1442 -1.4329
  133MOL    H1418758   1.512   6.804   7.781  1.4240  2.2473  0.6272
  133MOL    H1518759   1.443   7.004   7.856 -2.1097 -0.0454 -0.4529
  133MOL    C1618760   1.536   6.952   8.044  0.5080 -0.6649 -0.3641
  133MOL    C1718761   1.679   6.944   7.991 -0.1626  0.0911  0.0843
  133MOL    C1818762   1.715   7.023   7.869  0.7295  0.3768 -0.1402
  133MOL    N1918763   1.740   7.089   7.772 -0.0193  0.3859 -0.4914
  133MOL    H2018764   1.502   7.038   8.102  1.7494  0.7558 -1.6893
  133MOL    H2118765   1.522   6.877   8.122  1.1572 -0.1030  0.3036
  133MOL    H2218766   1.681   6.850   7.937  1.9274  0.3187 -0.2644
  133MOL    C2318767   1.781   6.941   8.107 -0.8562 -0.2405  0.2639
  133MOL    C2418768   1.773   6.811   8.191  0.0751 -0.7784 -0.2626
  133MOL    C2518769   1.733   6.688   8.117 -0.7066 -0.3096  0.2392
  133MOL    N2618770   1.704   6.589   8.063 -0.0618  0.4003 -0.7580
  133MOL    H2718771   1.883   6.952   8.070 -2.2923  1.5939 -3.4010
  133MOL    H2818772   1.781   7.036   8.161  0.0201 -0.0098 -0.1332
  133MOL    H2918773   1.698   6.825   8.268 -0.0313 -0.4558 -0.4222
  133MOL    C3018774   1.907   6.782   8.255  0.2186 -0.9619 -0.0652
  133MOL    C3118775   1.919   6.657   0.036  0.2763  0.2993 -0.1906
  133MOL    C3218776   2.063   6.635   0.060 -0.4289 -0.0826  0.2632
  133MOL    N3318777   2.180   6.621   0.082 -0.4440  0.0712 -0.3209
  133MOL    H3418778   1.982   6.766   8.178  0.4527  2.2521 -0.5663
  133MOL    H3518779   1.927   6.865   0.011 -2.4922 -2.0710  2.1812
  133MOL    H3618780   1.871   6.571   8.301 -1.2892 -0.4413  2.6549
  133MOL    C3718781   1.841   6.676   0.171  0.2336  0.4076 -0.5802
  133MOL    C3818782   1.805   6.555   0.257  0.5782 -0.1913 -0.4259
  133MOL    C3918783   1.929   6.501   0.322  0.7219 -0.5038 -0.2463
  133MOL    N4018784   2.018   6.456   0.371 -0.9105 -0.4499  0.2040
  133MOL    H4118785   1.896   6.741   0.239  0.9990 -0.7848 -0.0400
  133MOL    H4218786   1.756   6.739   0.145  0.3313  0.0100 -1.9117
  133MOL    H4318787   1.779   6.466   0.199  1.0673 -0.8547  0.3678
  133MOL    C4418788   1.697   6.596   0.363 -0.9110 -0.7421  0.3693
  133MOL    C4518789   1.619   6.496   0.437  0.5944 -0.6894  0.4645
  133MOL    C4618790   1.703   6.385   0.490  0.1272 -0.3367 -0.6512
  133MOL    N4718791   1.762   6.296   0.532  0.1109  0.3873 -0.2182
  133MOL    H4818792   1.741   6.674   0.424 -1.8197 -0.0567  0.1615
  133MOL    H4918793   1.620   6.646   0.305 -1.3854 -1.1331  0.6553
  133MOL    H5018794   1.548   6.453   0.367 -1.1211  2.3876  0.2289
  133MOL    C5118795   1.529   6.553   0.556  0.0052 -0.5379 -0.3893
  133MOL    C5218796   1.449   6.679   0.520  0.3186 -0.1198  0.5794
  133MOL    C5318797   1.344   6.633   0.431 -0.2276  0.0890 -0.0826
  133MOL    N5418798   1.263   6.589   0.363 -0.2108  0.5842 -0.0884
  133MOL    H5518799   1.466   6.475   0.598  2.0455  0.2723  4.5009
  133MOL    H5618800   1.592   6.582   0.640 -0.2254 -1.0673 -0.0290
  133MOL    H5718801   1.503   6.755   0.464  0.8115  0.5485  1.9308
  133MOL    C5818802   1.385   6.749   0.639  0.1962  1.0005  0.0044
  133MOL    C5918803   1.488   6.825   0.723 -0.0209  1.1227 -0.6718
  133MOL    C6018804   1.564   6.931   0.656  0.3869 -0.3185 -0.5697
  133MOL    N6118805   1.624   7.017   0.602 -0.5383 -0.5901 -0.7576
  133MOL    H6218806   1.305   6.817   0.612  0.1230  0.2629 -1.7097
  133MOL    H6318807   1.353   6.663   0.698 -0.7475  1.0425 -0.4404
  133MOL    H6418808   1.571   6.757   0.743 -0.1090  0.5490 -2.1788
  133MOL    C6518809   1.427   6.863   0.857  0.4100  0.0332  0.3403
  133MOL    C6618810   1.380   6.748   0.953 -0.7257  0.1166  0.1306
  133MOL    C6718811   1.481   6.652   0.970 -0.5522 -0.0213 -0.2226
  133MOL    N6818812   1.566   6.572   0.989 -0.9926 -0.1362  0.2100
  133MOL    H6918813   1.490   6.926   0.919 -0.4030  1.9818 -0.7816
  133MOL    H7018814   1.341   6.927   0.836 -0.2391 -0.0678  2.4818
  133MOL    H7118815   1.307   6.690   0.898 -1.0568  1.3801 -0.7897
  133MOL    C7218816   1.315   6.803   1.089 -0.3619 -0.0452 -0.0374
  133MOL    C7318817   1.240   6.689   1.164  0.5147 -0.4025  0.0688
  133MOL    C7418818   1.337   6.600   1.233 -0.5017  0.4060 -0.1296
  133MOL    N7518819   1.407   6.527   1.286  0.4594  0.8044  0.5992
  133MOL    H7618820   1.398   6.839   1.148 -0.2325  0.9821 -0.8250
  133MOL    H7718821   1.242   6.882   1.071 -0.0674  0.2340  0.0124
  133MOL    H7818822   1.188   6.625   1.093  0.5066 -0.3533  0.0302
  133MOL    C7918823   1.125   6.743   1.261 -0.7872  0.1109 -0.4719
  133MOL    C8018824   1.180   6.828   1.380 -0.2298  0.9022  0.4476
  133MOL    C8118825   1.120   6.968   1.372  0.7789  0.2483  0.5444
  133MOL    N8218826   1.069   7.067   1.361  0.6927 -0.2842 -0.4832
  133MOL    H8318827   1.055   6.803   1.203  0.7625  0.3105 -2.1845
  133MOL    H8418828   1.070   6.657   1.301 -5.0986  2.0280 -2.0184
  133MOL    H8518829   1.288   6.830   1.363 -0.2369  1.6022  0.4567
  133MOL    C8618830   1.170   6.763   1.524  0.0761 -0.2160  0.2203
  133MOL    C8718831   1.195   6.856   1.651 -0.1425  0.5018  0.1845
  133MOL    C8818832   1.097   6.963   1.667 -0.3794 -0.4426  0.5032
  133MOL    N8918833   1.026   7.054   1.684  0.5968  0.0072  0.1935
  133MOL    H9018834   1.066   6.731   1.528 -0.0965  0.0300 -1.8454
  133MOL    H9118835   1.233   6.674   1.531  0.2778  0.1278  3.3945
  133MOL    H9218836   1.287   6.911   1.632  0.0721  0.3131  0.6631
  133MOL    C9318837   1.228   6.785   1.788 -0.6058 -0.5772  0.4322
  133MOL    C9418838   1.126   6.682   1.852 -0.2422 -0.0947  1.3864
  133MOL    C9518839   1.141   6.551   1.786  0.7282  0.2304 -0.1930
  133MOL    N9618840   1.152   6.444   1.731 -0.1978 -0.3255  0.0194
  133MOL    H9718841   1.323   6.736   1.769 -0.3277  0.0502  0.2127
  133MOL    H9818842   1.261   6.869   1.849 -2.7722  0.4957  0.1738
  133MOL    H9918843   1.026   6.723   1.838 -0.0991 -0.5076 -0.9969
  133MOL   C10018844   1.136   6.670   2.006 -0.2241 -0.1074  0.1706
  133MOL   C10118845   1.279   6.630   2.061  0.0816  0.0289  0.9639
  133MOL   C10218846   1.297   6.672   2.199  0.3266 -0.2561  0.2093
  133MOL   N10318847   1.315   6.703   2.307  0.8328  0.1431  0.2457
  133MOL   H10418848   1.122   6.771   2.045 -0.3989 -0.2329  0.4259
  133MOL   H10518849   1.060   6.602   2.045 -1.1256  0.3741 -0.7113
  133MOL   H10618850   1.352   6.697   2.015  0.2573 -2.2398 -2.1856
  133MOL   C10718851   1.319   6.484   2.049  0.0342 -0.2736 -0.2187
  133MOL   C10818852   1.472   6.457   2.042 -0.2985 -0.4101 -0.4900
  133MOL   C10918853   1.518   6.528   1.926 -0.4583 -0.1908  0.1098
  133MOL   N11018854   1.545   6.592   1.833 -0.0048 -0.5385 -0.2430
  133MOL   H11118855   1.272   6.422   2.126  1.6763 -2.2952 -0.7715
  133MOL   H11218856   1.280   6.451   1.953 -0.1107  0.3628 -0.3782
  133MOL   H11318857   1.489   6.351   2.022  0.7887 -0.5566  1.1576
  133MOL   C11418858   1.551   6.505   2.168 -0.6486  0.0424 -0.3601
  133MOL   C11518859   1.527   6.408   2.283 -0.2977  0.3875 -0.2165
  133MOL   C11618860   1.537   6.272   2.233 -0.1966  0.1657 -0.0259
  133MOL   N11718861   1.542   6.167   2.194 -0.6503 -0.0051 -0.3439
  133MOL   H11818862   1.658   6.510   2.147  0.0881  1.2546  3.3183
  133MOL   H11918863   1.526   6.608   2.190  0.8038  0.4264 -0.4591
  133MOL   H12018864   1.424   6.421   2.318 -0.5382 -1.3070 -0.2851
  133MOL   C12118865   1.619   6.426   2.398  0.0449  0.3447 -0.6881
  133MOL   C12218866   1.608   6.326   2.514 -0.0490 -0.1768  0.3156
  133MOL   C12318867   1.706   6.358   2.612  0.0807 -0.4467  0.0615
  133MOL   N12418868   1.784   6.389   2.690 -0.1605  0.3868 -0.3188
  133MOL   H12518869   1.710   6.407   2.342  2.4261 -0.8322  3.3414
  133MOL   H12618870   1.626   6.528   2.434  0.5933 -0.1896  0.7825
  133MOL   H12718871   1.622   6.227   2.469 -0.0146  0.2416 -0.5961
  133MOL   C12818872   1.473   6.331   2.587 -0.4197 -0.1149 -0.1735
  133MOL   C12918873   1.462   6.225   2.697 -0.2828  0.5598  0.5826
  133MOL   C13018874   1.336   6.243   2.757  0.5557 -0.2244  0.4752
  133MOL   N13118875   1.236   6.262   2.814 -0.3635  0.5649  1.1276
  133MOL   H13218876   1.463   6.432   2.627 -1.2515 -0.2513 -0.0345
  133MOL   H13318877   1.386   6.327   2.521  0.2288 -2.6090 -0.9120
  133MOL   H13418878   1.531   6.251   2.776 -0.0858 -3.1047  1.6903
  133MOL   C13518879   1.476   6.084   2.648  0.0455  0.1480  0.3396
  133MOL   C13618880   1.432   5.980   2.761 -0.4609  0.5935 -0.9926
  133MOL   C13718881   1.470   5.840   2.728 -0.5972 -0.3286 -0.4475
  133MOL   N13818882   1.502   5.733   2.690  0.2591 -0.8214 -0.5422
  133MOL   H13918883   1.414   6.062   2.561  0.6150  0.6318 -0.1987
  133MOL   H14018884   1.575   6.066   2.606  0.4739  4.3761 -0.7328
  133MOL   H14118885   1.325   5.997   2.763 -0.2722  2.0824 -2.0866
  133MOL   H14218886   1.485   6.003   2.853  2.6198 -2.3407 -1.9115
  134MOL     C118887   3.983   7.052   3.227  0.4547  0.1140  0.8612
  134MOL     C218888   4.114   7.036   3.309 -0.0114 -0.3880  0.4243
  134MOL     C318889   4.105   6.958   3.432  0.2680 -0.1797 -0.1483
  134MOL     N418890   4.086   6.896   3.530  0.1632  0.0507 -0.4402
  134MOL     H518891   3.957   6.958   3.177  0.6950  1.0460 -1.0466
  134MOL     H618892   3.993   7.108   3.135 -0.8155 -1.7097 -0.4247
  134MOL     H718893   4.136   7.140   3.332  2.0344 -0.6030 -0.4754
  134MOL     H818894   3.912   7.101   3.294  1.1526  3.1737 -0.5926
  134MOL     C918895   4.221   6.980   3.213  0.2540 -0.1320  0.0296
  134MOL    C1018896   4.359   6.946   3.270 -1.2470  0.0451  0.3900
  134MOL    C1118897   4.366   6.816   3.331 -0.1024 -0.4624  0.7005
  134MOL    N1218898   4.367   6.712   3.385 -0.1123 -0.1655  0.5608
  134MOL    H1318899   4.183   6.886   3.170 -1.6119  0.0089  1.2839
  134MOL    H1418900   4.230   7.051   3.132 -0.6903  2.4015  2.0658
  134MOL    H1518901   4.381   7.015   3.351  0.7797  0.8916 -0.8412
  134MOL    C1618902   4.475   6.960   3.163  0.2328  0.2828  0.2147
  134MOL    C1718903   4.616   6.929   3.219  0.5776 -0.4268 -0.2724
  134MOL    C1818904   4.695   6.873   3.109  0.0040  0.2684  0.0666
  134MOL    N1918905   4.761   6.832   3.021 -0.1951 -0.1540  0.5813
  134MOL    H2018906   4.471   6.890   3.079  1.7099 -0.6945  0.9350
  134MOL    H2118907   4.468   7.062   3.126  1.6514  0.0126 -0.8562
  134MOL    H2218908   4.604   6.849   3.292  1.2983 -0.1268  0.1731
  134MOL    C2318909   4.678   7.062   3.275 -0.7074  0.1077 -0.2951
  134MOL    C2418910   4.717   7.050   3.427 -0.0959 -0.6763  0.3032
  134MOL    C2518911   4.792   6.923   3.454  0.6037  0.3880  0.0568
  134MOL    N2618912   4.848   6.825   3.477 -0.7918 -0.9659  0.5654
  134MOL    H2718913   4.768   7.098   3.226 -1.1976  0.6667 -0.8076
  134MOL    H2818914   4.605   7.141   3.254 -1.3056 -0.6801 -1.2060
  134MOL    H2918915   4.630   7.052   3.492 -1.9569  0.4793 -2.1421
  134MOL    C3018916   4.811   7.168   3.471  0.3519  0.1575 -0.7374
  134MOL    C3118917   4.749   7.308   3.471 -0.0236 -0.0836 -0.3376
  134MOL    C3218918   4.662   7.330   3.590 -0.4536  0.4585  0.1174
  134MOL    N3318919   4.597   7.356   3.678  0.8827 -0.4612  0.2984
  134MOL    H3418920   4.839   7.151   3.574 -0.2695  0.6756 -0.4775
  134MOL    H3518921   4.902   7.171   3.411  0.8233 -1.0786 -0.0866
  134MOL    H3618922   4.681   7.310   3.386 -0.5827 -1.3048  0.0666
  134MOL    C3718923   4.860   7.415   3.455  0.7390  0.3441 -0.5243
  134MOL    C3818924   4.811   7.560   3.433 -0.3929  0.4261  0.3388
  134MOL    C3918925   4.790   7.623   3.564  0.8221  1.0758  0.1900
  134MOL    N4018926   4.767   7.675   3.661  0.0349  0.0506 -0.5899
  134MOL    H4118927   4.916   7.422   3.548 -1.1798  1.4020  0.6000
  134MOL    H4218928   4.932   7.386   3.379 -1.2074 -2.3919 -1.4114
  134MOL    H4318929   4.710   7.565   3.392 -0.5063 -2.5985  0.1388
  134MOL    C4418930   4.897   7.642   3.346 -0.2765  0.8966  0.1813
  134MOL    C4518931   4.880   7.620   3.204  0.7153  0.1774 -0.0746
  134MOL    C4618932   4.755   7.674   3.155  0.4594  0.1032 -0.4556
  134MOL    N4718933   4.655   7.715   3.119  0.0421  0.5442  0.3578
  134MOL    H4818934   4.868   7.745   3.368  1.3426  1.1832  1.0366
  134MOL    H4918935   4.998   7.630   3.384 -0.6693 -1.3895  0.5710
  134MOL    H5018936   4.871   7.512   3.190  1.4354  0.3539 -2.0322
  134MOL    C5118937   4.996   7.648   3.109 -0.1971 -0.2094  0.2768
  134MOL    C5218938   5.038   7.799   3.080 -0.0692 -0.0342 -0.1315
  134MOL    C5318939   5.097   7.855   3.199  0.2494 -0.4802 -0.3338
  134MOL    N5418940   5.145   7.905   3.292 -0.5572  0.2136  0.4093
  134MOL    H5518941   5.083   7.605   3.159  1.0217  2.1985  0.2952
  134MOL    H5618942   4.978   7.591   3.018 -2.0152  1.4787 -0.4545
  134MOL    H5718943   4.946   7.857   3.065 -0.6319  0.1817  3.5531
  134MOL    C5818944   5.140   7.805   2.957  0.1856 -0.4860  0.4971
  134MOL    C5918945   5.285   7.765   2.962  0.2180 -0.1340  0.9523
  134MOL    C6018946   5.297   7.630   3.006 -0.2415  0.3630 -0.3078
  134MOL    N6118947   5.304   7.523   3.048 -0.4963  0.8058 -0.3878
  134MOL    H6218948   5.092   7.747   2.878  0.2399 -1.9577  1.5271
  134MOL    H6318949   5.149   7.909   2.924 -0.6258  0.0854  2.0089
  134MOL    H6418950   5.329   7.827   3.039  0.2676 -1.8687  2.3374
  134MOL    C6518951   5.352   7.795   2.827 -0.0096  0.0871  0.3633
  134MOL    C6618952   5.419   7.933   2.821  0.0980 -0.3005  0.1064
  134MOL    C6718953   5.495   7.962   2.947 -0.2657 -0.0909  0.0807
  134MOL    N6818954   5.546   7.992   3.045  0.2698  0.4585  0.1808
  134MOL    H6918955   5.431   7.721   2.817 -0.4012 -0.0092 -2.3633
  134MOL    H7018956   5.282   7.782   2.745 -0.5370 -3.0554  1.2656
  134MOL    H7118957   5.343   8.009   2.807 -2.3325 -2.7136 -0.2371
  134MOL    C7218958   5.515   7.939   2.700 -0.0718 -0.5791 -0.3676
  134MOL    C7318959   5.453   7.962   2.560  0.0586  0.2878 -1.2822
  134MOL    C7418960   5.382   8.088   2.550 -0.8068 -0.4556 -0.2268
  134MOL    N7518961   5.328   8.191   2.539  0.0512 -0.4102 -0.5833
  134MOL    H7618962   5.579   8.027   2.711  0.7061 -0.9628 -1.7333
  134MOL    H7718963   5.586   7.857   2.704  1.5795  0.8620  0.3516
  134MOL    H7818964   5.369   7.892   2.560  0.8863 -0.7282 -0.6078
  134MOL    C7918965   5.544   7.932   2.437  0.6147 -0.6363  0.3101
  134MOL    C8018966   5.473   7.957   2.298 -0.5587  0.2149 -0.3979
  134MOL    C8118967   5.520   8.087   2.234 -0.0450 -0.3975 -0.0807
  134MOL    N8218968   5.547   8.190   2.188  0.3361  0.4490  0.1864
  134MOL    H8318969   5.633   7.994   2.447  2.1635 -2.8189  0.4106
  134MOL    H8418970   5.578   7.829   2.444  0.7018 -0.3651  4.7681
  134MOL    H8518971   5.367   7.977   2.315 -0.3153  2.5706 -1.5100
  134MOL    C8618972   5.485   7.853   2.194 -0.6957 -0.0326 -0.1939
  134MOL    C8718973   5.401   7.726   2.217  0.0996 -0.9120 -0.0194
  134MOL    C8818974   5.255   7.749   2.232 -0.8037 -0.0245  0.2164
  134MOL    N8918975   5.139   7.765   2.240  0.2600 -0.1335 -0.9634
  134MOL    H9018976   5.453   7.904   2.103  1.1020  0.2598 -0.6803
  134MOL    H9118977   5.590   7.827   2.178 -0.1797  0.2111  2.5252
  134MOL    H9218978   5.431   7.686   2.314  0.5146  0.6110  0.5061
  134MOL    C9318979   5.420   7.619   2.112  0.5598  0.3005  0.4183
  134MOL    C9418980   5.534   7.527   2.121  1.0627  0.5086  0.2598
  134MOL    C9518981   5.660   7.585   2.161  0.0493 -0.0781 -0.3827
  134MOL    N9618982   5.759   7.632   2.190 -0.5740 -0.1656 -0.5041
  134MOL    H9718983   5.333   7.554   2.106  2.6728 -2.6771  0.9338
  134MOL    H9818984   5.413   7.659   2.011 -2.5796 -3.3602 -0.9282
  134MOL    H9918985   5.544   7.479   2.024 -0.1272 -3.3359  1.9011
  134MOL   C10018986   5.493   7.405   2.206 -0.5500  0.1622  0.2315
  134MOL   C10118987   5.596   7.289   2.204  0.1224  0.6907  0.9363
  134MOL   C10218988   5.546   7.175   2.290  0.5274  0.5287  0.1504
  134MOL   N10318989   5.513   7.078   2.351 -0.2117 -0.0180  0.1260
  134MOL   H10418990   5.485   7.434   2.310  0.9462 -1.2291  0.7606
  134MOL   H10518991   5.402   7.352   2.179 -1.0982 -0.1556  2.5997
  134MOL   H10618992   5.687   7.313   2.257 -0.5539 -0.8333  2.8536
  134MOL   C10718993   5.622   7.249   2.055 -0.3348  0.7648 -0.2786
  134MOL   C10818994   5.654   7.101   2.031  0.7656 -0.2424 -0.9488
  134MOL   C10918995   5.661   7.072   1.887 -0.0403  0.0255  0.8479
  134MOL   N11018996   5.662   7.056   1.772 -0.6763 -0.2003  0.0434
  134MOL   H11118997   5.527   7.257   2.002 -0.9675 -1.2407  0.4815
  134MOL   H11218998   5.693   7.318   2.009  1.5052 -0.1855  1.0484
  134MOL   H11318999   5.570   7.039   2.064  1.5439 -0.8638 -0.1365
  134MOL   C11419000   5.793   7.043   2.092 -0.3433  0.2524  0.2044
  134MOL   C11519001   5.922   7.110   2.030 -0.0195  0.0000  0.7500
  134MOL   C11619002   5.935   7.243   2.091  0.2259  0.6017 -0.2363
  134MOL   N11719003   5.945   7.348   2.145 -0.2738 -0.3538 -0.3355
  134MOL   H11819004   5.809   7.062   2.198  0.7826 -2.1258  0.4862
  134MOL   H11919005   5.792   6.936   2.071 -2.4777  0.7743 -2.6800
  134MOL   H12019006   5.904   7.130   1.924 -4.1801 -2.9611  0.8186
  134MOL   C12119007   6.049   7.019   2.033  0.5956 -0.2853 -0.2503
  134MOL   C12219008   6.106   6.993   2.175 -0.5691 -0.2171  0.1286
  134MOL   C12319009   6.014   6.895   2.242  0.7507  0.0492  0.1072
  134MOL   N12419010   5.935   6.827   2.291 -0.4927  0.2083 -0.1226
  134MOL   H12519011   6.025   6.922   1.989  2.2364 -1.0972  0.6266
  134MOL   H12619012   6.128   7.072   1.980  0.8614 -0.6101 -0.1777
  134MOL   H12719013   6.133   7.085   2.227  1.5400 -1.6719  1.6990
  134MOL   C12819014   6.241   6.918   2.174  0.1831  0.1155 -0.5653
  134MOL   C12919015   6.348   6.989   2.084  0.3542  0.1966 -0.2162
  134MOL   C13019016   6.361   7.136   2.100  0.8069 -0.0425 -0.2227
  134MOL   N13119017   6.368   7.252   2.112  0.4963  0.5452 -0.0847
  134MOL   H13219018   6.286   6.886   2.268 -0.0290  1.0366 -0.1342
  134MOL   H13319019   6.214   6.822   2.131 -0.6458 -0.2749  0.7619
  134MOL   H13419020   6.311   6.969   1.983 -0.1738 -1.1880  0.2318
  134MOL   C13519021   6.488   6.926   2.091 -0.1503 -0.0869  0.1963
  134MOL   C13619022   6.573   6.952   1.964 -0.2017 -0.4794  0.2915
  134MOL   C13719023   6.716   6.915   1.971  0.0574  1.0296 -0.0636
  134MOL   N13819024   6.827   6.887   1.986  0.4393  0.4273  0.0388
  134MOL   H13919025   6.538   6.967   2.179  1.4011  0.9116 -1.1053
  134MOL   H14019026   6.500   6.819   2.103 -2.0680 -0.2736  0.6329
  134MOL   H14119027   6.567   7.054   1.928  3.2461 -0.2259  0.2492
  134MOL   H14219028   6.536   6.883   1.888 -1.7732  0.7433 -0.0711
  135MOL     C119029   0.575   6.859   1.898 -0.0991  0.1731 -0.1679
  135MOL     C219030   0.731   6.842   1.900 -0.1214  0.7996 -0.6485
  135MOL     C319031   0.780   6.816   1.767 -0.0930  0.1932  0.1770
  135MOL     N419032   0.815   6.789   1.658  0.1232 -0.0213 -0.2659
  135MOL     H519033   0.540   6.948   1.846 -0.4350  0.3125  0.2963
  135MOL     H619034   0.522   6.854   1.993  0.2733 -3.2332 -0.0609
  135MOL     H719035   0.764   6.754   1.955 -2.1256  0.6527  0.3601
  135MOL     H819036   0.525   6.789   1.831 -2.3439  0.9963  0.5948
  135MOL     C919037   0.807   6.966   1.968 -0.0057 -0.2554 -0.4171
  135MOL    C1019038   0.783   6.971   2.119 -0.2575 -0.2971 -0.0839
  135MOL    C1119039   0.864   6.859   2.180 -0.7242  0.4251  0.4859
  135MOL    N1219040   0.932   6.776   2.221 -0.1055  0.5046 -1.0465
  135MOL    H1319041   0.913   6.974   1.944  0.3281  2.3835  1.7516
  135MOL    H1419042   0.778   7.059   1.920  0.8182 -0.0561 -0.5301
  135MOL    H1519043   0.678   6.953   2.140  0.1532 -0.5286  1.8317
  135MOL    C1619044   0.813   7.107   2.175 -0.0242 -0.1449 -0.5868
  135MOL    C1719045   0.740   7.136   2.307 -0.3253  0.3979  0.2012
  135MOL    C1819046   0.598   7.122   2.316  0.3722 -0.1041  0.1532
  135MOL    N1919047   0.481   7.109   2.321 -0.6467 -0.0326  0.3209
  135MOL    H2019048   0.918   7.131   2.186 -0.0986 -0.8162  2.0233
  135MOL    H2119049   0.779   7.179   2.100 -0.6529  1.6048  1.3090
  135MOL    H2219050   0.768   7.238   2.336 -0.2442 -0.2559  2.4380
  135MOL    C2319051   0.799   7.053   2.423 -1.1321 -0.0933  0.0318
  135MOL    C2419052   0.770   7.106   2.562 -0.6314 -0.3343  0.0894
  135MOL    C2519053   0.774   6.994   2.664 -0.4303 -0.1639 -0.1418
  135MOL    N2619054   0.770   6.904   2.737  0.2764 -0.2494 -0.4805
  135MOL    H2719055   0.762   6.951   2.413  0.1869 -0.4671 -1.1687
  135MOL    H2819056   0.907   7.045   2.414 -1.1800  0.1429 -0.8291
  135MOL    H2919057   0.667   7.142   2.564 -0.2003  1.0592 -1.8630
  135MOL    C3019058   0.853   7.226   2.599 -0.6737 -0.3864 -0.2720
  135MOL    C3119059   0.854   7.263   2.750 -0.5452 -0.1904 -0.2240
  135MOL    C3219060   0.922   7.391   2.772 -0.3763 -0.2839 -0.8831
  135MOL    N3319061   0.976   7.494   2.797 -0.0066 -0.1246 -0.3070
  135MOL    H3419062   0.955   7.206   2.569 -1.0242 -1.9517 -0.5161
  135MOL    H3519063   0.815   7.315   2.550 -1.2193 -0.2387  0.3981
  135MOL    H3619064   0.908   7.181   2.798 -0.0140 -0.6727 -1.6365
  135MOL    C3719065   0.708   7.274   2.812 -0.7308 -0.0374 -0.6499
  135MOL    C3819066   0.688   7.365   2.937  0.5428  0.5525  0.6201
  135MOL    C3919067   0.546   7.411   2.955  0.0392  0.3289 -0.1048
  135MOL    N4019068   0.436   7.439   2.971  0.4961 -0.4916 -0.0537
  135MOL    H4119069   0.648   7.320   2.734  0.9416  1.2322 -1.2171
  135MOL    H4219070   0.678   7.172   2.836 -0.9639  0.5552  1.6568
  135MOL    H4319071   0.731   7.461   2.910  2.1054 -0.4218 -0.4573
  135MOL    C4419072   0.758   7.299   3.058 -0.4426 -0.5208  0.3986
  135MOL    C4519073   0.837   7.409   3.129 -0.7160 -0.8381  0.5464
  135MOL    C4619074   0.783   7.548   3.144  0.3631 -0.4281 -0.4330
  135MOL    N4719075   0.737   7.654   3.155 -0.4905 -0.0428  0.6800
  135MOL    H4819076   0.676   7.257   3.115 -0.2503  1.0999  1.9194
  135MOL    H4919077   0.832   7.224   3.030 -0.6433  0.0931 -1.8502
  135MOL    H5019078   0.927   7.436   3.073 -2.0871  1.6791 -0.5310
  135MOL    C5119079   0.879   7.375   3.269  0.0624  0.5607  0.8085
  135MOL    C5219080   1.022   7.405   3.302 -1.0182  0.4625 -0.0643
  135MOL    C5319081   1.121   7.356   3.206  0.0182  0.2100 -0.6229
  135MOL    N5419082   1.204   7.310   3.137  0.8403 -0.4131  0.0097
  135MOL    H5519083   0.808   7.421   3.338 -0.8101 -0.5803  0.7044
  135MOL    H5619084   0.856   7.269   3.284 -0.3403  0.4410 -0.5623
  135MOL    H5719085   1.041   7.345   3.391 -2.2389 -2.5348 -1.7481
  135MOL    C5819086   1.037   7.550   3.350 -0.0921 -0.1462 -0.0570
  135MOL    C5919087   1.185   7.585   3.388  0.3911  0.3826 -0.6261
  135MOL    C6019088   1.191   7.725   3.438  0.6617 -0.6846 -0.4099
  135MOL    N6119089   1.192   7.834   3.483 -0.3487 -0.6320 -1.1383
  135MOL    H6219090   1.014   7.624   3.273  1.5895  1.7466  1.2189
  135MOL    H6319091   0.973   7.585   3.431 -1.8479  2.4775 -2.4766
  135MOL    H6419092   1.235   7.584   3.291  1.5281 -2.1663 -0.0392
  135MOL    C6519093   1.264   7.477   3.477 -0.2650 -0.4797 -0.9508
  135MOL    C6619094   1.214   7.463   3.622  0.4888 -0.1381  0.0410
  135MOL    C6719095   1.069   7.423   3.630  0.3259  0.3485  0.3588
  135MOL    N6819096   0.961   7.392   3.641 -0.4173 -0.4187  0.3058
  135MOL    H6919097   1.261   7.382   3.424 -0.8618 -1.5545  0.9441
  135MOL    H7019098   1.367   7.512   3.475 -0.6708  1.1209  1.8910
  135MOL    H7119099   1.212   7.566   3.658 -2.0550  0.8944 -2.8163
  135MOL    C7219100   1.303   7.382   3.713  0.0861  0.1766  0.3321
  135MOL    C7319101   1.456   7.424   3.718 -0.1987  0.3533 -1.3030
  135MOL    C7419102   1.465   7.574   3.717  0.0931 -1.4561  0.6093
  135MOL    N7519103   1.463   7.689   3.719 -0.5868 -0.2894  0.1902
  135MOL    H7619104   1.267   7.388   3.815 -1.0618 -1.4665  0.0599
  135MOL    H7719105   1.294   7.275   3.692 -0.3742 -0.4161  3.3046
  135MOL    H7819106   1.501   7.405   3.621  0.5611  1.3286 -1.1589
  135MOL    C7919107   1.542   7.374   3.836 -0.1115 -0.5012 -0.0838
  135MOL    C8019108   1.687   7.430   3.835 -0.0302  0.0620  0.4886
  135MOL    C8119109   1.753   7.442   3.968  0.7053 -0.6220  0.0126
  135MOL    N8219110   1.799   7.450   4.071 -0.4207  0.2857 -0.3520
  135MOL    H8319111   1.492   7.396   3.930  0.8604 -0.4627  0.4308
  135MOL    H8419112   1.542   7.265   3.831 -1.0816 -0.4702 -1.1283
  135MOL    H8519113   1.681   7.535   3.806  3.3624  0.9069  2.6024
  135MOL    C8619114   1.770   7.353   3.723 -0.0879  0.7550 -0.1586
  135MOL    C8719115   1.908   7.408   3.686 -0.0522 -0.1006 -0.5293
  135MOL    C8819116   1.999   7.419   3.805 -0.4300  0.1799  0.0602
  135MOL    N8919117   2.074   7.430   3.896 -0.3488 -0.3591  0.6393
  135MOL    H9019118   1.778   7.252   3.762  0.8598  0.2180 -1.6958
  135MOL    H9119119   1.706   7.350   3.635  1.2995  3.1746 -1.3084
  135MOL    H9219120   1.900   7.512   3.655 -2.2707  0.3913  1.5633
  135MOL    C9319121   1.958   7.322   3.567 -0.2648  0.5136  0.1900
  135MOL    C9419122   2.086   7.353   3.494  0.0641 -1.2689 -0.0019
  135MOL    C9519123   2.191   7.364   3.590  1.0064  0.0123 -0.5868
  135MOL    N9619124   2.277   7.367   3.666  0.1624  0.1755 -0.1964
  135MOL    H9719125   1.958   7.219   3.602  1.7144  0.8529  1.2183
  135MOL    H9819126   1.883   7.309   3.488  2.7865 -0.9771 -2.5573
  135MOL    H9919127   2.071   7.448   3.441  2.3574 -0.2513  1.1413
  135MOL   C10019128   2.118   7.238   3.390  0.3950 -0.0881 -0.3047
  135MOL   C10119129   2.187   7.116   3.440 -0.2991  0.6194 -0.4115
  135MOL   C10219130   2.126   7.050   3.559  0.8296  1.0478 -0.0969
  135MOL   N10319131   2.072   7.002   3.651 -0.1156  0.5169 -0.1944
  135MOL   H10419132   2.021   7.220   3.343 -0.7110  2.8655  0.6821
  135MOL   H10519133   2.193   7.276   3.321  0.3338  0.2364 -0.1916
  135MOL   H10619134   2.283   7.148   3.481 -1.3139  1.5350  1.2997
  135MOL   C10719135   2.215   7.019   3.328 -0.7972  0.2058  0.2204
  135MOL   C10819136   2.258   6.875   3.371 -0.4194 -0.0325  0.5220
  135MOL   C10919137   2.132   6.801   3.384  0.3755  0.8523 -0.2147
  135MOL   N11019138   2.032   6.746   3.399 -0.6099 -0.5668  0.4434
  135MOL   H11119139   2.127   7.022   3.264  0.8842 -1.1353 -2.2142
  135MOL   H11219140   2.305   7.058   3.281 -0.3976 -0.2897  0.5665
  135MOL   H11319141   2.299   6.886   3.471  1.6017 -1.9874 -0.0420
  135MOL   C11419142   2.365   6.803   3.278 -0.4302  0.4728  0.2301
  135MOL   C11519143   2.465   6.701   3.353  0.6451 -1.0070  0.4234
  135MOL   C11619144   2.584   6.773   3.407 -0.1435 -0.0971 -0.0394
  135MOL   N11719145   2.680   6.830   3.444 -0.8392 -0.3691 -0.4864
  135MOL   H11819146   2.307   6.761   3.196  3.1132 -0.6255 -1.8318
  135MOL   H11919147   2.428   6.878   3.229 -0.1295 -0.6378 -1.0973
  135MOL   H12019148   2.500   6.628   3.280 -1.8270 -0.5741 -1.2485
  135MOL   C12119149   2.408   6.622   3.479  0.5235  0.4676 -0.1867
  135MOL   C12219150   2.516   6.542   3.556  0.5990  0.6764 -0.1409
  135MOL   C12319151   2.563   6.622   3.674  0.3052  0.1494 -1.2570
  135MOL   N12419152   2.602   6.686   3.768  0.6779 -0.0303 -0.2188
  135MOL   H12519153   2.367   6.694   3.549 -0.5221 -2.0314  1.8350
  135MOL   H12619154   2.321   6.560   3.458  0.5561  0.2455  0.3293
  135MOL   H12719155   2.605   6.521   3.496 -0.8523 -0.8484 -1.8179
  135MOL   C12819156   2.448   6.405   3.597 -0.5592  0.8022 -0.7720
  135MOL   C12919157   2.537   6.318   3.682  0.2067  0.1941  0.6433
  135MOL   C13019158   2.530   6.372   3.815 -0.5418 -0.3760  0.5293
  135MOL   N13119159   2.530   6.410   3.921  0.4065  0.0208 -0.2528
  135MOL   H13219160   2.368   6.435   3.666  0.2070  0.7564  0.1409
  135MOL   H13319161   2.401   6.352   3.514  0.8329 -0.6423 -0.6563
  135MOL   H13419162   2.637   6.336   3.643 -0.0127 -1.2447 -0.5889
  135MOL   C13519163   2.516   6.165   3.678  0.3985  0.5129 -0.9259
  135MOL   C13619164   2.570   6.087   3.562  0.2089 -1.0330  0.1559
  135MOL   C13719165   2.712   6.116   3.544 -1.1026 -0.6813  0.0239
  135MOL   N13819166   2.824   6.126   3.522  0.4278 -0.1863  0.1296
  135MOL   H13919167   2.567   6.119   3.762  1.6400  1.2069 -1.2946
  135MOL   H14019168   2.408   6.150   3.691  0.9622 -3.0177  0.0400
  135MOL   H14119169   2.512   6.122   3.477  0.1379  0.0534  0.6464
  135MOL   H14219170   2.541   5.982   3.567  1.7442 -1.4768  0.2633
  136MOL     C119171   5.296   5.834   7.129 -0.8107 -0.4678 -0.0846
  136MOL     C219172   5.396   5.725   7.104  0.6430  0.0147 -0.1292
  136MOL     C319173   5.443   5.739   6.961  0.2164  0.1844 -0.3992
  136MOL     N419174   5.472   5.750   6.854  0.3470 -0.9715 -0.4386
  136MOL     H519175   5.344   5.929   7.105 -0.4555 -0.5764  0.1941
  136MOL     H619176   5.270   5.831   7.235  0.5346 -2.2479  0.2171
  136MOL     H719177   5.345   5.629   7.109  1.1155 -0.2801 -0.9884
  136MOL     H819178   5.199   5.814   7.083 -0.8670  0.2460 -0.2793
  136MOL     C919179   5.515   5.745   7.200 -0.0728 -0.2769  0.0914
  136MOL    C1019180   5.479   5.727   7.343 -0.5790 -0.0937  0.0424
  136MOL    C1119181   5.384   5.618   7.349 -0.6798  0.2310  0.2985
  136MOL    N1219182   5.313   5.528   7.345  0.2656 -0.0498 -0.4507
  136MOL    H1319183   5.592   5.670   7.180 -0.4065 -1.7626  4.1306
  136MOL    H1419184   5.564   5.840   7.179  2.9157 -1.1553  2.7283
  136MOL    H1519185   5.431   5.817   7.381  3.7670  2.0366  0.6866
  136MOL    C1619186   5.596   5.714   7.449 -0.4414  0.1131 -0.2622
  136MOL    C1719187   5.561   5.713   7.599  0.0829  0.0860 -0.4098
  136MOL    C1819188   5.483   5.595   7.639 -0.0463 -0.4275 -0.2776
  136MOL    N1919189   5.422   5.500   7.668  0.4797  0.0712  0.3541
  136MOL    H2019190   5.653   5.625   7.421 -1.6816 -0.8095  0.1358
  136MOL    H2119191   5.673   5.789   7.428  0.2912 -0.5243  0.0911
  136MOL    H2219192   5.504   5.801   7.629  0.4364  0.8716 -1.9924
  136MOL    C2319193   5.689   5.724   7.688  0.6288 -0.8654 -0.5459
  136MOL    C2419194   5.743   5.871   7.692  0.1747  0.3148 -0.3114
  136MOL    C2519195   5.696   5.927   7.816 -0.2133  0.6084  0.4357
  136MOL    N2619196   5.659   5.979   7.913 -0.1907 -0.2846  0.3285
  136MOL    H2719197   5.682   5.683   7.788 -0.8675  2.7658  0.9301
  136MOL    H2819198   5.775   5.670   7.647  2.7108  1.6175  0.3993
  136MOL    H2919199   5.694   5.925   7.612  0.4800  1.9343  0.5826
  136MOL    C3019200   5.900   5.883   7.671 -0.3014 -0.0194  0.2120
  136MOL    C3119201   5.935   5.913   7.521 -0.2459 -0.2906 -0.5453
  136MOL    C3219202   6.053   6.002   7.518  0.5237 -0.4872 -0.5833
  136MOL    N3319203   6.146   6.074   7.506 -0.0183  0.6858 -0.0775
  136MOL    H3419204   5.930   5.972   7.726 -3.6839  3.3925 -3.2281
  136MOL    H3519205   5.955   5.797   7.712 -0.3547 -0.0505  0.2191
  136MOL    H3619206   5.854   5.966   7.471  1.5185  1.3612 -1.7487
  136MOL    C3719207   5.967   5.787   7.451  0.4021  0.1390  0.6030
  136MOL    C3819208   5.966   5.803   7.299 -0.3857  0.7291 -0.4256
  136MOL    C3919209   6.103   5.838   7.270 -0.4812 -0.1441  0.1210
  136MOL    N4019210   6.216   5.864   7.246  0.6832 -0.1428  0.9016
  136MOL    H4119211   6.062   5.745   7.485  1.1129  0.7484 -0.5667
  136MOL    H4219212   5.888   5.716   7.474  2.4556 -1.9005  1.4813
  136MOL    H4319213   5.914   5.889   7.256  0.3073  1.0177 -0.7171
  136MOL    C4419214   5.917   5.671   7.228 -0.5290  0.1173 -0.0399
  136MOL    C4519215   5.893   5.683   7.074 -0.1621  0.3578 -0.3656
  136MOL    C4619216   6.011   5.740   7.000 -0.0174  0.5537 -0.6963
  136MOL    N4719217   6.107   5.774   6.944 -0.1421  0.0529  0.6349
  136MOL    H4819218   5.991   5.595   7.252 -0.0337  0.2249 -1.2109
  136MOL    H4919219   5.825   5.646   7.280  1.0025  1.1579  3.3763
  136MOL    H5019220   5.805   5.747   7.066 -0.7923 -0.2184  1.8888
  136MOL    C5119221   5.860   5.548   7.012 -0.2496  0.0235 -0.0435
  136MOL    C5219222   5.783   5.549   6.881  0.4066 -0.1381  0.8881
  136MOL    C5319223   5.830   5.642   6.778 -0.1404  0.0625  0.5664
  136MOL    N5419224   5.870   5.710   6.696  0.7112  0.0632  0.9715
  136MOL    H5519225   5.949   5.485   7.015  1.0217  1.8038  0.3953
  136MOL    H5619226   5.792   5.494   7.078 -1.2183 -0.4035 -1.3687
  136MOL    H5719227   5.685   5.586   6.911  0.4643 -0.0094  0.9170
  136MOL    C5819228   5.769   5.403   6.826  0.0503  0.5239  0.1662
  136MOL    C5919229   5.672   5.390   6.703  0.0086 -0.1764 -0.1640
  136MOL    C6019230   5.685   5.258   6.642 -0.1094 -0.1511 -0.1033
  136MOL    N6119231   5.698   5.156   6.589  0.5847  0.5094 -0.2409
  136MOL    H6219232   5.867   5.357   6.814 -0.3135  0.0044 -0.9024
  136MOL    H6319233   5.723   5.345   6.906 -1.9195  0.8383 -0.6883
  136MOL    H6419234   5.719   5.452   6.626  0.6477  0.2329  0.5510
  136MOL    C6519235   5.524   5.436   6.735  0.8993 -0.2517  0.5141
  136MOL    C6619236   5.411   5.382   6.639 -0.3821  0.0325 -0.3168
  136MOL    C6719237   5.375   5.245   6.682 -0.8465  0.8502 -0.7151
  136MOL    N6819238   5.351   5.133   6.717 -0.0195  0.5171  0.0088
  136MOL    H6919239   5.485   5.423   6.836 -2.8339  2.5777 -0.4773
  136MOL    H7019240   5.511   5.542   6.717 -0.7631 -0.6292 -0.6497
  136MOL    H7119241   5.440   5.388   6.535 -1.4739  0.2475 -0.6090
  136MOL    C7219242   5.279   5.464   6.623 -0.1165 -0.2466 -1.1404
  136MOL    C7319243   5.166   5.402   6.536 -0.4519 -0.1939  0.4681
  136MOL    C7419244   5.037   5.462   6.570  0.4988  0.1467  0.1096
  136MOL    N7519245   4.930   5.508   6.602 -0.0573 -0.0096 -0.3803
  136MOL    H7619246   5.235   5.483   6.721  0.4677 -2.5970 -0.4035
  136MOL    H7719247   5.307   5.564   6.589  0.2426  0.1272  0.2026
  136MOL    H7819248   5.156   5.298   6.569  0.7600 -0.2797  0.6082
  136MOL    C7919249   5.200   5.412   6.385 -0.2093  0.1849  0.2015
  136MOL    C8019250   5.080   5.382   6.292 -0.8616  0.0583  0.2799
  136MOL    C8119251   5.134   5.401   6.158 -0.2069 -0.1163  0.3784
  136MOL    N8219252   5.176   5.416   6.050  0.5004  0.3944  0.1890
  136MOL    H8319253   5.239   5.510   6.357 -1.3720  0.4210 -0.6204
  136MOL    H8419254   5.279   5.340   6.366 -2.4808 -2.7700  1.4784
  136MOL    H8519255   5.006   5.459   6.314 -0.9851  0.2354 -0.7454
  136MOL    C8619256   5.006   5.249   6.306 -0.1059 -0.7424 -0.3240
  136MOL    C8719257   4.886   5.227   6.211  0.4912  1.0617 -0.3723
  136MOL    C8819258   4.793   5.341   6.199 -0.9583  0.0803 -0.4987
  136MOL    N8919259   4.718   5.429   6.188 -0.0318 -0.3047  0.1275
  136MOL    H9019260   5.068   5.159   6.305 -0.3777 -0.9729  1.6447
  136MOL    H9119261   4.960   5.259   6.405  1.4161  1.3886  0.1878
  136MOL    H9219262   4.818   5.155   6.256  0.3716  0.4468 -1.5170
  136MOL    C9319263   4.921   5.158   6.081 -0.2641  0.6280 -0.2908
  136MOL    C9419264   4.803   5.067   6.027  0.2663 -0.7181 -0.6991
  136MOL    C9519265   4.670   5.131   5.998 -0.1453 -0.0697 -0.0187
  136MOL    N9619266   4.568   5.177   5.984  0.0892 -0.5804  0.1642
  136MOL    H9719267   4.944   5.241   6.014 -1.1669  0.3872 -0.8924
  136MOL    H9819268   5.013   5.101   6.084  0.3451  1.6231  0.3339
  136MOL    H9919269   4.777   4.995   6.105  0.1104 -0.7963 -0.8211
  136MOL   C10019270   4.848   4.981   5.906 -0.5555 -0.0245 -0.3975
  136MOL   C10119271   4.914   4.851   5.945  0.5721 -0.0901  0.1243
  136MOL   C10219272   4.816   4.776   6.031 -0.3927  1.3090 -0.0902
  136MOL   N10319273   4.741   4.723   6.104 -0.3441  0.3816  0.2865
  136MOL   H10419274   4.761   4.961   5.844 -1.9445  1.7168  0.9188
  136MOL   H10519275   4.927   5.033   5.851  2.8342 -2.0826  2.3327
  136MOL   H10619276   5.000   4.869   6.009  0.7567  0.6965 -0.3423
  136MOL   C10719277   4.952   4.765   5.815 -0.0957  0.2322 -0.6753
  136MOL   C10819278   5.078   4.823   5.751  0.6234  0.1324  0.0148
  136MOL   C10919279   5.188   4.880   5.837  0.5574 -0.0854  0.4658
  136MOL   N11019280   5.275   4.915   5.898  0.3036 -0.1013  0.6239
  136MOL   H11119281   4.982   4.663   5.843 -1.3061 -0.0030 -0.1940
  136MOL   H11219282   4.875   4.755   5.739 -1.0893  0.4003  0.2900
  136MOL   H11319283   5.036   4.912   5.705  2.3910  0.5847 -0.7722
  136MOL   C11419284   5.135   4.732   5.633  1.1006 -0.5879  0.3563
  136MOL   C11519285   5.041   4.750   5.512  0.3056  0.4260  0.4918
  136MOL   C11619286   5.023   4.892   5.478  0.1667  0.0990  0.4928
  136MOL   N11719287   5.008   5.007   5.450  0.2260 -0.1637 -0.1405
  136MOL   H11819288   5.225   4.775   5.589 -0.0051  0.0256 -1.3683
  136MOL   H11919289   5.147   4.626   5.656  0.9855 -0.7677 -0.4111
  136MOL   H12019290   4.940   4.712   5.528  0.7049 -0.2691  1.4553
  136MOL   C12119291   5.082   4.669   5.387 -0.2324 -0.2189 -0.3622
  136MOL   C12219292   5.020   4.699   5.252  0.7004 -0.0878 -0.3749
  136MOL   C12319293   5.077   4.600   5.159  0.2414  0.2667 -0.7218
  136MOL   N12419294   5.121   4.522   5.084 -0.1849  0.5522  0.1513
  136MOL   H12519295   5.190   4.681   5.377 -0.4703  0.8275 -1.7909
  136MOL   H12619296   5.075   4.562   5.410  0.0938 -0.1683 -0.0142
  136MOL   H12719297   5.053   4.798   5.217  1.2594  0.0257  0.4577
  136MOL   C12819298   4.860   4.706   5.249 -0.5448  0.0904  0.6437
  136MOL   C12919299   4.810   4.716   5.104  0.6380  0.0331 -0.2771
  136MOL   C13019300   4.818   4.595   5.015 -0.1751  0.2540 -0.1547
  136MOL   N13119301   4.823   4.503   4.950 -0.1024 -0.0461 -0.2233
  136MOL   H13219302   4.813   4.624   5.303  0.8925 -0.8037  0.5705
  136MOL   H13319303   4.827   4.794   5.304 -0.6361 -0.5794  1.6899
  136MOL   H13419304   4.866   4.798   5.059  1.4399 -0.0068  0.6306
  136MOL   C13519305   4.657   4.772   5.094  0.0173 -0.6196  0.3023
  136MOL   C13619306   4.539   4.697   5.170  0.4492  0.0150 -0.1703
  136MOL   C13719307   4.533   4.547   5.151 -0.3319 -0.4298  0.4345
  136MOL   N13819308   4.515   4.435   5.140  0.0510 -0.5608 -0.0664
  136MOL   H13919309   4.656   4.876   5.127 -0.1937 -0.1746 -1.0414
  136MOL   H14019310   4.622   4.768   4.991  0.1122  1.5028  0.1562
  136MOL   H14119311   4.446   4.739   5.133 -1.0301 -1.3645  1.8655
  136MOL   H14219312   4.529   4.730   5.273  2.0122  0.5388 -0.1802
  137MOL     C119313   1.578   7.848   2.843 -0.2214  0.6042 -0.3133
  137MOL     C219314   1.479   7.958   2.852 -1.0328 -0.0278 -0.1143
  137MOL     C319315   1.480   7.999   2.995  0.5459 -0.0925 -0.3434
  137MOL     N419316   1.469   8.032   3.104  0.5320 -0.8099  0.1108
  137MOL     H519317   1.574   7.806   2.743 -4.2812  0.6090 -0.2351
  137MOL     H619318   1.543   7.766   2.905  0.1531  1.0574  0.5029
  137MOL     H719319   1.386   7.914   2.817 -1.5352  0.7530  0.2341
  137MOL     H819320   1.681   7.866   2.874 -0.6413  1.9310  0.3284
  137MOL     C919321   1.522   8.082   2.766  0.0519  0.0187  0.4869
  137MOL    C1019322   1.419   8.185   2.719 -0.1008 -0.0723  0.3541
  137MOL    C1119323   1.405   8.294   2.813  0.6816 -1.3620 -0.0318
  137MOL    N1219324   1.400   0.066   2.888  0.0641  0.2266  0.5769
  137MOL    H1319325   1.592   8.136   2.830  1.8176  1.3778 -2.4857
  137MOL    H1419326   1.598   8.052   2.694  0.4481  2.4297 -0.1396
  137MOL    H1519327   1.327   8.128   2.714 -0.4022  0.2653  1.8994
  137MOL    C1619328   1.451   8.244   2.579 -0.4781 -0.5773  0.8830
  137MOL    C1719329   1.550   0.046   2.578  0.0641  0.1029 -0.7668
  137MOL    C1819330   1.679   0.023   2.639 -0.0955 -0.0745  0.0539
  137MOL    N1919331   1.782   0.001   2.688  0.3380  0.0886  0.1645
  137MOL    H2019332   1.475   8.158   2.517 -0.0321 -0.2697  0.6252
  137MOL    H2119333   1.356   8.280   2.538 -0.6005 -0.3923  1.3155
  137MOL    H2219334   1.497   0.126   2.630 -0.8726  0.8440 -2.8232
  137MOL    C2319335   1.564   0.112   2.440 -0.1981  0.2880 -0.6940
  137MOL    C2419336   1.672   0.064   2.343 -0.5262 -0.1611  0.6487
  137MOL    C2519337   1.656   8.235   2.309  0.4417  0.1494  0.4172
  137MOL    N2619338   1.639   8.126   2.289  0.4335 -0.3615 -1.0625
  137MOL    H2719339   1.467   0.107   2.391 -0.4794  0.3003 -0.1378
  137MOL    H2819340   1.587   0.218   2.451 -1.2003  0.1984  2.6622
  137MOL    H2919341   1.770   0.067   2.390  0.2800 -2.0529 -0.8071
  137MOL    C3019342   1.684   0.157   2.227 -0.2780  0.3681 -0.0549
  137MOL    C3119343   1.554   0.225   2.172 -0.3866  0.7558 -0.6821
  137MOL    C3219344   1.584   0.325   2.071  0.2306 -0.6150  0.2567
  137MOL    N3319345   1.607   0.404   1.988  0.2355  0.2111  0.5362
  137MOL    H3419346   1.760   0.234   2.243  0.0116 -0.1836  1.2039
  137MOL    H3519347   1.729   0.099   2.146 -1.7810 -1.5005  0.4300
  137MOL    H3619348   1.519   0.282   2.258 -1.5923 -0.0363 -0.6307
  137MOL    C3719349   1.442   0.124   2.115  0.4393 -0.2425  0.7474
  137MOL    C3819350   1.344   0.191   2.007 -0.7026 -0.3132  0.4596
  137MOL    C3919351   1.412   0.197   1.877  0.0963 -0.1097  0.2107
  137MOL    N4019352   1.466   0.201   1.775 -0.0108  0.2813  0.2700
  137MOL    H4119353   1.497   0.038   2.075 -0.8894 -0.1379 -1.3646
  137MOL    H4219354   1.377   0.091   2.196  1.7280 -2.6551  0.8641
  137MOL    H4319355   1.318   0.291   2.040 -1.7278 -0.7031  0.8801
  137MOL    C4419356   1.212   0.112   1.998 -0.5928  0.0580  0.2164
  137MOL    C4519357   1.105   0.159   2.099 -0.2335  0.0463 -0.0774
  137MOL    C4619358   1.095   0.302   2.108 -0.0146  0.3837  0.6269
  137MOL    N4719359   1.098   0.416   2.112  0.1697  0.4320  0.8083
  137MOL    H4819360   1.161   0.134   1.904  1.1818 -0.8050 -0.9722
  137MOL    H4919361   1.223   0.004   1.998 -0.2789  0.0637  2.4381
  137MOL    H5019362   1.130   0.130   2.201 -0.2267 -0.3289 -0.1829
  137MOL    C5119363   0.968   0.091   2.087  0.6514 -0.4307  0.5448
  137MOL    C5219364   0.863   0.119   2.194 -0.5942 -0.5845  0.6753
  137MOL    C5319365   0.800   0.246   2.163 -0.1200 -0.3140 -0.0029
  137MOL    N5419366   0.755   0.350   2.136 -0.1115 -0.2650  0.0822
  137MOL    H5519367   0.924   0.125   1.994 -0.1549  0.7951  1.3591
  137MOL    H5619368   0.985   8.297   2.072  1.1192  0.1401 -3.4941
  137MOL    H5719369   0.920   0.132   2.286  0.0101 -1.9881  0.5108
  137MOL    C5819370   0.754   0.012   2.213 -0.5401 -0.2324 -0.3301
  137MOL    C5919371   0.803   8.190   2.271 -0.4329 -0.3335 -0.2671
  137MOL    C6019372   0.891   8.212   2.390  0.1448 -0.1284 -0.8325
  137MOL    N6119373   0.958   8.220   2.485 -0.7193  0.3197  0.4550
  137MOL    H6219374   0.669   0.048   2.271  0.2018  1.6882 -0.4012
  137MOL    H6319375   0.714   8.310   2.112  2.5457 -1.0903 -1.4697
  137MOL    H6419376   0.866   8.138   2.199 -0.7607 -0.7812 -0.2325
  137MOL    C6519377   0.675   8.106   2.307 -0.0246 -0.2987 -0.2984
  137MOL    C6619378   0.574   8.090   2.198 -0.3243 -0.4529  0.4076
  137MOL    C6719379   0.640   8.058   2.071 -0.0371 -0.4682 -0.6227
  137MOL    N6819380   0.689   8.029   1.974 -0.0309 -0.0303 -0.3649
  137MOL    H6919381   0.711   8.012   2.348  0.5668  0.5580  1.2063
  137MOL    H7019382   0.619   8.160   2.385  0.7933  1.1263 -0.6749
  137MOL    H7119383   0.528   8.185   2.170 -0.8899 -0.3098  1.7820
  137MOL    C7219384   0.458   7.997   2.227  0.0012  0.0958 -0.7760
  137MOL    C7319385   0.357   7.949   2.121  0.5767  0.4952  0.2560
  137MOL    C7419386   0.321   7.808   2.145  0.8857  0.2297  0.1340
  137MOL    N7519387   0.293   7.698   2.161  0.1924  1.1557 -0.0675
  137MOL    H7619388   0.510   7.908   2.262 -0.0748  0.0451 -0.7911
  137MOL    H7719389   0.408   8.031   2.318  1.4996 -1.6642  0.7655
  137MOL    H7819390   0.400   7.963   2.022 -1.3270  0.7722 -0.5418
  137MOL    C7919391   0.233   8.038   2.127  0.4129 -0.1762 -0.4834
  137MOL    C8019392   0.247   8.185   2.082  0.1293 -0.2328 -0.0457
  137MOL    C8119393   0.270   8.192   1.940  0.1003  0.0489 -0.1466
  137MOL    N8219394   0.289   8.187   1.828  0.2728  0.0381  0.1302
  137MOL    H8319395   0.157   7.995   2.061  0.8776 -0.0426 -1.1074
  137MOL    H8419396   0.196   8.037   2.230 -0.4315  1.9922 -0.7452
  137MOL    H8519397   0.338   8.221   2.130 -0.2415  0.7443 -0.0733
  137MOL    C8619398   0.123   8.272   2.119  0.2195 -0.3647  0.1564
  137MOL    C8719399   0.131   0.108   2.074  0.2873 -0.3146 -0.2493
  137MOL    C8819400   0.132   0.140   1.929 -0.1029  0.5960 -0.0616
  137MOL    N8919401   0.134   0.171   1.816 -0.3318  0.1075 -0.9556
  137MOL    H9019402   0.028   8.231   2.083 -0.0591 -0.9452  1.5339
  137MOL    H9119403   0.126   8.254   2.226  1.2126  0.6589  0.3017
  137MOL    H9219404   0.228   0.148   2.102 -0.3536  1.5165 -0.5806
  137MOL    C9319405   0.019   0.181   2.152 -0.0013 -0.0909 -0.0535
  137MOL    C9419406   0.013   0.331   2.143 -0.0182 -0.0258 -0.5667
  137MOL    C9519407   8.258   0.378   2.019  0.3789  0.3448  0.0695
  137MOL    N9619408   8.201   0.406   1.924 -0.1792  0.4635 -0.3599
  137MOL    H9719409   8.232   0.142   2.128 -0.4479  1.5112 -0.8347
  137MOL    H9819410   0.037   0.149   2.255 -1.5318  1.8513  0.8574
  137MOL    H9919411   0.116   0.367   2.137  0.7175 -1.8314  0.6806
  137MOL   C10019412   8.250   0.388   2.264  0.3452  0.6712  0.2144
  137MOL   C10119413   8.260   0.537   2.307 -0.0043 -0.1426 -0.0766
  137MOL   C10219414   0.085   0.584   2.306  0.6633  0.0626 -0.2399
  137MOL   N10319415   0.193   0.615   2.303 -0.3459 -0.2141 -0.1150
  137MOL   H10419416   8.144   0.371   2.248  0.7461  0.1117 -2.0267
  137MOL   H10519417   8.283   0.330   2.350  1.9429  0.5077 -0.4707
  137MOL   H10619418   8.222   0.551   2.408 -0.5563  0.9145 -0.4260
  137MOL   C10719419   8.166   0.634   2.234  0.1860 -0.1329  0.6199
  137MOL   C10819420   8.206   0.787   2.236  0.3672 -0.0709 -1.0014
  137MOL   C10919421   0.004   0.816   2.134  0.5647  0.1370  0.7329
  137MOL   N11019422   0.087   0.840   2.060  0.3946 -0.2728  0.2231
  137MOL   H11119423   8.161   0.601   2.130  2.0986  1.5671 -0.0488
  137MOL   H11219424   8.067   0.614   2.275  0.3821 -0.0726  1.1109
  137MOL   H11319425   8.264   0.800   2.327 -0.3583 -2.0765 -0.2296
  137MOL   C11419426   8.088   0.892   2.219 -0.1942  0.2965  0.5565
  137MOL   C11519427   7.996   0.907   2.341  0.0124  0.3140 -0.1727
  137MOL   C11619428   8.080   0.944   2.456 -0.9013 -0.0021 -0.0464
  137MOL   N11719429   8.143   0.978   2.546  0.0865  0.5426 -1.2520
  137MOL   H11819430   8.137   0.987   2.199  0.5321 -0.2117 -0.1123
  137MOL   H11919431   8.041   0.866   2.124  1.1439  4.2484 -1.2831
  137MOL   H12019432   7.954   0.807   2.359  0.9030 -0.2866 -1.3669
  137MOL   C12119433   7.877   1.001   2.320  0.1364  0.0600 -0.3105
  137MOL   C12219434   7.786   1.029   2.442 -0.3175  0.1862  0.0769
  137MOL   C12319435   7.669   1.113   2.406  0.6692  0.2850 -0.3555
  137MOL   N12419436   7.580   1.188   2.381 -0.0195  0.7847  0.4422
  137MOL   H12519437   7.916   1.097   2.286  0.6459 -0.6854 -1.8870
  137MOL   H12619438   7.816   0.970   2.235 -2.9913  2.7953  0.8110
  137MOL   H12719439   7.840   1.070   2.528  1.3125 -0.3979 -0.6410
  137MOL   C12819440   7.735   0.898   2.496 -0.1109  0.1828 -0.1776
  137MOL   C12919441   7.610   0.891   2.581  0.2021 -0.1094  0.6120
  137MOL   C13019442   7.584   0.750   2.605  0.3810 -0.0908  0.0069
  137MOL   N13119443   7.561   0.638   2.617 -0.0835  0.1908 -0.5601
  137MOL   H13219444   7.704   0.840   2.409 -0.1982 -0.0634  0.0164
  137MOL   H13319445   7.811   0.835   2.543 -2.1073 -1.2451  1.2191
  137MOL   H13419446   7.525   0.918   2.518 -0.2794  0.6789  1.5899
  137MOL   C13519447   7.590   0.975   2.709 -0.0365 -0.0662 -0.8991
  137MOL   C13619448   7.448   0.968   2.774 -0.4435 -0.7429  0.0049
  137MOL   C13719449   7.423   0.837   2.842  0.1512  0.1587 -0.1952
  137MOL   N13819450   7.404   0.738   2.896  0.0403 -0.2782 -0.7995
  137MOL   H13919451   7.669   0.972   2.783 -0.1696  0.4301 -0.7343
  137MOL   H14019452   7.589   1.078   2.673 -1.6588  0.5295  0.8175
  137MOL   H14119453   7.363   0.970   2.706 -1.3152 -0.5109  1.1118
  137MOL   H14219454   7.438   1.045   2.850 -0.7167  1.7908 -2.5235
  138MOL     C119455   0.628   6.327   2.303  0.1604  0.1819 -0.3584
  138MOL     C219456   0.576   6.429   2.199  1.1295 -0.6699  0.1640
  138MOL     C319457   0.566   6.355   2.073 -0.0277 -0.4721  0.2103
  138MOL     N419458   0.554   6.298   1.974 -0.2780 -0.2195 -0.1427
  138MOL     H519459   0.724   6.283   2.278  0.3469 -0.5513  1.6180
  138MOL     H619460   0.555   6.246   2.307 -0.9019  1.1489  0.0653
  138MOL     H719461   0.649   6.509   2.187 -1.6777  2.0911  0.9752
  138MOL     H819462   0.642   6.364   2.405 -0.0589  1.9127 -0.9325
  138MOL     C919463   0.438   6.494   2.232 -0.2591 -0.6163  0.5797
  138MOL    C1019464   0.429   6.557   2.364 -0.3162 -0.1675 -0.1519
  138MOL    C1119465   0.539   6.642   2.388  0.3645  0.3806  0.2920
  138MOL    N1219466   0.633   6.709   2.401  0.2634 -0.2130 -0.0040
  138MOL    H1319467   0.422   6.566   2.151  2.2234 -0.1486  0.4860
  138MOL    H1419468   0.367   6.412   2.221  1.2026 -1.7771 -0.2589
  138MOL    H1519469   0.442   6.475   2.435 -3.2980 -0.1060  0.5059
  138MOL    C1619470   0.288   6.619   2.385 -0.4837  0.4120  0.5136
  138MOL    C1719471   0.165   6.526   2.356 -0.3679 -0.3620  0.1558
  138MOL    C1819472   0.186   6.400   2.420  1.5316  0.5077  0.2840
  138MOL    N1919473   0.207   6.301   2.476  0.0692  0.8567  0.1748
  138MOL    H2019474   0.291   6.650   2.490 -0.8609 -0.3103  0.7362
  138MOL    H2119475   0.281   6.705   2.319 -1.2717 -1.1864 -1.5170
  138MOL    H2219476   0.158   6.490   2.253  0.5523 -1.5408  0.5016
  138MOL    C2319477   0.031   6.588   2.390  0.0617 -0.9599 -0.8904
  138MOL    C2419478   8.295   6.586   2.540  0.2991 -0.0903  0.7146
  138MOL    C2519479   0.057   6.675   2.624  0.6237 -0.1837  1.0225
  138MOL    N2619480   0.113   6.751   2.687 -0.2580  0.0931 -0.0419
  138MOL    H2719481   0.023   6.686   2.342  1.2818 -0.3251  0.1749
  138MOL    H2819482   8.273   6.543   2.320 -1.4987  0.0464  0.0063
  138MOL    H2919483   0.010   6.492   2.587 -0.9621 -0.6729  0.3032
  138MOL    C3019484   8.149   6.612   2.536 -0.5614 -0.4237 -0.1740
  138MOL    C3119485   8.070   6.602   2.665 -0.0129 -0.0960 -0.4615
  138MOL    C3219486   8.090   6.476   2.743 -0.1119 -0.2921  0.1950
  138MOL    N3319487   8.115   6.381   2.805 -0.8845 -0.2869 -0.2166
  138MOL    H3419488   8.123   6.709   2.493 -0.4883 -0.1858  0.3154
  138MOL    H3519489   8.110   6.538   2.466 -0.4591 -1.0818  0.4559
  138MOL    H3619490   7.965   6.600   2.634 -0.4111  3.2475  0.5002
  138MOL    C3719491   8.066   6.721   2.755 -0.2737  0.1260 -0.0184
  138MOL    C3819492   8.028   6.860   2.698 -0.5304  0.2365  0.6772
  138MOL    C3919493   7.894   6.862   2.640 -0.1102 -0.0139 -0.6717
  138MOL    N4019494   7.790   6.873   2.594  0.2389  0.7706  0.6764
  138MOL    H4119495   8.001   6.704   2.840 -1.4853  0.2030 -0.9194
  138MOL    H4219496   8.167   6.731   2.795 -0.3579  2.3799 -0.3221
  138MOL    H4319497   8.096   6.872   2.613  0.9162 -0.7395  1.6663
  138MOL    C4419498   8.071   6.976   2.795 -0.6637  0.1371  0.2911
  138MOL    C4519499   8.022   7.117   2.767  0.5388  0.0421  0.5095
  138MOL    C4619500   7.884   7.136   2.800 -0.1911 -0.4166 -0.9871
  138MOL    N4719501   7.776   7.146   2.836 -0.5593  0.9001 -0.5892
  138MOL    H4819502   8.041   6.948   2.897  1.0983  3.2603  1.7473
  138MOL    H4919503   8.179   6.980   2.808 -0.4360  1.0830 -1.8406
  138MOL    H5019504   8.014   7.130   2.659  0.7342  4.0465  0.9151
  138MOL    C5119505   8.103   7.234   2.830  0.3020  0.3678 -0.1106
  138MOL    C5219506   8.090   7.373   2.768 -0.5479  0.5147 -0.0419
  138MOL    C5319507   8.139   7.391   2.628  0.4133 -0.7711 -0.1059
  138MOL    N5419508   8.177   7.400   2.516 -0.3117 -0.1554 -0.8051
  138MOL    H5519509   8.075   7.248   2.934 -0.5172  2.2396 -0.5516
  138MOL    H5619510   8.208   7.206   2.837  0.1974 -0.1555 -0.5795
  138MOL    H5719511   8.158   7.436   2.826  2.0731 -0.7812 -1.6072
  138MOL    C5819512   7.952   7.441   2.784  0.1824  0.1425  0.2935
  138MOL    C5919513   7.945   7.587   2.737 -0.3179  0.4901 -0.4519
  138MOL    C6019514   7.879   7.594   2.608 -0.4346 -0.5696 -0.2011
  138MOL    N6119515   7.824   7.593   2.508 -0.5612  0.3847 -0.2155
  138MOL    H6219516   7.884   7.377   2.728 -1.4626 -0.2369  2.6303
  138MOL    H6319517   7.926   7.431   2.889 -1.8948 -1.4706 -0.3415
  138MOL    H6419518   8.047   7.625   2.736  0.0237 -0.4327 -0.7540
  138MOL    C6519519   7.868   7.672   2.840 -0.1444  0.3636 -0.7516
  138MOL    C6619520   7.933   7.711   2.966  0.0822  0.0270 -0.4672
  138MOL    C6719521   7.944   7.598   3.062 -0.5046 -0.6122 -0.8205
  138MOL    N6819522   7.949   7.507   3.138 -0.1568  0.3655  0.5565
  138MOL    H6919523   7.822   7.761   2.798  0.2238  2.1412  2.4432
  138MOL    H7019524   7.779   7.613   2.864  1.0250 -0.9795  0.4021
  138MOL    H7119525   7.865   7.776   3.021 -2.9678 -1.4542 -2.3702
  138MOL    C7219526   8.065   7.789   2.951  0.6350  0.1746 -0.2037
  138MOL    C7319527   8.056   7.910   2.863  0.0083  0.9444  0.4752
  138MOL    C7419528   7.928   7.979   2.887 -0.3638  0.2322 -0.3931
  138MOL    N7519529   7.829   8.033   2.902 -0.3960  0.2008 -0.0191
  138MOL    H7619530   8.102   7.811   3.051  0.8171 -2.3175  0.3231
  138MOL    H7719531   8.143   7.720   2.918  1.2957  0.5583  0.5557
  138MOL    H7819532   8.043   7.875   2.760 -1.6388  0.2975  0.8896
  138MOL    C7919533   8.186   8.002   2.867  0.2257  0.3279  0.7337
  138MOL    C8019534   8.185   8.119   2.764 -0.3368  0.3299 -0.0178
  138MOL    C8119535   8.255   8.231   2.829 -0.1216 -0.4295 -0.3330
  138MOL    N8219536   8.308   0.005   2.881  0.4832  0.2650 -0.3852
  138MOL    H8319537   8.171   8.038   2.968 -4.0176 -0.2074  0.3872
  138MOL    H8419538   8.285   7.956   2.868  0.8076  1.4062 -1.9998
  138MOL    H8519539   8.084   8.158   2.749 -0.3115  0.7132  0.7957
  138MOL    C8619540   8.239   8.072   2.625  0.9868  0.2786 -0.3732
  138MOL    C8719541   8.201   8.155   2.496  0.1041  0.0288  0.0413
  138MOL    C8819542   8.244   8.297   2.515  0.6600  0.5271  0.8076
  138MOL    N8919543   8.276   0.092   2.534  0.1152  0.2600 -0.4364
  138MOL    H9019544   0.034   8.060   2.634  0.8555 -1.1608 -0.6538
  138MOL    H9119545   8.192   7.976   2.605  1.4419 -0.1776  0.6915
  138MOL    H9219546   8.093   8.147   2.483  0.2233 -1.8681  0.0305
  138MOL    C9319547   8.265   8.096   2.365  0.6574 -0.4959  0.1445
  138MOL    C9419548   8.198   7.960   2.333  0.1006 -0.4907  0.1405
  138MOL    C9519549   8.088   7.976   2.235  0.6854  0.4802  0.3156
  138MOL    N9619550   7.998   7.984   2.156 -0.3533  0.3870 -0.3447
  138MOL    H9719551   8.247   8.175   2.292 -0.5060 -0.7086  0.2036
  138MOL    H9819552   0.060   8.089   2.387  0.4544 -4.5155  0.0779
  138MOL    H9919553   8.157   7.916   2.423  1.8750  0.7642  1.5858
  138MOL   C10019554   8.289   7.855   2.260  0.1534  0.3657 -0.0237
  138MOL   C10119555   8.261   7.706   2.304  0.3192 -0.4808  0.0437
  138MOL   C10219556   8.288   7.702   2.446 -0.0679 -0.2787 -0.2848
  138MOL   N10319557   8.307   7.706   2.566 -1.0512 -0.1879 -0.3499
  138MOL   H10419558   8.288   7.863   2.152  1.0162 -0.6404 -0.1115
  138MOL   H10519559   0.080   7.872   2.289  0.4243 -2.1775  0.6507
  138MOL   H10619560   0.025   7.642   2.262 -1.5171 -1.7434 -1.4486
  138MOL   C10719561   8.117   7.654   2.265 -0.2106 -0.5530 -0.1249
  138MOL   C10819562   8.093   7.608   2.118 -0.1975 -0.2760 -0.0987
  138MOL   C10919563   8.170   7.486   2.079 -0.3759 -0.5184 -0.3442
  138MOL   N11019564   8.233   7.391   2.048 -0.2368 -0.2596  0.0781
  138MOL   H11119565   8.081   7.573   2.329 -0.7306  0.8648  1.4284
  138MOL   H11219566   8.039   7.726   2.290 -1.1411 -1.3519 -0.6929
  138MOL   H11319567   8.123   7.689   2.051 -0.7447 -0.8282 -1.0181
  138MOL   C11419568   7.939   7.598   2.087  0.1892  0.2359 -0.1218
  138MOL   C11519569   7.897   7.559   1.940  0.1449  0.2242 -0.4954
  138MOL   C11619570   7.892   7.415   1.924 -0.1731  0.1726  0.1629
  138MOL   N11719571   7.881   7.304   1.912  0.2101 -0.0459  0.0184
  138MOL   H11819572   7.888   7.533   2.158  0.7423 -2.2343 -1.9119
  138MOL   H11919573   7.911   7.703   2.102 -0.5225 -0.0279  0.4472
  138MOL   H12019574   7.986   7.577   1.879  0.5600  1.2449  0.3964
  138MOL   C12119575   7.769   7.635   1.896  0.0539  0.5408 -0.2752
  138MOL   C12219576   7.631   7.574   1.931  0.1463  0.4068 -0.7343
  138MOL   C12319577   7.613   7.530   2.078  0.2342  0.0795  0.1266
  138MOL   N12419578   7.598   7.505   2.191 -0.1013  0.3565  0.1989
  138MOL   H12519579   7.782   7.733   1.942  0.6814 -0.1204  1.0191
  138MOL   H12619580   7.777   7.652   1.789 -1.7089 -1.0599 -0.6877
  138MOL   H12719581   7.610   7.482   1.877 -1.6286 -0.5719  1.5114
  138MOL   C12819582   7.523   7.674   1.892 -0.6856  0.5671  0.1783
  138MOL   C12919583   7.377   7.622   1.876  0.2997 -0.7612 -0.6597
  138MOL   C13019584   7.312   7.565   1.998  0.7590  0.8825  0.3627
  138MOL   N13119585   7.265   7.515   2.092 -0.3937  0.3781  0.1146
  138MOL   H13219586   7.545   7.767   1.943  2.5090  0.3189 -0.5967
  138MOL   H13319587   7.550   7.703   1.790  1.4630  1.7791  1.0723
  138MOL   H13419588   7.368   7.541   1.804  0.8113 -1.0150 -0.4375
  138MOL   C13519589   7.287   7.743   1.836  0.2115 -0.4427 -0.1834
  138MOL   C13619590   7.300   7.863   1.934 -0.2129  0.4041 -0.0807
  138MOL   C13719591   7.231   7.988   1.893  0.7508  0.2530 -0.2092
  138MOL   N13819592   7.182   8.085   1.859 -0.0423 -0.2951  0.0840
  138MOL   H13919593   7.318   7.771   1.735 -0.8303  2.0287  0.1582
  138MOL   H14019594   7.183   7.709   1.831 -0.1050  0.2077  1.6075
  138MOL   H14119595   7.402   7.902   1.935 -0.3507  0.7823 -0.4826
  138MOL   H14219596   7.282   7.846   2.040  1.4474  0.9021  0.2905
  139MOL     C119597   3.128   7.302   6.357  0.2284 -0.4766 -0.6990
  139MOL     C219598   3.063   7.257   6.492  0.3714  0.5509  0.1707
  139MOL     C319599   3.143   7.289   6.613 -0.9284 -0.1400 -0.0906
  139MOL     N419600   3.208   7.304   6.705  0.2833  0.0768 -0.1478
  139MOL     H519601   3.130   7.411   6.352 -2.6726 -0.3136  0.6175
  139MOL     H619602   3.077   7.267   6.267 -2.1820 -0.4420  0.6355
  139MOL     H719603   3.058   7.148   6.489 -0.4636  0.5993 -0.2927
  139MOL     H819604   3.230   7.265   6.351  0.6132  0.6546 -1.2628
  139MOL     C919605   2.905   7.285   6.497 -0.9902  0.3840  0.2863
  139MOL    C1019606   2.847   7.213   6.616 -0.3568 -0.2102 -0.2442
  139MOL    C1119607   2.888   7.275   6.746  0.5458  0.8311  0.0467
  139MOL    N1219608   2.912   7.327   6.850  0.4164  0.2985  1.0363
  139MOL    H1319609   2.895   7.392   6.510 -0.1020  0.4356  0.6293
  139MOL    H1419610   2.855   7.250   6.407  2.8503 -0.4212 -1.6343
  139MOL    H1519611   2.890   7.113   6.609  1.0254  0.1110  2.6091
  139MOL    C1619612   2.693   7.200   6.611 -0.0930 -0.3034 -0.4088
  139MOL    C1719613   2.622   7.079   6.678  0.0368 -0.5479  0.0548
  139MOL    C1819614   2.650   7.061   6.826 -0.5815 -0.4975 -0.2298
  139MOL    N1919615   2.674   7.046   6.940  0.1925 -0.2123 -0.1381
  139MOL    H2019616   2.656   7.285   6.669 -0.5179 -0.7679  0.0117
  139MOL    H2119617   2.654   7.207   6.509 -0.7357 -2.8725 -0.3652
  139MOL    H2219618   2.668   6.995   6.626 -1.3257 -0.2163 -1.7461
  139MOL    C2319619   2.463   7.092   6.656 -0.4215 -0.6961  0.7045
  139MOL    C2419620   2.372   6.963   6.688 -0.0659  0.3514 -0.6443
  139MOL    C2519621   2.351   6.934   6.836  0.4452  0.1611 -0.4083
  139MOL    N2619622   2.327   6.900   6.948  0.2909 -0.0193  0.3188
  139MOL    H2719623   2.423   7.180   6.706  3.1106  2.6862 -2.0733
  139MOL    H2819624   2.465   7.119   6.550 -0.4616 -2.1740  0.3050
  139MOL    H2919625   2.425   6.876   6.650 -0.9476 -0.6950  0.4877
  139MOL    C3019626   2.245   6.967   6.606 -0.2972 -0.5050  0.4439
  139MOL    C3119627   2.133   6.874   6.658  1.1832  0.3465 -0.6517
  139MOL    C3219628   2.005   6.896   6.577 -0.5445  0.1043 -0.1678
  139MOL    N3319629   1.905   6.912   6.512  0.2085 -0.0874 -0.1646
  139MOL    H3419630   2.201   7.066   6.598 -1.8542 -1.3885 -3.0214
  139MOL    H3519631   2.265   6.943   6.501  0.9232  1.7031  0.1628
  139MOL    H3619632   2.122   6.897   6.764  0.0518 -0.4673 -0.5860
  139MOL    C3719633   2.183   6.732   6.658  0.1234  0.0331 -0.6122
  139MOL    C3819634   2.081   6.626   6.691  1.1711 -0.0509  0.1578
  139MOL    C3919635   2.128   6.503   6.628 -0.1034  0.5619  0.6139
  139MOL    N4019636   2.158   6.407   6.572 -0.2427  0.5574 -0.0777
  139MOL    H4119637   2.223   6.701   6.562  2.2063  2.5683 -0.6019
  139MOL    H4219638   2.257   6.724   6.737 -0.8237 -0.1734  0.2735
  139MOL    H4319639   1.992   6.653   6.634  0.4947 -1.1444  0.6891
  139MOL    C4419640   2.046   6.618   6.836 -0.6981 -0.3171  0.5150
  139MOL    C4519641   1.928   6.522   6.878  0.1364 -0.2595  0.0503
  139MOL    C4619642   1.921   6.510   7.025 -0.0946 -0.0353  0.5983
  139MOL    N4719643   1.919   6.507   7.142  0.0182 -0.6499 -0.2216
  139MOL    H4819644   2.136   6.584   6.887  0.7464  2.2554 -0.2294
  139MOL    H4919645   2.019   6.711   6.885  1.1019  0.8418 -0.6554
  139MOL    H5019646   1.949   6.420   6.849 -2.0266 -0.5404 -0.6493
  139MOL    C5119647   1.796   6.573   6.811  0.2046  0.1174  1.1196
  139MOL    C5219648   1.663   6.490   6.827  0.5108 -0.5438 -0.2644
  139MOL    C5319649   1.548   6.583   6.816  0.2373 -0.5430  0.3886
  139MOL    N5419650   1.457   6.658   6.809 -0.4107  0.1992 -0.4657
  139MOL    H5519651   1.773   6.668   6.859  0.8560  0.1974  1.2783
  139MOL    H5619652   1.812   6.592   6.705 -1.4426 -2.3552  0.3669
  139MOL    H5719653   1.653   6.447   6.926  1.2548  0.5345  0.2898
  139MOL    C5819654   1.639   6.366   6.735  0.0681  0.1985 -0.1846
  139MOL    C5919655   1.615   6.404   6.586  0.3256  0.3341 -0.3018
  139MOL    C6019656   1.723   6.473   6.519  0.4650 -1.1094  0.4721
  139MOL    N6119657   1.812   6.526   6.460 -0.1760 -0.8310 -0.8778
  139MOL    H6219658   1.726   6.300   6.742  0.4447  0.6365 -0.6641
  139MOL    H6319659   1.549   6.317   6.773  1.2580 -0.7292  1.5030
  139MOL    H6419660   1.536   6.479   6.589  0.1160  0.0665  1.0162
  139MOL    C6519661   1.558   6.278   6.516  0.4020 -0.1307  0.0518
  139MOL    C6619662   1.644   6.156   6.534 -0.4808 -0.0270  0.4388
  139MOL    C6719663   1.556   6.038   6.495  1.3119 -0.3031 -0.3210
  139MOL    N6819664   1.488   5.945   6.475  0.1795 -0.3050 -0.4010
  139MOL    H6919665   1.456   6.257   6.548  0.1696 -0.9983 -1.2390
  139MOL    H7019666   1.551   6.290   6.408 -0.5878 -3.9623 -0.4115
  139MOL    H7119667   1.672   6.140   6.638 -1.7745 -0.7658  0.6888
  139MOL    C7219668   1.784   6.165   6.464 -0.7442 -0.5451 -0.1079
  139MOL    C7319669   1.873   6.036   6.472 -1.2353  0.9432  0.2298
  139MOL    C7419670   1.987   6.061   6.388 -0.1709  0.2292  0.5085
  139MOL    N7519671   2.081   6.084   6.318 -0.4803  0.8164 -0.2859
  139MOL    H7619672   1.774   6.195   6.360  0.4328 -1.6352 -0.5508
  139MOL    H7719673   1.846   6.240   6.511 -0.6820  0.0640 -1.1537
  139MOL    H7819674   1.821   5.954   6.424  1.2641  0.2167 -1.3270
  139MOL    C7919675   1.910   6.005   6.617  0.0242 -0.4108  0.0798
  139MOL    C8019676   2.002   5.879   6.624 -0.4836  0.2083  0.1004
  139MOL    C8119677   2.140   5.913   6.575  0.1379  0.3355 -0.4150
  139MOL    N8219678   2.247   5.935   6.542  0.6381 -0.0465  0.3891
  139MOL    H8319679   1.943   6.095   6.670  1.9609 -0.7022 -0.6124
  139MOL    H8419680   1.818   5.978   6.669 -0.5850 -0.2638 -0.9015
  139MOL    H8519681   1.973   5.805   6.549 -0.5024  0.8477 -0.5358
  139MOL    C8619682   2.005   5.817   6.767 -0.1751 -0.0510 -0.5193
  139MOL    C8719683   2.099   5.699   6.787 -0.1320 -0.0928 -0.5308
  139MOL    C8819684   2.106   5.601   6.679 -0.6937 -0.1252 -0.3551
  139MOL    N8919685   2.117   5.525   6.591  0.7542 -0.8301 -0.0231
  139MOL    H9019686   2.030   5.887   6.846  3.2026 -1.0678 -0.6208
  139MOL    H9119687   1.903   5.789   6.794  0.2756 -1.4167 -0.1772
  139MOL    H9219688   2.051   5.629   6.856 -1.8383  1.0691 -0.5045
  139MOL    C9319689   2.231   5.739   6.852  0.0432  0.4066 -0.6837
  139MOL    C9419690   2.319   5.631   6.919 -0.4751 -0.5555  0.5363
  139MOL    C9519691   2.243   5.541   7.004 -0.7492 -0.3249  0.4895
  139MOL    N9619692   2.186   5.469   7.068  1.4211  0.4894 -0.6298
  139MOL    H9719693   2.286   5.777   6.766  2.2245  0.9676  0.9131
  139MOL    H9819694   2.223   5.828   6.915 -0.9743 -1.2942  1.6898
  139MOL    H9919695   2.386   5.678   6.990 -0.6265  1.3161 -0.5178
  139MOL   C10019696   2.412   5.563   6.809  0.6673  0.0843 -0.5846
  139MOL   C10119697   2.536   5.482   6.848 -0.7312  0.0997  0.7117
  139MOL   C10219698   2.509   5.373   6.946 -0.1622  0.2211 -0.0899
  139MOL   N10319699   2.482   5.284   7.012 -0.7902  0.4262 -0.0613
  139MOL   H10419700   2.354   5.502   6.741  0.8727 -0.8869  0.1081
  139MOL   H10519701   2.460   5.644   6.753 -0.4557 -0.3303 -2.1853
  139MOL   H10619702   2.610   5.547   6.897 -0.2022 -0.0093  0.0651
  139MOL   C10719703   2.604   5.433   6.718 -0.6908  1.3307 -0.0779
  139MOL   C10819704   2.704   5.316   6.739  0.2721 -0.1604  0.6939
  139MOL   C10919705   2.649   5.181   6.698  0.8532 -0.6820 -0.0537
  139MOL   N11019706   2.601   5.075   6.668 -0.4266  0.0468  0.3618
  139MOL   H11119707   2.529   5.404   6.644 -2.2270 -2.0813  2.7233
  139MOL   H11219708   2.658   5.520   6.680  0.6748  0.6997  0.4192
  139MOL   H11319709   2.718   5.301   6.846 -1.1361 -0.8408  0.7833
  139MOL   C11419710   2.851   5.325   6.682 -0.1573 -0.5291  0.2180
  139MOL   C11519711   2.867   5.349   6.534  0.0570  0.0422 -0.6685
  139MOL   C11619712   2.993   5.428   6.519 -0.3372 -0.5295 -0.5153
  139MOL   N11719713   3.090   5.490   6.503  0.1486  0.3932  0.2487
  139MOL   H11819714   2.895   5.413   6.730 -0.5699 -0.5155  0.5631
  139MOL   H11919715   2.906   5.239   6.719 -0.4555  0.0089  1.9244
  139MOL   H12019716   2.794   5.416   6.489 -0.0158  0.5524  0.2005
  139MOL   C12119717   2.860   5.222   6.452 -0.0490  0.0962 -0.7950
  139MOL   C12219718   2.995   5.152   6.426 -0.2380  0.1045 -0.1485
  139MOL   C12319719   3.059   5.097   6.550 -0.1533 -0.1309  0.1639
  139MOL   N12419720   3.104   5.049   6.647 -0.4682  0.7176  0.5460
  139MOL   H12519721   2.783   5.156   6.493  0.5057  0.3686  0.7219
  139MOL   H12619722   2.828   5.244   6.351  0.5174 -0.1663 -1.0366
  139MOL   H12719723   3.072   5.213   6.378  0.0599  0.7259  1.1162
  139MOL   C12819724   2.971   5.039   6.326 -0.5855  0.2391 -0.4418
  139MOL   C12919725   3.086   4.947   6.299 -0.4470  0.1840 -0.1008
  139MOL   C13019726   3.038   4.824   6.231 -0.3189 -0.6775  0.1184
  139MOL   N13119727   3.003   4.726   6.186  0.2047  0.0202  0.7712
  139MOL   H13219728   2.883   4.987   6.364 -0.9124  0.5791 -0.7306
  139MOL   H13319729   2.938   5.084   6.233  0.5996  0.8910 -0.5504
  139MOL   H13419730   3.138   4.918   6.391  0.2678  0.5808 -0.3752
  139MOL   C13519731   3.204   5.007   6.229  0.2354  0.1623  0.1209
  139MOL   C13619732   3.206   4.991   6.075  0.4058 -0.0723 -0.5811
  139MOL   C13719733   3.313   5.080   6.017 -0.3654 -0.0005  0.1156
  139MOL   N13819734   3.402   5.142   5.968  0.5898 -0.6781  0.2930
  139MOL   H13919735   3.230   5.113   6.239 -0.6129  0.4214 -0.3107
  139MOL   H14019736   3.293   4.953   6.260  0.1732 -0.9687 -1.6033
  139MOL   H14119737   3.115   5.026   6.027 -1.1029 -0.4065  1.9207
  139MOL   H14219738   3.218   4.891   6.034 -2.0640 -1.3751  1.6852
  140MOL     C119739   5.407   6.658   3.863 -0.7057 -0.2486  0.0934
  140MOL     C219740   5.469   6.519   3.880  0.0131  0.1242  0.4375
  140MOL     C319741   5.564   6.511   3.990 -0.2012  0.1640  0.1889
  140MOL     N419742   5.636   6.508   4.081 -0.2728 -0.4838 -0.3696
  140MOL     H519743   5.324   6.633   3.797  0.8296 -3.1504 -0.8109
  140MOL     H619744   5.473   6.730   3.815 -0.0173 -1.4409 -0.7903
  140MOL     H719745   5.534   6.496   3.795 -0.4988 -0.6003  0.2394
  140MOL     H819746   5.366   6.697   3.957 -0.8262 -0.3263  0.0725
  140MOL     C919747   5.354   6.408   3.902  0.2375 -0.8025  0.7767
  140MOL    C1019748   5.302   6.355   3.766  0.0384  0.2093 -0.6218
  140MOL    C1119749   5.416   6.298   3.693 -0.2222 -0.1464  0.1305
  140MOL    N1219750   5.506   6.259   3.640  0.1463 -0.3861  0.3806
  140MOL    H1319751   5.390   6.327   3.965 -0.7202  0.0331  2.4458
  140MOL    H1419752   5.274   6.449   3.964  1.0415  0.4562  1.0100
  140MOL    H1519753   5.256   6.437   3.712 -0.9260  1.6510  2.2893
  140MOL    C1619754   5.198   6.236   3.782 -0.0775 -0.3053  0.2941
  140MOL    C1719755   5.060   6.270   3.847  0.2406  0.4395  0.2762
  140MOL    C1819756   4.984   6.352   3.754  0.2410 -0.1161  0.1161
  140MOL    N1919757   4.921   6.409   3.675 -0.0858 -0.6799 -0.2531
  140MOL    H2019758   5.168   6.195   3.686  0.2514  4.6761 -2.1005
  140MOL    H2119759   5.262   6.156   3.818 -0.1095 -0.0938  0.8363
  140MOL    H2219760   5.076   6.331   3.936 -0.5200  3.2687 -1.4593
  140MOL    C2319761   4.988   6.138   3.868 -0.4296  0.2608  0.0009
  140MOL    C2419762   4.860   6.135   3.949 -0.1466 -0.4119  0.4626
  140MOL    C2519763   4.765   6.232   3.894  0.4480 -0.7900  0.0593
  140MOL    N2619764   4.689   6.313   3.854  0.0268 -0.0558  0.7473
  140MOL    H2719765   4.968   6.090   3.773  2.5885 -0.5671 -0.2706
  140MOL    H2819766   5.048   6.066   3.925 -1.3314  0.3173  1.0364
  140MOL    H2919767   4.869   6.170   4.052 -0.9404 -0.6848  0.6289
  140MOL    C3019768   4.802   5.994   3.957 -0.2057  0.6938 -0.4532
  140MOL    C3119769   4.683   5.963   4.059 -0.1301 -0.3606  0.1907
  140MOL    C3219770   4.717   5.963   4.196  0.1368  0.5903  0.2259
  140MOL    N3319771   4.742   5.965   4.308 -0.2869  0.5073  0.3433
  140MOL    H3419772   4.783   5.952   3.858 -1.0885  0.7157 -0.2997
  140MOL    H3519773   4.880   5.928   3.995 -0.9121  0.4043  0.5271
  140MOL    H3619774   4.669   5.855   4.048 -1.6184  0.0718 -2.6310
  140MOL    C3719775   4.554   6.041   4.031  0.3007  0.2105  0.0423
  140MOL    C3819776   4.479   6.020   3.894 -0.0018  0.6463  0.1993
  140MOL    C3919777   4.407   5.892   3.876 -0.1805  0.0424  0.4454
  140MOL    N4019778   4.359   5.790   3.862  0.2374 -0.3409  0.9075
  140MOL    H4119779   4.488   6.019   4.115 -0.6063 -0.9752 -0.9587
  140MOL    H4219780   4.576   6.147   4.046  0.1836  0.2997 -0.4134
  140MOL    H4319781   4.551   6.023   3.812  1.5616  0.3551  1.5317
  140MOL    C4419782   4.380   6.137   3.870  0.2540  0.3841 -0.6478
  140MOL    C4519783   4.249   6.132   3.959  0.4315  0.3877 -0.0517
  140MOL    C4619784   4.217   6.268   4.001  0.4192  0.2543 -0.0101
  140MOL    N4719785   4.196   6.377   4.034  1.1263  0.2800 -0.4814
  140MOL    H4819786   4.426   6.234   3.886  0.3273  0.0771  1.0653
  140MOL    H4919787   4.368   6.132   3.762 -1.5748 -1.6152 -0.4008
  140MOL    H5019788   4.263   6.065   4.044  1.0457  0.9964  0.3335
  140MOL    C5119789   4.121   6.077   3.874 -0.2247  0.4133 -0.1199
  140MOL    C5219790   4.040   6.178   3.788 -0.0373  0.0708  0.3169
  140MOL    C5319791   4.132   6.251   3.701  0.0654  0.2884  0.0729
  140MOL    N5419792   4.207   6.307   3.637 -0.0583  0.7123  0.3085
  140MOL    H5519793   4.133   5.998   3.800 -0.3375 -0.2527  0.5666
  140MOL    H5619794   4.056   6.029   3.948 -0.4566 -0.7272 -1.0676
  140MOL    H5719795   4.006   6.252   3.860 -1.4018 -0.4904  0.2507
  140MOL    C5819796   3.921   6.122   3.713  0.2451 -0.1350 -0.3075
  140MOL    C5919797   3.841   6.214   3.623  0.2640 -0.4671 -0.3615
  140MOL    C6019798   3.905   6.221   3.489 -0.9715 -0.2662  0.5818
  140MOL    N6119799   3.956   6.235   3.387 -0.3341 -0.5156  0.7432
  140MOL    H6219800   3.967   6.047   3.650 -0.9334 -1.0038 -0.1475
  140MOL    H6319801   3.854   6.073   3.783  1.1530  0.6065  1.1112
  140MOL    H6419802   3.848   6.314   3.665 -2.2877 -0.5503  0.4017
  140MOL    C6519803   3.689   6.171   3.612  0.6281 -0.4877  0.1951
  140MOL    C6619804   3.590   6.259   3.526 -0.1127  0.0475 -0.1536
  140MOL    C6719805   3.466   6.185   3.525  0.4304 -0.6472  0.3134
  140MOL    N6819806   3.375   6.114   3.524 -0.1777 -0.0154  0.4031
  140MOL    H6919807   3.693   6.068   3.575  0.9860 -0.6584  0.7002
  140MOL    H7019808   3.646   6.168   3.711 -0.7780  0.1356 -0.3811
  140MOL    H7119809   3.645   6.248   3.432 -0.8075  1.6911 -0.7731
  140MOL    C7219810   3.582   6.408   3.561 -0.2349 -0.0372 -0.2445
  140MOL    C7319811   3.506   6.442   3.695 -1.4257 -0.2324 -0.0095
  140MOL    C7419812   3.571   6.390   3.813 -0.1747 -0.3968 -0.3898
  140MOL    N7519813   3.615   6.348   3.914  0.1375  0.5539 -0.4551
  140MOL    H7619814   3.682   6.451   3.569 -0.5008  0.5204  0.1067
  140MOL    H7719815   3.533   6.452   3.475  0.2097 -0.4131 -0.6948
  140MOL    H7819816   3.411   6.388   3.697 -1.2856 -0.5243 -0.8069
  140MOL    C7919817   3.494   6.593   3.702 -0.7292  0.3376 -0.1447
  140MOL    C8019818   3.418   6.652   3.823 -0.6279  0.4332 -0.6163
  140MOL    C8119819   3.324   6.562   3.891  0.4265 -0.1852  0.0872
  140MOL    N8219820   3.244   6.496   3.940 -0.4052 -0.8952  0.5485
  140MOL    H8319821   3.588   6.646   3.694 -0.1853 -0.8744 -2.0878
  140MOL    H8419822   3.428   6.616   3.618 -1.3303  0.3517  0.3244
  140MOL    H8519823   3.352   6.723   3.772 -2.0316 -1.1362 -1.0124
  140MOL    C8619824   3.530   6.713   3.913 -0.4217 -0.0506 -0.2528
  140MOL    C8719825   3.493   6.730   4.061 -0.3582 -0.3431 -0.9227
  140MOL    C8819826   3.471   6.605   4.136 -0.2094  0.5969 -0.9941
  140MOL    N8919827   3.451   6.506   4.194  0.8403  0.4692 -0.1447
  140MOL    H9019828   3.617   6.649   3.899  0.2833  1.3147 -2.5100
  140MOL    H9119829   3.572   6.801   3.864 -0.9962 -0.0372 -0.7360
  140MOL    H9219830   3.396   6.779   4.069 -0.1066 -0.1078  0.7115
  140MOL    C9319831   3.599   6.827   4.131  0.4558 -0.5013 -0.8593
  140MOL    C9419832   3.599   6.838   4.279  0.2069  0.5392  0.6228
  140MOL    C9519833   3.717   6.912   4.319 -0.4083  0.1217 -0.5043
  140MOL    N9619834   3.811   6.970   4.354  0.0891 -0.1126  0.9956
  140MOL    H9719835   3.702   6.802   4.107  1.2045  3.0414 -1.5823
  140MOL    H9819836   3.579   6.927   4.093  1.1746 -0.7251 -1.8612
  140MOL    H9919837   3.613   6.732   4.304  0.2947  0.5141  0.4656
  140MOL   C10019838   3.461   6.898   4.335 -0.0375 -0.7479  0.0324
  140MOL   C10119839   3.462   6.871   4.488 -0.5794  0.6470  0.7393
  140MOL   C10219840   3.401   6.977   4.566  0.7721 -0.0333 -0.0987
  140MOL   N10319841   3.352   7.063   4.626  0.0061  0.3335 -0.3034
  140MOL   H10419842   3.454   7.005   4.318 -2.0663 -0.5051  2.0744
  140MOL   H10519843   3.375   6.860   4.281 -0.4143 -0.5468  0.4867
  140MOL   H10619844   3.568   6.871   4.516  0.0981 -0.2400 -1.6917
  140MOL   C10719845   3.416   6.735   4.527  0.1973  0.1336  0.3039
  140MOL   C10819846   3.269   6.700   4.533  0.2025  0.5537  0.0890
  140MOL   C10919847   3.205   6.713   4.397 -0.4764  0.2455 -0.7609
  140MOL   N11019848   3.154   6.723   4.297 -0.5836 -0.3366 -0.4985
  140MOL   H11119849   3.453   6.673   4.445 -2.1808 -0.6746 -0.2089
  140MOL   H11219850   3.467   6.714   4.621  2.7104 -1.3882 -1.3480
  140MOL   H11319851   3.223   6.768   4.605 -1.9434 -2.0295  1.2235
  140MOL   C11419852   3.263   6.559   4.594 -0.1687  0.2284  0.1500
  140MOL   C11519853   3.117   6.523   4.635 -0.1421 -0.0246 -0.2949
  140MOL   C11619854   3.027   6.502   4.520  0.2349  0.6291 -0.0932
  140MOL   N11719855   2.957   6.494   4.436 -0.0033  0.4058 -0.2090
  140MOL   H11819856   3.294   6.489   4.516 -1.4715 -0.3163  0.1113
  140MOL   H11919857   3.325   6.541   4.682  0.6694 -0.5432 -0.5875
  140MOL   H12019858   3.077   6.603   4.697 -0.0684  0.4337 -0.8426
  140MOL   C12119859   3.111   6.397   4.727 -0.1131 -0.2294 -0.3933
  140MOL   C12219860   2.997   6.343   4.821 -0.3881 -0.4922  0.3809
  140MOL   C12319861   2.946   6.453   4.907 -0.0761  0.6112 -0.9446
  140MOL   N12419862   2.904   6.532   4.978  0.5141 -0.5999  0.2543
  140MOL   H12519863   3.131   6.307   4.669 -0.9637 -1.1894  0.7794
  140MOL   H12619864   3.193   6.407   4.797 -1.1265  2.4026  0.4915
  140MOL   H12719865   3.028   6.256   4.880 -0.0914  0.5719  1.8037
  140MOL   C12819866   2.881   6.291   4.733 -0.2666 -0.0774 -0.3443
  140MOL   C12919867   2.774   6.209   4.807  0.4726 -0.6086 -0.1083
  140MOL   C13019868   2.670   6.168   4.712 -0.2437 -0.0064  0.8854
  140MOL   N13119869   2.594   6.131   4.633  0.0640 -0.2694 -0.0432
  140MOL   H13219870   2.833   6.376   4.684 -0.3031 -0.6655 -1.3451
  140MOL   H13319871   2.905   6.223   4.651  1.5509 -1.8098  1.5553
  140MOL   H13419872   2.723   6.277   4.875  1.3489  0.3912 -0.4398
  140MOL   C13519873   2.832   6.094   4.893 -0.0698 -1.0519  0.0444
  140MOL   C13619874   2.724   5.995   4.939 -0.1572 -0.4116  0.0025
  140MOL   C13719875   2.777   5.890   5.018  0.4841  0.5633  0.6027
  140MOL   N13819876   2.826   5.794   5.073  0.6620 -0.4324  0.2803
  140MOL   H13919877   2.908   6.037   4.840 -0.0134 -0.1504 -0.8540
  140MOL   H14019878   2.877   6.138   4.981 -0.0048 -1.0418  0.0067
  140MOL   H14119879   2.695   5.938   4.851 -1.8685 -0.6891  0.7347
  140MOL   H14219880   2.629   6.028   4.979  0.1692  0.5483 -0.0023
  141MOL     C119881   3.019   6.015   8.149  0.0252  0.0914  0.0866
  141MOL     C219882   2.939   6.144   8.156 -0.9393  0.2024 -0.0454
  141MOL     C319883   2.799   6.129   8.175 -0.5292 -0.9235  0.3175
  141MOL     N419884   2.690   6.118   8.194 -0.0151 -0.2877  0.1961
  141MOL     H519885   2.968   5.940   8.089  0.5987 -0.0869 -0.1827
  141MOL     H619886   3.043   5.962   8.242 -1.3890 -1.3869 -0.3781
  141MOL     H719887   2.944   6.183   8.054 -0.8383  2.3918  0.7561
  141MOL     H819888   3.119   6.030   8.108 -0.3456  0.2961 -0.7433
  141MOL     C919889   3.012   6.239   8.250  0.1376  0.2472  0.1764
  141MOL    C1019890   2.945   6.261   0.075 -0.1158 -0.1902 -0.5073
  141MOL    C1119891   2.931   6.138   0.157 -0.9172 -0.5897  0.0921
  141MOL    N1219892   2.925   6.040   0.227  0.2360 -0.1900 -0.0664
  141MOL    H1319893   3.115   6.208   8.266 -0.0970 -1.0069 -0.7012
  141MOL    H1419894   3.011   6.335   8.197  0.9322  0.0321 -0.2269
  141MOL    H1519895   2.842   6.291   0.055 -0.3997 -0.7169  0.1545
  141MOL    C1619896   3.020   6.374   0.152  0.1751  0.5556  0.5698
  141MOL    C1719897   2.954   6.413   0.286  0.0621 -0.3074 -0.1972
  141MOL    C1819898   2.810   6.451   0.262  0.0260  0.4115  0.3507
  141MOL    N1919899   2.696   6.473   0.240 -0.0879 -0.4552 -0.3890
  141MOL    H2019900   3.121   6.337   0.175 -0.8261 -2.9752 -0.3434
  141MOL    H2119901   3.040   6.460   0.089  0.7200  0.9627  1.2948
  141MOL    H2219902   2.995   6.509   0.318  0.5893 -0.4762 -0.3477
  141MOL    C2319903   2.966   6.318   0.404 -0.5757 -0.0479 -0.6714
  141MOL    C2419904   2.990   6.372   0.545 -0.2936  0.1644 -0.1326
  141MOL    C2519905   3.125   6.423   0.555 -0.5107 -0.5847 -0.0997
  141MOL    N2619906   3.235   6.470   0.569 -0.1608 -0.5947  0.2045
  141MOL    H2719907   2.878   6.254   0.408  1.3587 -2.7447  0.2300
  141MOL    H2819908   3.045   6.246   0.381 -2.4280 -2.2199 -0.4717
  141MOL    H2919909   2.978   6.284   0.608 -1.5591 -0.7441 -1.5979
  141MOL    C3019910   2.888   6.478   0.577 -0.0793 -0.5145 -0.1831
  141MOL    C3119911   2.888   6.546   0.716 -0.2031  0.1238 -0.0261
  141MOL    C3219912   2.954   6.459   0.810  0.2893  0.5400 -0.3737
  141MOL    N3319913   3.009   6.397   0.887 -0.0051 -0.5114  0.0662
  141MOL    H3419914   2.894   6.560   0.506  0.1149  1.1437  1.7057
  141MOL    H3519915   2.787   6.442   0.557 -0.2499 -0.5488  0.7406
  141MOL    H3619916   2.782   6.546   0.739  0.1290 -0.9711  1.5426
  141MOL    C3719917   2.930   6.692   0.711  0.5253  0.4560 -0.0786
  141MOL    C3819918   2.889   6.776   0.828 -0.2243  0.4319 -0.4340
  141MOL    C3919919   2.972   6.753   0.949  0.4750 -0.0036 -0.8090
  141MOL    N4019920   3.033   6.737   1.046 -0.0560 -0.6519 -0.3918
  141MOL    H4119921   3.034   6.703   0.680  0.6455  1.9123  0.7997
  141MOL    H4219922   2.869   6.739   0.634 -1.0201 -0.9987  0.2255
  141MOL    H4319923   2.792   6.737   0.860 -0.9124  1.9855 -0.5836
  141MOL    C4419924   2.887   6.932   0.815  0.2196  0.3850  0.0572
  141MOL    C4519925   2.780   6.993   0.722  0.0872  0.3613 -0.5605
  141MOL    C4619926   2.650   6.927   0.748  0.2542 -0.3864 -1.2519
  141MOL    N4719927   2.553   6.867   0.775  0.2179 -0.3526  0.2412
  141MOL    H4819928   2.858   6.953   0.918 -0.6203  1.1156 -0.3211
  141MOL    H4919929   2.986   6.973   0.796 -0.2517  0.9048 -1.3174
  141MOL    H5019930   2.806   6.961   0.621  2.4076  2.6232 -0.7493
  141MOL    C5119931   2.762   7.153   0.720 -0.3215 -0.5246  0.4419
  141MOL    C5219932   2.879   7.236   0.660 -0.4326  0.3982 -0.2935
  141MOL    C5319933   2.955   7.165   0.559 -1.1366 -0.1564 -0.2815
  141MOL    N5419934   3.019   7.112   0.481 -0.7374 -0.1194  0.1864
  141MOL    H5519935   2.668   7.182   0.674  0.5708 -0.3852 -1.3534
  141MOL    H5619936   2.747   7.190   0.821 -0.8797 -0.0182  0.1771
  141MOL    H5719937   2.949   7.250   0.743  0.6197 -1.3009 -0.8709
  141MOL    C5819938   2.851   7.385   0.619  0.6596 -0.5290 -1.0154
  141MOL    C5919939   2.973   7.456   0.556  0.0853  0.1296  0.1273
  141MOL    C6019940   2.922   7.568   0.475 -0.2480  0.0128 -0.2742
  141MOL    N6119941   2.880   7.654   0.413 -0.3395 -0.3869  0.5225
  141MOL    H6219942   2.766   7.397   0.552 -1.2666 -1.9038  1.1179
  141MOL    H6319943   2.826   7.433   0.714  0.8961 -1.3667 -0.5214
  141MOL    H6419944   3.023   7.386   0.490  0.8788  0.1473  0.7019
  141MOL    C6519945   3.090   7.485   0.654 -0.0975  0.1416 -0.2838
  141MOL    C6619946   3.218   7.509   0.569  0.7868  0.1852 -0.5540
  141MOL    C6719947   3.212   7.635   0.496 -0.7058 -0.4642  0.6778
  141MOL    N6819948   3.213   7.734   0.440 -0.1196 -0.5027  0.4674
  141MOL    H6919949   3.049   7.567   0.712 -1.9752 -2.0348  1.5616
  141MOL    H7019950   3.116   7.394   0.708  0.4439  0.6441  0.3102
  141MOL    H7119951   3.225   7.432   0.493  1.2048 -1.8257  1.4762
  141MOL    C7219952   3.347   7.490   0.656 -0.7726  0.0750 -0.8361
  141MOL    C7319953   3.465   7.434   0.576 -0.6714 -0.1232  0.2909
  141MOL    C7419954   3.491   7.494   0.441  0.1103  0.6987  0.1889
  141MOL    N7519955   3.510   7.541   0.337 -0.2175 -0.3261 -0.8654
  141MOL    H7619956   3.377   7.590   0.687  1.4690 -0.5504 -0.9165
  141MOL    H7719957   3.337   7.423   0.741  0.3901 -1.0369 -1.5759
  141MOL    H7819958   3.430   7.333   0.557 -0.6712  0.3404 -2.4119
  141MOL    C7919959   3.602   7.432   0.645 -0.0550  0.2965  0.1039
  141MOL    C8019960   3.706   7.336   0.588 -0.2205  0.7417 -0.0967
  141MOL    C8119961   3.664   7.189   0.592  0.5214  0.0635  0.1719
  141MOL    N8219962   3.639   7.076   0.590  0.5334  0.3949  0.2587
  141MOL    H8319963   3.656   7.527   0.641 -1.3020  1.0634  0.9244
  141MOL    H8419964   3.576   7.400   0.746 -5.0405 -1.7851 -1.6791
  141MOL    H8519965   3.790   7.340   0.659 -0.2054  0.2432 -0.0816
  141MOL    C8619966   3.760   7.368   0.445 -0.0065  0.3211 -0.4031
  141MOL    C8719967   3.893   7.297   0.394  0.1092  0.9871  0.2534
  141MOL    C8819968   4.013   7.322   0.478 -0.1211 -0.1512  0.4762
  141MOL    N8919969   4.106   7.346   0.542 -0.2782  0.0989  0.4691
  141MOL    H9019970   3.687   7.368   0.365  0.8698  2.1492 -1.2463
  141MOL    H9119971   3.784   7.474   0.438 -0.7604  0.3766 -2.2781
  141MOL    H9219972   3.913   7.353   0.302  1.2502  0.1154 -0.0472
  141MOL    C9319973   3.877   7.152   0.358  0.0681  0.1601 -0.2234
  141MOL    C9419974   3.763   7.119   0.257 -0.3988 -0.0872 -0.1213
  141MOL    C9519975   3.771   7.210   0.137  0.4887 -0.4154 -0.2934
  141MOL    N9619976   3.779   7.270   0.037  0.3929 -0.4803  0.1895
  141MOL    H9719977   3.970   7.109   0.319  0.0750  0.9339 -1.0718
  141MOL    H9819978   3.863   7.089   0.446  1.1179 -1.2273 -1.0075
  141MOL    H9919979   3.666   7.145   0.299 -0.9622  0.0425 -1.4779
  141MOL   C10019980   3.764   6.979   0.209 -0.6592  0.0507 -0.0356
  141MOL   C10119981   3.622   6.914   0.184  0.6935 -0.2799 -0.1071
  141MOL   C10219982   3.642   6.782   0.116  0.1902 -0.3119 -0.7012
  141MOL   N10319983   3.665   6.682   0.065 -0.3328  0.4029  0.1996
  141MOL   H10419984   3.826   6.979   0.120 -1.8953  0.8395 -0.9146
  141MOL   H10519985   3.827   6.919   0.275  0.6078  2.2606  0.8355
  141MOL   H10619986   3.569   6.984   0.119  0.2761  0.6675  1.2327
  141MOL   C10719987   3.518   6.899   0.307  0.7367  0.0511  0.1643
  141MOL   C10819988   3.535   6.770   0.398  0.0978 -1.3223 -0.0829
  141MOL   C10919989   3.678   6.728   0.407  0.0738 -0.1884  0.3399
  141MOL   N11019990   3.790   6.695   0.413  0.0229  0.2469  0.8108
  141MOL   H11119991   3.534   6.994   0.358  1.8520 -0.1491  0.1957
  141MOL   H11219992   3.415   6.911   0.273  0.3301  1.6639  1.9081
  141MOL   H11319993   3.494   6.687   0.341  2.0435 -2.4585  0.1274
  141MOL   C11419994   3.474   6.776   0.534  0.3990  0.1070 -0.4222
  141MOL   C11519995   3.339   6.851   0.557 -0.1427  0.3291  0.9358
  141MOL   C11619996   3.235   6.810   0.458  0.2711 -0.0134  0.3948
  141MOL   N11719997   3.149   6.780   0.385 -0.6517  0.5194  0.4587
  141MOL   H11819998   3.464   6.678   0.580  0.8501  1.2774  2.2841
  141MOL   H11919999   3.546   6.822   0.602 -1.0815 -1.3723  2.2444
  141MOL   H12020000   3.358   6.954   0.527 -2.7970  0.7150  0.5045
  141MOL   C12120001   3.293   6.840   0.701  0.3253 -0.3816  0.3343
  141MOL   C12220002   3.361   6.934   0.796  0.2966  0.3525 -0.0558
  141MOL   C12320003   3.325   7.072   0.762 -0.5233  0.2656  0.0102
  141MOL   N12420004   3.305   7.181   0.739  0.1307 -0.5810 -0.3702
  141MOL   H12520005   3.186   6.863   0.711  0.7999  2.3630 -0.4691
  141MOL   H12620006   3.300   6.735   0.728 -1.9086 -0.7785 -0.4912
  141MOL   H12720007   3.468   6.926   0.778  0.2511 -0.1595 -0.1100
  141MOL   C12820008   3.333   6.904   0.945 -0.2189  0.4874  0.7894
  141MOL   C12920009   3.399   7.001   1.052 -0.2837  0.1521 -0.3361
  141MOL   C13020010   3.342   7.138   1.053  0.1769 -1.1438  0.1913
  141MOL   N13120011   3.298   7.246   1.052 -0.1193  0.4492  0.2088
  141MOL   H13220012   3.226   6.896   0.964 -0.3057 -0.8679 -0.1598
  141MOL   H13320013   3.369   6.803   0.960  0.5282  0.5289 -0.5686
  141MOL   H13420014   3.507   7.012   1.051 -0.5500  3.4249  0.5817
  141MOL   C13520015   3.365   6.948   1.191  0.2706 -0.4507  0.0260
  141MOL   C13620016   3.396   7.025   1.314 -0.2020 -0.1066  0.1957
  141MOL   C13720017   3.351   6.961   1.440 -0.0620  0.3203 -0.1803
  141MOL   N13820018   3.318   6.909   1.536 -0.2780 -0.1650 -0.2300
  141MOL   H13920019   3.258   6.932   1.202  0.3535 -1.3089 -0.3689
  141MOL   H14020020   3.417   6.853   1.199  3.2780  1.0937 -0.3427
  141MOL   H14120021   3.353   7.125   1.306 -1.0357 -0.6591 -2.6707
  141MOL   H14220022   3.503   7.045   1.322 -0.4727  1.5224 -0.1762
  142MOL     C120023   2.549   8.199   3.748  0.0180  0.3741  0.1242
  142MOL     C220024   2.684   8.163   3.679 -0.1879  0.2197  0.0519
  142MOL     C320025   2.765   8.287   3.676  0.3546  0.0491  0.7375
  142MOL     N420026   2.834   0.073   3.685  0.2806  0.0273  0.5489
  142MOL     H520027   2.489   8.266   3.686 -1.5862 -1.7092 -0.6392
  142MOL     H620028   2.560   8.241   3.848 -1.4229 -0.3759  0.5997
  142MOL     H720029   2.680   8.132   3.574 -3.8710 -0.0929  0.2220
  142MOL     H820030   2.485   8.112   3.760  0.6795 -0.3818 -1.6624
  142MOL     C920031   2.749   8.033   3.743  1.1036 -0.0653  0.3369
  142MOL    C1020032   2.896   8.032   3.766 -0.3855  0.4523 -0.7017
  142MOL    C1120033   2.974   8.059   3.642 -0.0813  0.4497  0.2699
  142MOL    N1220034   3.029   8.076   3.539 -0.1503  0.0834  0.5651
  142MOL    H1320035   2.696   8.019   3.837 -0.1109 -0.1386 -0.3406
  142MOL    H1420036   2.698   7.953   3.689  1.1713  0.1076  0.0135
  142MOL    H1520037   2.911   7.925   3.778 -2.7431  0.2703  0.8986
  142MOL    C1620038   2.964   8.106   3.886  0.2043 -0.1757 -0.3843
  142MOL    C1720039   3.120   8.088   3.915 -0.3456  0.4385 -0.8327
  142MOL    C1820040   3.157   8.143   4.048 -0.2044 -0.2523 -0.5720
  142MOL    N1920041   3.198   8.180   4.147  0.6722  0.0877 -0.1265
  142MOL    H2020042   2.933   8.211   3.883 -1.4318 -0.6857 -2.7873
  142MOL    H2120043   2.913   8.057   3.968 -0.3742  1.6190  0.3602
  142MOL    H2220044   3.182   8.142   3.844  1.1175 -0.4253 -0.2245
  142MOL    C2320045   3.154   7.935   3.901  0.9450 -0.2692 -0.0914
  142MOL    C2420046   3.301   7.901   3.931  0.5563 -0.0968  0.3705
  142MOL    C2520047   3.336   7.887   4.074 -0.0050  0.5705 -0.1171
  142MOL    N2620048   3.366   7.877   4.184  0.2509  0.9501  0.8620
  142MOL    H2720049   3.090   7.869   3.959  2.1844 -1.5982 -0.2195
  142MOL    H2820050   3.128   7.917   3.797  1.2270 -0.4028 -0.1392
  142MOL    H2920051   3.363   7.978   3.886  1.0786 -0.6492  0.1440
  142MOL    C3020052   3.329   7.766   3.855 -0.6417  1.1965  0.0146
  142MOL    C3120053   3.472   7.701   3.897 -0.0966  0.4108 -0.0063
  142MOL    C3220054   3.489   7.578   3.821  0.1679  0.1240 -0.1429
  142MOL    N3320055   3.499   7.480   3.756 -0.6781 -0.6730 -0.6452
  142MOL    H3420056   3.246   7.699   3.874  0.5830 -0.2620  0.3780
  142MOL    H3520057   3.319   7.793   3.750  5.4650 -0.6102 -1.2628
  142MOL    H3620058   3.474   7.683   4.004  1.1528  1.3073  0.1363
  142MOL    C3720059   3.603   7.785   3.874  0.0603  0.0189  0.1761
  142MOL    C3820060   3.710   7.758   3.977 -0.8267 -0.2758 -0.7062
  142MOL    C3920061   3.764   7.617   3.953  0.3779 -0.5284 -0.2738
  142MOL    N4020062   3.799   7.510   3.938  0.1712 -0.0023 -0.9028
  142MOL    H4120063   3.643   7.759   3.776  1.3816  0.8124  0.4984
  142MOL    H4220064   3.574   7.890   3.871  0.2281  0.0367 -1.1590
  142MOL    H4320065   3.658   7.757   4.073  2.3110 -0.4504  1.0678
  142MOL    C4420066   3.813   7.884   3.980 -0.6580 -0.2487 -0.1523
  142MOL    C4520067   3.935   7.886   4.076  0.4667  0.5780 -0.2401
  142MOL    C4620068   3.878   7.854   4.205  0.1071 -0.7476 -0.4081
  142MOL    N4720069   3.837   7.823   4.310 -0.2427  0.2288 -0.2095
  142MOL    H4820070   3.842   7.918   3.881 -0.3046 -0.0905  0.0046
  142MOL    H4920071   3.749   7.962   4.023 -0.3219  0.6060 -1.1714
  142MOL    H5020072   3.966   7.990   4.089  1.0696  0.1681  1.7168
  142MOL    C5120073   4.047   7.802   4.023  0.2067 -0.5558 -0.1156
  142MOL    C5220074   4.180   7.789   4.108  0.3003 -0.1463 -0.7543
  142MOL    C5320075   4.170   7.694   4.215  0.0030 -0.1202  0.2370
  142MOL    N5420076   4.157   7.611   4.297 -0.1616 -0.4727 -0.3514
  142MOL    H5520077   4.012   7.701   4.006  1.0674 -0.9300  0.3307
  142MOL    H5620078   4.071   7.835   3.922  3.1852  0.3205  0.8380
  142MOL    H5720079   4.191   7.885   4.158  0.9823 -0.6964  0.1656
  142MOL    C5820080   4.307   7.774   4.026  0.3674 -0.0351 -0.1219
  142MOL    C5920081   4.448   7.766   4.108  0.1202  0.4295 -0.0698
  142MOL    C6020082   4.464   7.636   4.175 -0.0783  0.2528 -0.5676
  142MOL    N6120083   4.474   7.531   4.227  0.0753 -0.6850 -0.3011
  142MOL    H6220084   4.307   7.682   3.967  0.4208  0.4319 -0.8631
  142MOL    H6320085   4.311   7.858   3.956 -0.1513  1.4620  1.6175
  142MOL    H6420086   4.441   7.832   4.195  1.2219 -0.2295  0.5228
  142MOL    C6520087   4.584   7.791   4.029  0.2340  0.1673  0.5842
  142MOL    C6620088   4.599   7.904   3.927 -0.2969  0.4028 -0.0525
  142MOL    C6720089   4.526   7.862   3.805 -0.2846 -0.2023  0.4205
  142MOL    N6820090   4.462   7.826   3.714 -0.3820  0.4671  0.3605
  142MOL    H6920091   4.664   7.797   4.103  1.3519 -1.2732 -0.4638
  142MOL    H7020092   4.604   7.696   3.978  1.4865  0.6880  0.0629
  142MOL    H7120093   4.704   7.901   3.897 -0.1850  0.5879  0.3077
  142MOL    C7220094   4.542   8.033   3.980 -0.1706 -0.6633  0.4412
  142MOL    C7320095   4.637   8.145   4.025  0.0008  0.4707 -0.4333
  142MOL    C7420096   4.739   8.153   3.924  0.8931 -0.1840 -0.5417
  142MOL    N7520097   4.817   8.160   3.840  0.5585 -0.4923  0.2455
  142MOL    H7620098   4.483   8.078   3.900  2.3698  1.4774 -0.3187
  142MOL    H7720099   4.479   8.019   4.067  0.4414  0.2651  1.0402
  142MOL    H7820100   4.688   8.119   4.118  1.1264  0.7753 -0.9628
  142MOL    C7920101   4.571   8.282   4.050  0.2203  0.3096  0.1891
  142MOL    C8020102   4.454   8.288   4.151 -0.3954  0.0530  0.6788
  142MOL    C8120103   4.330   8.243   4.091 -0.0042 -0.0894 -0.3674
  142MOL    N8220104   4.229   8.209   4.045 -0.8828 -0.0291 -0.8321
  142MOL    H8320105   4.662   0.023   4.078  2.0673 -2.4519 -0.3829
  142MOL    H8420106   4.547   0.003   3.950  0.2922 -2.1124 -0.6536
  142MOL    H8520107   4.441   0.081   4.175 -0.1938  0.2387 -0.0321
  142MOL    C8620108   4.488   8.212   4.285 -0.2074 -0.0579 -0.5232
  142MOL    C8720109   4.398   8.258   4.400  0.1818  0.8974  0.1693
  142MOL    C8820110   4.391   0.086   4.400  1.0711 -0.1425 -0.3547
  142MOL    N8920111   4.378   0.198   4.395 -0.0018 -0.0843  0.2555
  142MOL    H9020112   4.481   8.103   4.277 -0.5385 -0.1601  1.0836
  142MOL    H9120113   4.590   8.227   4.320 -1.1782  0.6500  2.0503
  142MOL    H9220114   4.450   8.225   4.490 -0.0307  0.0633 -0.0161
  142MOL    C9320115   4.258   8.191   4.407 -0.0702  0.2506 -0.3972
  142MOL    C9420116   4.191   8.183   4.548 -0.7415 -0.2844  0.3544
  142MOL    C9520117   4.267   8.117   4.652  0.4099  0.0903  0.2564
  142MOL    N9620118   4.330   8.078   4.741 -0.1720  0.0814 -0.0662
  142MOL    H9720119   4.186   8.227   4.334 -1.8743 -0.8163  0.8047
  142MOL    H9820120   4.277   8.088   4.380  2.6091  0.4726  0.5380
  142MOL    H9920121   4.102   8.122   4.538 -1.0717 -0.1285  2.2376
  142MOL   C10020122   4.141   8.312   4.610 -0.0262  0.5376 -0.3910
  142MOL   C10120123   4.047   0.079   4.518  0.2636  0.9223  0.7198
  142MOL   C10220124   3.948   8.303   4.459 -0.7107  0.8349  0.2786
  142MOL   N10320125   3.866   8.231   4.407  0.7650  0.3372 -0.1741
  142MOL   H10420126   4.089   8.280   4.700 -0.9667 -0.1930 -1.1809
  142MOL   H10520127   4.230   0.058   4.632  1.6023 -1.8534 -0.4981
  142MOL   H10620128   4.094   0.115   4.427 -0.6073 -2.1900 -1.0256
  142MOL   C10720129   3.983   0.202   4.583 -0.3217  0.0284 -0.0560
  142MOL   C10820130   3.852   0.179   4.657 -0.3166 -0.0328  0.5751
  142MOL   C10920131   3.867   0.100   4.779 -0.3325 -0.6273 -0.2891
  142MOL   N11020132   3.879   0.036   4.877 -0.1918  0.0603 -0.6686
  142MOL   H11120133   4.062   0.241   4.648  2.5644 -1.5171 -2.5107
  142MOL   H11220134   3.961   0.274   4.505  0.1580 -1.2596 -1.4113
  142MOL   H11320135   3.790   0.115   4.595 -2.5444  0.3614  2.3456
  142MOL   C11420136   3.791   0.323   4.679 -0.7601 -0.4133  0.0685
  142MOL   C11520137   3.639   0.332   4.661  0.0475  0.1662 -0.2989
  142MOL   C11620138   3.571   0.214   4.717 -0.0876 -0.3047 -0.3275
  142MOL   N11720139   3.519   0.124   4.769  0.2633  0.0408 -0.4664
  142MOL   H11820140   3.813   0.361   4.779  1.6477  0.8905 -0.9074
  142MOL   H11920141   3.834   0.397   4.612  0.6137  0.9817  2.4401
  142MOL   H12020142   3.606   0.329   4.558 -1.2951  1.5588  0.0766
  142MOL   C12120143   3.588   0.463   4.727  0.1264 -0.4386  0.2971
  142MOL   C12220144   3.427   0.480   4.741 -0.0437  0.2375  0.2103
  142MOL   C12320145   3.383   0.618   4.790 -0.4132 -0.6222  0.7998
  142MOL   N12420146   3.346   0.722   4.824 -0.2783  0.1183  0.1058
  142MOL   H12520147   3.634   0.473   4.825 -0.0584  1.3276  0.2278
  142MOL   H12620148   3.640   0.539   4.668  0.7088  0.3071  1.7490
  142MOL   H12720149   3.386   0.416   4.819 -1.6803  1.6612  0.5450
  142MOL   C12820150   3.358   0.437   4.608 -0.6844 -0.2888  0.0099
  142MOL   C12920151   3.210   0.449   4.605 -0.3287 -0.1281  0.3112
  142MOL   C13020152   3.150   0.400   4.722 -0.3259  0.3149 -0.4613
  142MOL   N13120153   3.098   0.363   4.821  0.1250 -0.0350  0.3762
  142MOL   H13220154   3.403   0.506   4.537 -0.4257 -1.6788 -1.2016
  142MOL   H13320155   3.388   0.337   4.575  1.3245  0.7428 -1.3647
  142MOL   H13420156   3.176   0.379   4.528  1.4790  0.4815 -1.0766
  142MOL   C13520157   3.147   0.582   4.562  0.1382 -0.1805  0.5569
  142MOL   C13620158   2.996   0.585   4.550  0.3927  0.3489 -0.7031
  142MOL   C13720159   2.933   0.535   4.432  0.4730  0.2395  0.0764
  142MOL   N13820160   2.876   0.488   4.339 -0.1306 -0.6557  0.6226
  142MOL   H13920161   3.170   0.648   4.646  1.6940  2.1612 -1.6239
  142MOL   H14020162   3.197   0.637   4.482  0.2333 -0.3610  0.4942
  142MOL   H14120163   2.979   0.693   4.558  5.2390  1.3575 -2.3317
  142MOL   H14220164   2.966   0.530   4.639 -1.6903 -2.2158 -2.9000
  143MOL     C120165   4.975   0.296   3.674  0.1263 -0.2732  0.1265
  143MOL     C220166   4.927   0.150   3.709 -0.8758 -0.6031  0.7353
  143MOL     C320167   4.796   0.161   3.778  0.8537  0.1428 -0.8531
  143MOL     N420168   4.699   0.174   3.836  0.0540 -0.3591 -0.0447
  143MOL     H520169   5.083   0.299   3.661  0.4227 -0.0871  2.4187
  143MOL     H620170   4.955   0.372   3.748  2.0517 -0.4136  0.8300
  143MOL     H720171   4.995   0.109   3.784  0.3318 -0.5378 -0.2953
  143MOL     H820172   4.936   0.339   3.582  4.2339 -2.1858 -2.7262
  143MOL     C920173   4.907   0.054   3.589 -0.0609  0.0358  0.5121
  143MOL    C1020174   5.037   0.037   3.513  0.4404 -0.6692  0.3007
  143MOL    C1120175   5.140   8.312   3.611  0.7463 -1.2207 -0.7044
  143MOL    N1220176   5.221   8.281   3.686 -0.7179 -0.3677 -0.3177
  143MOL    H1320177   4.882   8.267   3.624 -0.3966  0.0992  0.4517
  143MOL    H1420178   4.821   0.086   3.530 -1.0189 -2.7999  0.3156
  143MOL    H1520179   5.065   0.134   3.471  1.4776  0.0979  2.6672
  143MOL    C1620180   5.012   8.251   3.390  0.3989  0.2715  0.0354
  143MOL    C1720181   5.123   8.250   3.278  0.5828 -0.0348 -0.4195
  143MOL    C1820182   5.128   0.066   3.203  0.6518 -0.4032 -0.3261
  143MOL    N1920183   5.133   0.167   3.146 -0.0955  0.0684 -0.8538
  143MOL    H2020184   5.013   8.148   3.427 -1.0281  0.6261  1.0953
  143MOL    H2120185   4.917   8.268   3.341  1.0980  3.0410 -0.4531
  143MOL    H2220186   5.105   8.166   3.211 -1.1600  0.3234 -0.4104
  143MOL    C2320187   5.256   8.223   3.352  0.5777  0.1803  0.5279
  143MOL    C2420188   5.370   8.166   3.264  0.6521  1.0543 -0.1404
  143MOL    C2520189   5.413   8.265   3.170 -0.0150 -0.5197 -0.6592
  143MOL    N2620190   5.447   0.036   3.097  0.8858  0.0936  0.2430
  143MOL    H2720191   5.294   0.007   3.386  1.5903 -0.2749  0.7013
  143MOL    H2820192   5.238   8.153   3.434 -0.5773 -0.1625 -0.0056
  143MOL    H2920193   5.337   8.076   3.213 -0.3741  0.9691  0.6498
  143MOL    C3020194   5.490   8.121   3.349 -0.0535  0.3377  0.2135
  143MOL    C3120195   5.475   7.994   3.436 -1.0117 -0.6567 -0.0200
  143MOL    C3220196   5.469   7.866   3.358  0.3587  0.6987  0.1925
  143MOL    N3320197   5.468   7.770   3.293 -0.7123  0.7484  0.0321
  143MOL    H3420198   5.578   8.108   3.287 -0.2509 -3.5896  0.6059
  143MOL    H3520199   5.514   8.204   3.415 -0.5617  2.0110 -1.6985
  143MOL    H3620200   5.391   8.007   3.504 -0.3023  0.3747  0.6664
  143MOL    C3720201   5.606   7.994   3.517  0.6496 -0.1445  0.5082
  143MOL    C3820202   5.610   8.073   3.657  0.3075  0.3413 -0.6312
  143MOL    C3920203   5.503   8.019   3.745  0.0586 -0.5330 -0.0993
  143MOL    N4020204   5.423   7.974   3.818  0.3609  0.3046  0.8337
  143MOL    H4120205   5.624   7.887   3.535 -1.2792 -0.5325  0.1934
  143MOL    H4220206   5.695   8.008   3.456 -0.2704 -1.1295 -1.0908
  143MOL    H4320207   5.588   8.179   3.645 -2.3834 -0.1705 -0.4902
  143MOL    C4420208   5.747   8.052   3.729  0.2478 -0.1648 -0.1105
  143MOL    C4520209   5.856   8.140   3.672 -0.0273  0.6285 -0.7692
  143MOL    C4620210   5.826   8.280   3.693  0.6973  0.5211  0.3875
  143MOL    N4720211   5.803   0.078   3.713 -0.1876 -0.1143  0.1178
  143MOL    H4820212   5.724   8.070   3.834  0.2773  1.8555 -0.4315
  143MOL    H4920213   5.778   7.948   3.715 -0.2390 -0.2243 -0.7773
  143MOL    H5020214   5.866   8.132   3.564  0.7570  1.0225 -0.7304
  143MOL    C5120215   5.990   8.106   3.744  0.1609  0.0381 -0.3324
  143MOL    C5220216   6.111   8.190   3.697 -0.4208  0.4544  0.5565
  143MOL    C5320217   6.237   8.144   3.758 -0.1450 -0.7560  0.0404
  143MOL    N5420218   6.341   8.113   3.813 -0.1779  0.6227 -0.2950
  143MOL    H5520219   5.974   8.120   3.851  2.9260  0.8337  0.0246
  143MOL    H5620220   6.005   8.001   3.721  0.7858 -0.0253  0.3545
  143MOL    H5720221   6.083   8.287   3.740 -0.7688 -0.4463  2.3993
  143MOL    C5820222   6.117   8.191   3.543  0.0065 -0.0636 -0.0074
  143MOL    C5920223   6.235   8.263   3.489  0.0213  0.6242  0.9059
  143MOL    C6020224   6.252   8.230   3.345  0.2270 -0.3009 -0.3184
  143MOL    N6120225   6.266   8.202   3.234  0.4209 -0.1454 -0.0339
  143MOL    H6220226   6.122   8.090   3.504 -1.8835 -0.3330  0.4044
  143MOL    H6320227   6.030   8.236   3.496 -1.0699  0.0995  2.0853
  143MOL    H6420228   6.323   8.222   3.539 -0.6314  0.5007  1.9632
  143MOL    C6520229   6.224   0.095   3.521  0.4376 -0.1382 -0.2038
  143MOL    C6620230   6.363   0.169   3.498  0.9707  0.2134  0.2921
  143MOL    C6720231   6.472   0.115   3.573  0.2307  0.8593 -0.8906
  143MOL    N6820232   6.559   0.070   3.639  0.8362 -0.0859  0.4875
  143MOL    H6920233   6.143   0.139   3.464 -0.2689 -0.4563  0.5472
  143MOL    H7020234   6.197   0.103   3.627 -0.4493  1.2375 -0.5258
  143MOL    H7120235   6.344   0.267   3.542  0.8146  1.0555 -1.6192
  143MOL    C7220236   6.396   0.183   3.353  0.0474  0.5371  0.4913
  143MOL    C7320237   6.476   0.307   3.310 -0.2934 -0.1196 -0.2209
  143MOL    C7420238   6.604   0.309   3.375 -0.3124  0.1763  0.0508
  143MOL    N7520239   6.710   0.308   3.423  0.8822  0.6085  0.4522
  143MOL    H7620240   6.443   0.090   3.321  1.0474  0.7738  1.2505
  143MOL    H7720241   6.301   0.201   3.301  0.6106 -0.0830 -0.7661
  143MOL    H7820242   6.443   0.403   3.350  1.1139 -0.7288  2.5049
  143MOL    C7920243   6.492   0.311   3.158  0.1342  0.2450  0.1161
  143MOL    C8020244   6.539   0.446   3.097 -0.2968  0.1664  0.3939
  143MOL    C8120245   6.675   0.483   3.133 -0.3977  0.3873 -0.0471
  143MOL    N8220246   6.784   0.509   3.164  0.2955 -0.0177 -0.9632
  143MOL    H8320247   6.558   0.228   3.131  1.1149  1.8141 -2.5164
  143MOL    H8420248   6.401   0.282   3.105 -0.2377  1.1709  0.2397
  143MOL    H8520249   6.469   0.523   3.130 -0.5278  0.9008 -1.6954
  143MOL    C8620250   6.527   0.446   2.939 -0.5303 -0.0698 -0.2504
  143MOL    C8720251   6.581   0.575   2.868 -0.6729  0.9423  0.1159
  143MOL    C8820252   6.566   0.705   2.938  0.7782  0.3854 -0.3287
  143MOL    N8920253   6.551   0.802   2.992  0.2597  0.5180 -0.4019
  143MOL    H9020254   6.577   0.360   2.894 -1.8890 -1.3038  0.5480
  143MOL    H9120255   6.421   0.438   2.914 -0.7015 -0.9403  0.7273
  143MOL    H9220256   6.528   0.582   2.773 -0.2242 -2.6408 -0.4722
  143MOL    C9320257   6.732   0.555   2.831  0.1156 -0.2884 -0.2332
  143MOL    C9420258   6.788   0.602   2.697  0.0568  0.0404  0.3661
  143MOL    C9520259   6.758   0.744   2.678 -0.3049  0.0599  0.2035
  143MOL    N9620260   6.725   0.854   2.661 -0.4882 -0.3280 -0.0783
  143MOL    H9720261   6.799   0.590   2.910 -1.2178 -1.5089  1.4603
  143MOL    H9820262   6.758   0.450   2.842 -1.4448 -0.7051 -0.5097
  143MOL    H9920263   6.723   0.559   2.621 -0.9820  0.6463  0.9034
  143MOL   C10020264   6.940   0.576   2.670  0.1982 -0.2509  1.0269
  143MOL   C10120265   7.044   0.616   2.777 -0.3417 -1.1550  0.3232
  143MOL   C10220266   7.023   0.745   2.842 -0.7001 -0.1420  0.1045
  143MOL   N10320267   7.012   0.850   2.890  0.6752 -0.7496  0.0377
  143MOL   H10420268   6.946   0.473   2.636 -1.0767  0.6721 -2.2800
  143MOL   H10520269   6.968   0.642   2.587 -1.5321 -0.3470  0.3487
  143MOL   H10620270   7.140   0.612   2.727 -0.4501  0.6251 -0.0633
  143MOL   C10720271   7.063   0.505   2.883 -0.1440  0.6254 -0.0804
  143MOL   C10820272   7.060   0.356   2.839  0.4374 -0.4300  0.5109
  143MOL   C10920273   7.152   0.340   2.722 -0.4387  0.4107 -0.5524
  143MOL   N11020274   7.219   0.326   2.627  0.0246 -0.1420 -0.1526
  143MOL   H11120275   7.155   0.535   2.933  0.3430 -0.9384 -0.0134
  143MOL   H11220276   6.982   0.510   2.956  0.2959  4.1525  0.2422
  143MOL   H11320277   6.957   0.330   2.815 -0.1341  1.4844  0.8003
  143MOL   C11420278   7.115   0.260   2.945 -0.1484  0.7926  0.0720
  143MOL   C11520279   7.038   0.242   3.077  0.5481  0.6027 -0.4427
  143MOL   C11620280   6.895   0.227   3.047  0.4088 -0.4092  0.5871
  143MOL   N11720281   6.779   0.217   3.026  0.0782  0.2892 -0.0312
  143MOL   H11820282   7.127   0.164   2.894  1.6788  0.0284  1.8586
  143MOL   H11920283   7.218   0.288   2.969  0.1101  1.4800 -1.7918
  143MOL   H12020284   7.051   0.327   3.144 -0.0705  1.0275 -0.8482
  143MOL   C12120285   7.096   0.118   3.151  0.0037 -0.2737  0.2916
  143MOL   C12220286   7.028   0.089   3.287  0.0879 -0.2416 -0.1949
  143MOL   C12320287   7.037   0.223   3.360 -0.1837 -0.2833 -0.0700
  143MOL   N12420288   7.042   0.326   3.414  0.0507  0.2196 -0.2343
  143MOL   H12520289   7.091   0.031   3.086  0.5803  0.2897 -0.5153
  143MOL   H12620290   7.200   0.142   3.174 -0.9090  4.2203  0.0793
  143MOL   H12720291   7.100   0.026   3.339 -0.6127 -1.7534 -1.0022
  143MOL   C12820292   6.887   0.024   3.276  1.0995 -0.0276  0.3704
  143MOL   C12920293   6.853   8.247   3.404 -0.2752  0.0111 -0.7171
  143MOL   C13020294   6.890   0.004   3.532  0.3447 -0.1352 -0.0810
  143MOL   N13120295   6.912   0.060   3.628  0.1489  0.4918  0.1464
  143MOL   H13220296   6.821   0.110   3.271 -0.0471 -0.6844  3.1987
  143MOL   H13320297   6.882   8.275   3.186 -0.9284 -0.7801  0.9702
  143MOL   H13420298   6.912   8.156   3.394 -1.4977 -0.6508 -2.0535
  143MOL   C13520299   6.710   8.189   3.404  0.5591 -0.2796  0.1815
  143MOL   C13620300   6.675   8.086   3.514 -0.2022 -0.2603  0.3862
  143MOL   C13720301   6.553   8.016   3.463  0.4087  0.2958  0.0287
  143MOL   N13820302   6.456   7.971   3.422  0.6285  0.4886 -0.0794
  143MOL   H13920303   6.646   8.277   3.401  0.1492 -0.5199  1.3687
  143MOL   H14020304   6.682   8.136   3.313 -2.0516 -0.1181  0.8421
  143MOL   H14120305   6.637   8.142   3.600 -1.8142  0.2998 -0.6786
  143MOL   H14220306   6.741   8.002   3.537 -1.4437 -0.9052  1.7115
  144MOL     C120307   4.094   2.777   7.204  0.0162 -0.5051 -0.5676
  144MOL     C220308   4.247   2.758   7.222 -0.6429 -0.2106 -0.5577
  144MOL     C320309   4.321   2.881   7.190 -0.0519 -0.6141 -0.5284
  144MOL     N420310   4.373   2.979   7.160  0.2082 -0.3986  0.6516
  144MOL     H520311   4.037   2.686   7.220 -0.6833 -0.1382 -0.9506
  144MOL     H620312   4.078   2.811   7.102 -0.3696 -2.0379 -1.0234
  144MOL     H720313   4.285   2.688   7.147 -1.8230  0.4866 -1.8325
  144MOL     H820314   4.054   2.855   7.270  0.5500 -1.6947  1.2098
  144MOL     C920315   4.279   2.691   7.359  0.0878 -0.3162 -0.1546
  144MOL    C1020316   4.273   2.787   7.482  0.5036 -0.2644  0.0447
  144MOL    C1120317   4.132   2.837   7.510  0.3712 -0.4646  0.3441
  144MOL    N1220318   4.025   2.884   7.527 -0.5638 -0.1098  0.7055
  144MOL    H1320319   4.207   2.609   7.364 -0.8088  0.5062  0.6542
  144MOL    H1420320   4.380   2.649   7.357 -0.3993 -1.5084 -0.4708
  144MOL    H1520321   4.329   2.877   7.457 -0.0196  0.5289  1.7114
  144MOL    C1620322   4.326   2.725   7.615 -0.2663 -0.0840  0.0190
  144MOL    C1720323   4.480   2.716   7.616 -0.7144 -0.1503 -0.9548
  144MOL    C1820324   4.532   2.597   7.549  0.2743 -0.3917  0.5392
  144MOL    N1920325   4.573   2.504   7.493  0.8467 -0.5282 -0.0726
  144MOL    H2020326   4.295   2.797   7.691 -1.3650  0.4430 -0.9139
  144MOL    H2120327   4.275   2.630   7.623 -0.3814  0.0700  1.2978
  144MOL    H2220328   4.510   2.697   7.719  0.6885 -0.1098 -1.3392
  144MOL    C2320329   4.558   2.851   7.600 -0.3707 -0.7225  0.7062
  144MOL    C2420330   4.712   2.840   7.566  0.1067 -0.3758 -0.3058
  144MOL    C2520331   4.784   2.739   7.649  0.2714 -1.2699  0.0945
  144MOL    N2620332   4.843   2.665   7.713  0.3672 -0.1988 -0.1594
  144MOL    H2720333   4.514   2.912   7.522 -0.4432 -0.7909  0.6931
  144MOL    H2820334   4.543   2.918   7.685 -1.3898 -0.5755  0.4152
  144MOL    H2920335   4.749   2.939   7.591  1.0656 -0.8634  0.2209
  144MOL    C3020336   4.741   2.830   7.417  0.0471 -0.7107 -0.3016
  144MOL    C3120337   4.890   2.833   7.387 -0.3914  0.1403  0.3809
  144MOL    C3220338   4.915   2.766   7.259  0.0621  0.1327 -0.3800
  144MOL    N3320339   4.933   2.715   7.155  0.1784  0.0743 -0.3385
  144MOL    H3420340   4.698   2.741   7.372  0.1263 -0.5692 -0.6637
  144MOL    H3520341   4.697   2.921   7.376  1.4136  0.4554  0.7434
  144MOL    H3620342   4.950   2.767   7.450  0.4235  0.8344  0.3407
  144MOL    C3720343   4.956   2.966   7.402 -0.4078 -0.0952  0.9770
  144MOL    C3820344   5.111   2.971   7.388 -0.1118  0.1486  0.3317
  144MOL    C3920345   5.165   2.942   7.257  0.7128 -0.4597  0.0498
  144MOL    N4020346   5.206   2.919   7.155  0.9834 -0.2312 -0.3033
  144MOL    H4120347   4.911   3.045   7.342  0.6314  0.3241  0.7255
  144MOL    H4220348   4.938   3.001   7.504 -0.0534  3.2329 -0.0280
  144MOL    H4320349   5.149   2.881   7.437  0.8771  1.1341  1.3935
  144MOL    C4420350   5.165   3.095   7.454 -0.2734  0.2182 -0.1129
  144MOL    C4520351   5.318   3.095   7.471 -0.5582  0.2240  0.2769
  144MOL    C4620352   5.361   2.968   7.538  0.3364  0.1679 -0.2345
  144MOL    N4720353   5.397   2.867   7.583 -0.3189 -0.0736 -0.0148
  144MOL    H4820354   5.131   3.186   7.404 -0.1451  1.1786  1.4832
  144MOL    H4920355   5.119   3.097   7.553 -1.8212  2.7496 -0.8399
  144MOL    H5020356   5.346   3.185   7.526  0.4216 -0.4023  0.8192
  144MOL    C5120357   5.406   3.117   7.339 -0.4875  0.5517 -0.1721
  144MOL    C5220358   5.551   3.144   7.361  0.0262  0.1943 -0.0345
  144MOL    C5320359   5.637   3.025   7.357 -0.8751 -0.6187  0.2707
  144MOL    N5420360   5.709   2.931   7.352  0.0405 -0.4926 -0.3021
  144MOL    H5520361   5.405   3.026   7.280  1.0892  0.4805 -0.0964
  144MOL    H5620362   5.354   3.195   7.283 -0.1130 -0.2611 -1.6478
  144MOL    H5720363   5.569   3.184   7.461  1.5449 -4.5105  1.7361
  144MOL    C5820364   5.594   3.251   7.263 -0.2381 -0.1840  0.2003
  144MOL    C5920365   5.536   3.389   7.297 -0.2739 -0.5145  0.7970
  144MOL    C6020366   5.593   3.433   7.422  0.2069  0.4074  0.1819
  144MOL    N6120367   5.639   3.467   7.524  0.2876  0.6184  0.2846
  144MOL    H6220368   5.702   3.264   7.268 -0.3107  1.4575 -1.5929
  144MOL    H6320369   5.570   3.222   7.160  1.9284 -0.8709 -0.1396
  144MOL    H6420370   5.428   3.391   7.316 -0.1632  2.9653  1.3197
  144MOL    C6520371   5.571   3.497   7.188  0.1230 -0.2079 -0.5401
  144MOL    C6620372   5.498   3.636   7.204  1.0325  0.4055 -0.1513
  144MOL    C6720373   5.578   3.734   7.136  0.5092 -0.5090 -0.3448
  144MOL    N6820374   5.643   3.813   7.082 -0.2537  0.2745  0.1077
  144MOL    H6920375   5.679   3.505   7.193  0.1559 -1.5038  1.2118
  144MOL    H7020376   5.552   3.466   7.085 -0.2203 -1.3902 -0.1294
  144MOL    H7120377   5.513   3.667   7.307 -1.9253 -1.2249  0.8541
  144MOL    C7220378   5.353   3.632   7.164 -0.4837 -1.0686  0.1876
  144MOL    C7320379   5.260   3.730   7.245 -0.1329  0.3302  0.0859
  144MOL    C7420380   5.302   3.871   7.220  0.4437  0.9008  0.2774
  144MOL    N7520381   5.344   3.977   7.199  0.6488 -0.1316  0.2256
  144MOL    H7620382   5.334   3.649   7.058 -0.7875 -0.8160  0.2789
  144MOL    H7720383   5.321   3.531   7.190  1.3073 -1.5739  0.4466
  144MOL    H7820384   5.280   3.719   7.351  1.0237  0.4942 -0.1153
  144MOL    C7920385   5.107   3.717   7.214  0.6889 -0.3945 -0.7793
  144MOL    C8020386   5.049   3.585   7.271  0.1038  0.1241 -0.1594
  144MOL    C8120387   5.146   3.516   7.360  0.1323  0.7856  0.1733
  144MOL    N8220388   5.227   3.461   7.425 -0.2241  0.2044  0.3741
  144MOL    H8320389   5.051   3.801   7.254  2.0272 -0.3632  1.0690
  144MOL    H8420390   5.097   3.714   7.105 -0.7893  0.1749 -0.6643
  144MOL    H8520391   5.038   3.518   7.186 -1.1821  0.3354 -0.1738
  144MOL    C8620392   4.908   3.598   7.330  0.5546  0.3519  0.0953
  144MOL    C8720393   4.834   3.458   7.343  0.5325  0.0865  0.5093
  144MOL    C8820394   4.881   3.377   7.458 -0.0598  0.0857 -0.0589
  144MOL    N8920395   4.914   3.310   7.546  0.0988  0.0391  0.7349
  144MOL    H9020396   4.914   3.665   7.416 -0.5392  1.6228 -0.7888
  144MOL    H9120397   4.842   3.660   7.268 -0.9740 -1.9842 -0.6787
  144MOL    H9220398   4.835   3.395   7.254 -1.1744  1.3545 -0.4396
  144MOL    C9320399   4.687   3.486   7.360  0.7759 -0.3869 -0.3165
  144MOL    C9420400   4.596   3.369   7.338 -0.4770  0.4558 -0.6480
  144MOL    C9520401   4.614   3.259   7.442  0.3672 -0.3668 -0.2130
  144MOL    N9620402   4.616   3.178   7.523 -0.1406  0.2720 -0.0012
  144MOL    H9720403   4.674   3.516   7.465 -2.2283 -0.1455 -0.7152
  144MOL    H9820404   4.644   3.568   7.302  3.3519  0.2507 -1.3620
  144MOL    H9920405   4.620   3.323   7.242  3.8752  0.7612  0.2185
  144MOL   C10020406   4.447   3.414   7.333 -0.0407  1.1219  0.1167
  144MOL   C10120407   4.360   3.286   7.304  0.5373 -0.4065  0.7319
  144MOL   C10220408   4.322   3.199   7.421  0.0655  0.3028 -0.5846
  144MOL   N10320409   4.295   3.131   7.511 -0.1343  0.1982 -0.2941
  144MOL   H10420410   4.414   3.461   7.426  0.3185  1.0604  0.2753
  144MOL   H10520411   4.444   3.480   7.247  0.5787  0.9359 -0.0452
  144MOL   H10620412   4.406   3.213   7.237 -2.7491 -1.3895 -0.5053
  144MOL   C10720413   4.233   3.341   7.234 -0.0582  0.4772 -0.2926
  144MOL   C10820414   4.247   3.429   7.112  0.3185 -0.5271  0.4984
  144MOL   C10920415   4.365   3.380   7.046 -0.1767  0.4101 -0.0013
  144MOL   N11020416   4.459   3.340   6.993  0.2606 -0.0927  0.3233
  144MOL   H11120417   4.165   3.258   7.213  0.8644 -0.3530 -0.0307
  144MOL   H11220418   4.181   3.404   7.306  0.9127  0.6990  0.2220
  144MOL   H11320419   4.263   3.531   7.146 -0.7822  0.7923 -2.7771
  144MOL   C11420420   4.118   3.430   7.026 -0.0457  0.3792  0.3032
  144MOL   C11520421   4.047   3.570   7.029  0.1691  0.7639 -0.5111
  144MOL   C11620422   4.134   3.688   7.013  1.0263 -0.2770 -0.4337
  144MOL   N11720423   4.196   3.783   6.994  0.9494  0.4732 -0.4175
  144MOL   H11820424   4.138   3.412   6.921  1.3982  2.3987  0.1961
  144MOL   H11920425   4.042   3.360   7.059 -1.5832  1.1330 -1.5685
  144MOL   H12020426   4.014   3.577   7.132 -0.9446  0.5696 -0.8527
  144MOL   C12120427   3.929   3.582   6.928  0.7721 -0.1679 -0.1241
  144MOL   C12220428   3.861   3.716   6.934  0.3618  0.1265 -0.1914
  144MOL   C12320429   3.924   3.809   6.832  0.3048 -0.3579 -0.1324
  144MOL   N12420430   3.972   3.880   6.748 -0.3111  0.0337  0.0398
  144MOL   H12520431   3.967   3.565   6.827  0.7543  1.0316 -0.3430
  144MOL   H12620432   3.858   3.504   6.955  0.9022 -0.0627  0.5253
  144MOL   H12720433   3.879   3.762   7.031 -1.0791 -1.5011  0.8723
  144MOL   C12820434   3.707   3.700   6.897  0.4878 -0.2997 -0.5570
  144MOL   C12920435   3.650   3.840   6.865  0.0581  0.6892  0.4936
  144MOL   C13020436   3.652   3.857   6.716  0.3664  1.0787 -0.1815
  144MOL   N13120437   3.657   3.868   6.601  0.4613  0.5411 -0.3053
  144MOL   H13220438   3.691   3.634   6.812 -1.0678 -2.9749  1.7337
  144MOL   H13320439   3.658   3.637   6.972 -1.0088  0.9223 -0.4882
  144MOL   H13420440   3.712   3.916   6.913 -1.8667  0.9756  2.6229
  144MOL   C13520441   3.507   3.862   6.919 -0.0542 -0.4585  0.4682
  144MOL   C13620442   3.393   3.763   6.884 -1.2240 -0.0379 -0.5391
  144MOL   C13720443   3.408   3.627   6.943 -0.2768  0.0342  0.2613
  144MOL   N13820444   3.408   3.519   6.984  0.4736  0.8171 -0.3204
  144MOL   H13920445   3.515   3.876   7.026 -0.1493  1.5508  0.2250
  144MOL   H14020446   3.467   3.954   6.876  2.6079 -0.2829 -1.7645
  144MOL   H14120447   3.382   3.760   6.776 -0.3148 -0.0434 -0.6357
  144MOL   H14220448   3.299   3.803   6.924 -0.8091  0.5055 -0.0886
  145MOL     C120449   0.613   5.074   0.708  0.3459 -0.2358 -0.0636
  145MOL     C220450   0.689   5.203   0.746 -0.1680 -0.0624  0.3699
  145MOL     C320451   0.606   5.315   0.716 -0.5073  0.4689 -0.2602
  145MOL     N420452   0.532   5.404   0.692  0.4633  0.3442  0.6804
  145MOL     H520453   0.515   5.066   0.756 -0.0848  1.2383 -0.6655
  145MOL     H620454   0.676   4.988   0.729 -0.3249 -1.2131 -1.9346
  145MOL     H720455   0.769   5.222   0.675  0.2069 -0.3892  0.7002
  145MOL     H820456   0.600   5.079   0.600 -1.5710  2.0404  0.2138
  145MOL     C920457   0.736   5.209   0.891 -0.5112  0.2082 -0.1048
  145MOL    C1020458   0.840   5.103   0.923  0.4471  0.0634  0.7369
  145MOL    C1120459   0.945   5.084   0.816  0.4859  0.8473  0.0983
  145MOL    N1220460   1.030   5.059   0.736  0.9743 -0.2565 -0.4777
  145MOL    H1320461   0.777   5.310   0.900  0.2890  0.1280 -2.5646
  145MOL    H1420462   0.651   5.200   0.960 -0.4999  0.1283 -0.1010
  145MOL    H1520463   0.791   5.006   0.933 -1.2315  1.1619  3.6212
  145MOL    C1620464   0.918   5.140   1.051 -0.7590  1.0118 -0.3268
  145MOL    C1720465   0.829   5.154   1.172 -0.4256  0.0708  0.2862
  145MOL    C1820466   0.739   5.040   1.197  0.6844  0.0413  0.2044
  145MOL    N1920467   0.665   4.949   1.217  0.1458  0.4268  0.5817
  145MOL    H2020468   0.992   5.062   1.070  0.2995  2.2448  0.6517
  145MOL    H2120469   0.977   5.228   1.024  0.1061  1.5099  3.0487
  145MOL    H2220470   0.757   5.233   1.151 -1.1864 -0.4843  0.7718
  145MOL    C2320471   0.902   5.189   1.303 -0.0083 -0.7887 -0.2387
  145MOL    C2420472   0.924   5.338   1.317  0.2347 -0.1391  0.2022
  145MOL    C2520473   1.013   5.390   1.212  0.1948  0.1022 -0.2520
  145MOL    N2620474   1.079   5.428   1.127  0.4044 -1.0414 -0.2399
  145MOL    H2720475   0.851   5.143   1.388 -0.6855  0.1386 -0.1446
  145MOL    H2820476   0.997   5.134   1.301 -0.1168 -0.9968  0.1988
  145MOL    H2920477   0.959   5.355   1.419  0.1971  2.4449 -0.1894
  145MOL    C3020478   0.787   5.421   1.314  0.4422  0.1140 -0.1771
  145MOL    C3120479   0.798   5.560   1.379 -0.6543 -0.2755 -0.9202
  145MOL    C3220480   0.692   5.648   1.345  0.8370 -0.3123 -1.0006
  145MOL    N3320481   0.605   5.715   1.316 -0.0172  0.2403  0.4444
  145MOL    H3420482   0.755   5.433   1.211 -0.4735  0.0428  0.0977
  145MOL    H3520483   0.710   5.359   1.361  1.2108  0.1384  1.1503
  145MOL    H3620484   0.893   5.596   1.340 -0.3401 -0.8887 -0.7307
  145MOL    C3720485   0.807   5.540   1.529 -0.4950 -0.0015  0.1766
  145MOL    C3820486   0.896   5.645   1.600  0.3059  0.3693 -0.3088
  145MOL    C3920487   0.873   5.781   1.551 -0.2583 -0.3514 -0.1791
  145MOL    N4020488   0.858   5.890   1.510 -0.0832  0.4323  0.2611
  145MOL    H4120489   0.705   5.541   1.567  0.0844  1.1319  1.7530
  145MOL    H4220490   0.842   5.439   1.551 -2.9214 -0.4673  1.9857
  145MOL    H4320491   0.997   5.632   1.560 -0.1518 -0.6178 -1.1597
  145MOL    C4420492   0.897   5.635   1.755 -0.3878 -0.6485 -0.1508
  145MOL    C4520493   0.961   5.508   1.824  0.3331  0.1776  0.2812
  145MOL    C4620494   0.861   5.404   1.827 -0.1186  0.3336 -0.2922
  145MOL    N4720495   0.789   5.315   1.822 -0.2310 -0.1626  0.4437
  145MOL    H4820496   0.950   5.720   1.797 -1.2275 -0.0126 -0.3665
  145MOL    H4920497   0.800   5.649   1.803 -0.6119 -0.2602 -0.7192
  145MOL    H5020498   0.976   5.535   1.929 -0.5396  0.2193  0.3952
  145MOL    C5120499   1.101   5.454   1.771  0.0938  0.0177 -0.2954
  145MOL    C5220500   1.216   5.552   1.763 -0.1203 -0.4708 -0.2964
  145MOL    C5320501   1.221   5.640   1.881  0.4560 -0.1958 -0.6600
  145MOL    N5420502   1.224   5.707   1.966  0.1169 -0.3756 -0.8192
  145MOL    H5520503   1.120   5.372   1.841 -2.5556  1.8650  2.7546
  145MOL    H5620504   1.079   5.422   1.669 -1.9886  2.7777 -0.7569
  145MOL    H5720505   1.193   5.634   1.695 -2.9483  0.9185  2.2026
  145MOL    C5820506   1.347   5.490   1.714  0.7799 -0.4652  0.5323
  145MOL    C5920507   1.473   5.582   1.722  0.1594  0.2949 -0.0028
  145MOL    C6020508   1.447   5.710   1.657  0.1512 -0.1703 -0.4024
  145MOL    N6120509   1.433   5.813   1.615 -0.0532  0.7306  0.6508
  145MOL    H6220510   1.363   5.406   1.782  0.5024 -1.4776 -0.6149
  145MOL    H6320511   1.320   5.450   1.616 -0.8082 -0.8931  1.1224
  145MOL    H6420512   1.545   5.528   1.661 -1.1082 -0.8517 -0.5118
  145MOL    C6520513   1.544   5.589   1.860 -0.7489  0.3375 -0.2792
  145MOL    C6620514   1.687   5.653   1.856 -0.4062  0.4327  0.0779
  145MOL    C6720515   1.775   5.591   1.751 -0.2621 -0.1997  0.1740
  145MOL    N6820516   1.845   5.537   1.669  0.2039 -0.2742 -0.0189
  145MOL    H6920517   1.478   5.647   1.925  1.5594  0.6051  1.8901
  145MOL    H7020518   1.552   5.488   1.899 -0.0748 -0.7777 -3.2125
  145MOL    H7120519   1.731   5.631   1.954 -1.0283 -0.3548  0.1750
  145MOL    C7220520   1.673   5.807   1.837 -0.5049 -0.1696 -0.3633
  145MOL    C7320521   1.798   5.890   1.890 -0.2209  0.5986 -0.2788
  145MOL    C7420522   1.925   5.855   1.823 -0.4892  0.4396  0.1074
  145MOL    N7520523   2.026   5.834   1.774 -0.2296 -0.0742 -0.6350
  145MOL    H7620524   1.649   5.831   1.733  0.5701 -0.3713 -0.6675
  145MOL    H7720525   1.584   5.833   1.894 -1.1866  0.7172 -1.8081
  145MOL    H7820526   1.806   5.872   1.997 -0.5297  1.9470 -0.0234
  145MOL    C7920527   1.763   6.046   1.899  0.9228  0.5916  0.1745
  145MOL    C8020528   1.886   6.139   1.923 -0.6201  0.0821 -0.5846
  145MOL    C8120529   1.837   6.283   1.930 -0.3424 -0.2856  0.9556
  145MOL    N8220530   1.793   6.390   1.941 -0.1471 -0.0600 -0.3414
  145MOL    H8320531   1.704   6.071   1.811  1.0104 -2.4943 -0.8025
  145MOL    H8420532   1.692   6.071   1.977  0.6220 -1.3048  0.5316
  145MOL    H8520533   1.958   6.133   1.842  0.6293  0.2928  0.4933
  145MOL    C8620534   1.971   6.111   2.053 -0.3247  0.0328 -0.1711
  145MOL    C8720535   2.045   6.232   2.123 -0.2334 -0.2542 -0.0926
  145MOL    C8820536   2.106   6.183   2.242  0.0701 -0.4998  0.5769
  145MOL    N8920537   2.158   6.148   2.339  0.0794 -0.2090  0.0103
  145MOL    H9020538   1.898   6.081   2.128  0.2525 -2.4202 -0.5643
  145MOL    H9120539   2.047   6.034   2.041 -0.6611 -0.4626  0.8196
  145MOL    H9220540   1.963   6.295   2.159  0.0479  0.0656 -0.0077
  145MOL    C9320541   2.143   6.322   2.046 -0.0243 -0.8692 -0.0512
  145MOL    C9420542   2.182   6.460   2.115 -0.3952  0.2144  0.2838
  145MOL    C9520543   2.270   6.429   2.235 -0.5222 -0.2825  0.7036
  145MOL    N9620544   2.340   6.411   2.324 -0.5636 -0.1196  0.1843
  145MOL    H9720545   2.236   6.271   2.021  1.0634  0.4055  1.3128
  145MOL    H9820546   2.100   6.354   1.951  0.0410 -0.2150  0.1375
  145MOL    H9920547   2.087   6.506   2.143 -0.3237  0.0612  0.7932
  145MOL   C10020548   2.259   6.545   2.017 -0.1991  0.6051  0.0925
  145MOL   C10120549   2.278   6.686   2.070  0.2631 -0.0865 -0.1088
  145MOL   C10220550   2.354   6.775   1.977  0.3325 -0.0571 -0.0927
  145MOL   N10320551   2.413   6.846   1.911 -0.0619 -0.2594 -0.7658
  145MOL   H10420552   2.355   6.497   1.996 -0.3425 -0.2373  1.3352
  145MOL   H10520553   2.204   6.556   1.923  2.0690 -0.4013 -1.3821
  145MOL   H10620554   2.350   6.659   2.146  0.0854  0.0428  0.1042
  145MOL   C10720555   2.161   6.761   2.131  0.1900  0.3314  0.4156
  145MOL   C10820556   2.202   6.903   2.176 -0.4025 -0.2544 -0.0335
  145MOL   C10920557   2.082   6.976   2.210 -0.9887  0.2072 -0.4040
  145MOL   N11020558   1.983   7.031   2.246 -0.1701  0.3760  0.0809
  145MOL   H11120559   2.090   6.774   2.049 -2.1474  0.6764  2.4406
  145MOL   H11220560   2.115   6.705   2.212 -0.5487  1.0928  0.5280
  145MOL   H11320561   2.239   6.958   2.089  0.8874 -0.7521  0.1893
  145MOL   C11420562   2.317   6.914   2.279 -0.1930  0.6429 -0.1995
  145MOL   C11520563   2.400   7.048   2.277 -0.4132 -0.2778 -0.3475
  145MOL   C11620564   2.312   7.163   2.298  0.1452 -0.1352 -0.4417
  145MOL   N11720565   2.245   7.255   2.320 -0.0345 -0.2680  0.1602
  145MOL   H11820566   2.273   6.918   2.379 -0.2644  1.9711 -0.2802
  145MOL   H11920567   2.387   6.831   2.269 -0.0318  0.5055  1.8691
  145MOL   H12020568   2.433   7.060   2.174 -2.4524 -0.0510 -0.9892
  145MOL   C12120569   2.525   7.032   2.372 -0.1654  0.0416 -0.2559
  145MOL   C12220570   2.617   7.153   2.399 -0.4453  0.3033  0.1146
  145MOL   C12320571   2.556   7.262   2.474 -0.3599 -0.3161 -0.5944
  145MOL   N12420572   2.500   7.345   2.533 -0.3207  0.1869 -0.5069
  145MOL   H12520573   2.489   6.995   2.467 -1.5053  2.1494  0.0971
  145MOL   H12620574   2.583   6.953   2.324 -1.1651 -0.4497 -0.6629
  145MOL   H12720575   2.646   7.200   2.305 -2.8117  0.1722 -0.7131
  145MOL   C12820576   2.751   7.105   2.451  0.5767  0.0086 -0.3461
  145MOL   C12920577   2.868   7.201   2.477 -0.2606  0.2778 -0.8972
  145MOL   C13020578   2.827   7.289   2.584 -0.0629  0.4244  0.2120
  145MOL   N13120579   2.790   7.365   2.664  0.3136 -0.5635  0.1376
  145MOL   H13220580   2.739   7.035   2.533 -2.0896 -0.2473 -0.9313
  145MOL   H13320581   2.770   7.041   2.365  0.0165 -0.8865  0.1883
  145MOL   H13420582   2.881   7.270   2.393 -2.0412  0.3978 -1.0849
  145MOL   C13520583   2.993   7.116   2.514 -0.3828 -0.3825 -0.1523
  145MOL   C13620584   3.117   7.198   2.516  0.1811 -0.3729 -0.0381
  145MOL   C13720585   3.235   7.113   2.535 -0.1187  0.2732  0.7783
  145MOL   N13820586   3.330   7.043   2.552 -0.0680 -0.4330 -0.6836
  145MOL   H13920587   2.984   7.061   2.607 -2.9371  0.0409 -0.1188
  145MOL   H14020588   3.012   7.046   2.433  0.5245  0.3884 -0.6258
  145MOL   H14120589   3.124   7.253   2.610 -0.3876 -1.7785  0.8465
  145MOL   H14220590   3.112   7.254   2.422 -1.1614 -1.1081 -0.4146
  146MOL     C120591   5.985   7.182   3.287  0.7505  0.2762 -0.0703
  146MOL     C220592   6.047   7.170   3.143  0.2986 -0.2431  0.3025
  146MOL     C320593   5.946   7.140   3.037  0.4051  0.8579  0.0903
  146MOL     N420594   5.865   7.116   2.958  0.3947 -0.3100  0.5241
  146MOL     H520595   5.904   7.255   3.282  1.3412  0.8592 -1.5382
  146MOL     H620596   6.062   7.216   3.357  3.1958  1.4520 -3.2131
  146MOL     H720597   6.122   7.092   3.152 -0.7224 -1.6434 -2.7516
  146MOL     H820598   5.936   7.090   3.320  0.8246  0.5616  0.8515
  146MOL     C920599   6.131   7.298   3.107 -0.0974 -0.6546 -0.1765
  146MOL    C1020600   6.231   7.265   2.996  0.0549 -0.2203 -0.3691
  146MOL    C1120601   6.171   7.252   2.862  0.5320  0.0330 -0.2161
  146MOL    N1220602   6.125   7.242   2.758  0.2357  0.1699  0.0421
  146MOL    H1320603   6.056   7.373   3.081 -0.4879 -0.9884 -0.0216
  146MOL    H1420604   6.176   7.331   3.200 -1.5168 -1.7184  0.8921
  146MOL    H1520605   6.272   7.165   3.005  1.1407  0.1349 -1.1670
  146MOL    C1620606   6.359   7.353   2.994 -0.1658  0.3263 -0.4040
  146MOL    C1720607   6.338   7.494   2.930  0.0378  0.6540  0.4472
  146MOL    C1820608   6.275   7.597   3.016 -0.2770  0.2388 -0.1043
  146MOL    N1920609   6.223   7.674   3.079  0.1652 -0.2989 -0.0405
  146MOL    H2020610   6.393   7.358   3.098  0.2693 -0.3366 -0.5114
  146MOL    H2120611   6.439   7.298   2.945  2.4312  2.4389  1.3126
  146MOL    H2220612   6.292   7.476   2.834  0.9206 -1.2523  0.3479
  146MOL    C2320613   6.477   7.555   2.889  0.8179 -0.2580 -0.5812
  146MOL    C2420614   6.573   7.634   2.989 -0.2394  0.5062 -0.4231
  146MOL    C2520615   6.600   7.550   3.101 -0.3443 -1.4884  0.2060
  146MOL    N2620616   6.623   7.484   3.193 -0.0276  0.5132  0.8704
  146MOL    H2720617   6.530   7.471   2.843 -0.7982 -1.2775 -0.6107
  146MOL    H2820618   6.449   7.623   2.809  0.2509 -0.5229 -0.6058
  146MOL    H2920619   6.529   7.731   3.013 -1.2402  0.1375 -0.7356
  146MOL    C3020620   6.711   7.671   2.925 -0.0419  0.2241 -0.4914
  146MOL    C3120621   6.798   7.786   2.979  0.2707 -0.0939 -0.0350
  146MOL    C3220622   6.738   7.864   3.094  0.2105  0.4133  0.2300
  146MOL    N3320623   6.688   7.917   3.182  0.3825  0.6460 -0.5230
  146MOL    H3420624   6.770   7.580   2.913 -1.1772 -0.3555 -1.7182
  146MOL    H3520625   6.678   7.692   2.824 -0.0258 -0.8466 -0.7296
  146MOL    H3620626   6.795   7.869   2.908 -0.8181 -0.3720 -0.3267
  146MOL    C3720627   6.944   7.745   2.986 -0.7836 -0.3213 -1.3923
  146MOL    C3820628   7.034   7.836   3.073 -0.2669  1.1881 -0.3100
  146MOL    C3920629   7.032   7.974   3.034 -0.1814  0.1279  0.0141
  146MOL    N4020630   7.040   8.088   3.008 -0.3101  0.1128  0.3520
  146MOL    H4120631   6.947   7.642   3.021  0.7247  0.0706 -0.2852
  146MOL    H4220632   6.985   7.742   2.885  0.1460 -0.7247 -1.0090
  146MOL    H4320633   7.138   7.804   3.059 -0.8374  0.0394 -2.0513
  146MOL    C4420634   7.004   7.816   3.226 -0.3282  0.0301  0.0537
  146MOL    C4520635   7.122   7.830   3.318 -0.6387  0.3790 -0.1622
  146MOL    C4620636   7.172   7.968   3.313  0.4705 -0.3742  0.2980
  146MOL    N4720637   7.219   8.079   3.314  0.2433  0.0525 -0.1830
  146MOL    H4820638   6.926   7.885   3.260  0.1464  0.3310  0.5323
  146MOL    H4920639   6.969   7.713   3.235  1.0226 -0.5706 -1.3392
  146MOL    H5020640   7.205   7.772   3.279  0.4893  3.7233 -3.0053
  146MOL    C5120641   7.091   7.796   3.466  0.1863 -0.0669 -0.3299
  146MOL    C5220642   7.205   7.784   3.569 -0.1277 -0.8313  0.1761
  146MOL    C5320643   7.136   7.782   3.699  0.8309 -0.2934 -0.7840
  146MOL    N5420644   7.085   7.772   3.803  0.8854  0.1819 -0.0457
  146MOL    H5520645   7.022   7.870   3.507  0.1068 -0.3873  0.1075
  146MOL    H5620646   7.037   7.702   3.466 -1.1642  0.6887  0.2155
  146MOL    H5720647   7.252   7.883   3.566 -0.4836 -0.6523  0.4769
  146MOL    C5820648   7.312   7.665   3.554 -0.4752 -0.2918 -0.2632
  146MOL    C5920649   7.427   7.685   3.463 -0.2403 -0.5801  0.6882
  146MOL    C6020650   7.512   7.797   3.505  0.4878 -0.8682  0.2901
  146MOL    N6120651   7.572   7.890   3.543 -0.2832 -0.1486  0.3947
  146MOL    H6220652   7.345   7.643   3.655 -2.0579  0.2275  0.3879
  146MOL    H6320653   7.262   7.572   3.526 -1.8953  1.1008 -2.5502
  146MOL    H6420654   7.391   7.730   3.371  1.3564 -0.1955  0.2513
  146MOL    C6520655   7.513   7.566   3.432  0.0987 -0.1322 -0.0642
  146MOL    C6620656   7.591   7.581   3.298  0.2999  0.2835  0.3148
  146MOL    C6720657   7.714   7.657   3.315 -0.3848 -0.2963  0.1112
  146MOL    N6820658   7.807   7.726   3.331 -0.0876 -0.2647 -0.1467
  146MOL    H6920659   7.580   7.533   3.511  1.4373 -1.1718 -1.5984
  146MOL    H7020660   7.444   7.482   3.423  1.4206 -1.3325  0.8859
  146MOL    H7120661   7.541   7.642   3.223  0.0721 -1.0874 -0.6872
  146MOL    C7220662   7.614   7.444   3.236  0.1317  0.3585  0.0289
  146MOL    C7320663   7.489   7.396   3.151  0.3742 -0.5291 -0.4114
  146MOL    C7420664   7.363   7.452   3.186 -0.4613 -0.4544 -0.4576
  146MOL    N7520665   7.261   7.508   3.209 -0.2024  0.6018  0.3640
  146MOL    H7620666   7.712   7.434   3.189  0.4021 -1.6582  0.9493
  146MOL    H7720667   7.634   7.368   3.311  3.8493  1.6606  0.4718
  146MOL    H7820668   7.482   7.288   3.164  2.3783 -0.6231 -0.0587
  146MOL    C7920669   7.538   7.410   3.010  0.1412 -0.5049  0.1638
  146MOL    C8020670   7.431   7.394   2.903 -0.0233 -0.1169 -0.4127
  146MOL    C8120671   7.484   7.420   2.769 -0.0225 -0.4163  0.0489
  146MOL    N8220672   7.532   7.440   2.667  0.2706 -0.0714  0.0355
  146MOL    H8320673   7.592   7.503   2.998  1.7107 -1.3625  0.5056
  146MOL    H8420674   7.609   7.328   2.996  1.3510  1.0304 -3.3656
  146MOL    H8520675   7.351   7.468   2.916  0.2801  0.2832 -0.8065
  146MOL    C8620676   7.373   7.251   2.917  0.1588  0.2082 -0.5840
  146MOL    C8720677   7.267   7.216   2.810 -0.2901  0.0736  0.7148
  146MOL    C8820678   7.321   7.177   2.679  0.0724  0.7008 -0.1438
  146MOL    N8920679   7.364   7.132   2.582  0.0447 -0.7549 -0.4398
  146MOL    H9020680   7.452   7.177   2.914 -1.4228 -1.5395  0.1559
  146MOL    H9120681   7.317   7.250   3.011 -2.1353 -1.6581 -1.9318
  146MOL    H9220682   7.218   7.312   2.790 -0.0509  0.3877  1.6219
  146MOL    C9320683   7.164   7.117   2.858  0.1131 -0.3805 -0.2218
  146MOL    C9420684   7.047   7.081   2.761 -0.0264 -0.4867 -0.0398
  146MOL    C9520685   6.971   6.967   2.823 -0.2827 -0.2197  1.2895
  146MOL    N9620686   6.914   6.877   2.875 -0.2185  0.1713 -0.3003
  146MOL    H9720687   7.213   7.023   2.883  0.3489  0.5101  2.9640
  146MOL    H9820688   7.113   7.143   2.951 -1.4758  0.3310 -1.2815
  146MOL    H9920689   7.077   7.021   2.675 -2.2959 -0.1949 -1.0830
  146MOL   C10020690   6.973   7.202   2.698  0.8307  0.3533  0.1349
  146MOL   C10120691   6.827   7.191   2.674  0.2390 -0.0778 -0.2981
  146MOL   C10220692   6.763   7.321   2.632  0.3213 -0.6758  0.2072
  146MOL   N10320693   6.713   7.419   2.599 -0.7060  0.2451  0.9962
  146MOL   H10420694   6.989   7.291   2.760  1.0226 -0.3273  1.0720
  146MOL   H10520695   7.026   7.222   2.605 -1.1512 -0.6281 -1.2345
  146MOL   H10620696   6.770   7.157   2.761 -0.5356 -0.9045 -1.1178
  146MOL   C10720697   6.796   7.088   2.568 -0.1674  0.2479 -0.2159
  146MOL   C10820698   6.650   7.093   2.512 -0.5788  0.0694  0.2139
  146MOL   C10920699   6.623   7.195   2.409 -0.1681  0.0061  0.4259
  146MOL   N11020700   6.601   7.277   2.329 -0.1569  0.0234 -0.0819
  146MOL   H11120701   6.850   7.121   2.479 -1.5655  2.0864 -0.4123
  146MOL   H11220702   6.829   6.989   2.598  1.4162  0.8711  0.1433
  146MOL   H11320703   6.584   7.129   2.591  0.2225 -2.0284  1.8808
  146MOL   C11420704   6.609   6.957   2.461 -0.1326 -0.0307  0.0417
  146MOL   C11520705   6.600   6.847   2.565 -0.1965  0.4772  0.3325
  146MOL   C11620706   6.529   6.907   2.684 -0.7957 -0.8365 -0.2441
  146MOL   N11720707   6.479   6.948   2.779 -0.0293 -0.2312 -0.2613
  146MOL   H11820708   6.506   6.968   2.425  0.0170 -1.9646 -1.0176
  146MOL   H11920709   6.670   6.941   2.373 -0.3917 -2.4483  0.2668
  146MOL   H12020710   6.695   6.812   2.605  0.1879 -0.4524 -1.3140
  146MOL   C12120711   6.529   6.727   2.499  0.5350 -0.0216 -0.0285
  146MOL   C12220712   6.533   6.598   2.587 -0.0640 -0.4783 -0.3519
  146MOL   C12320713   6.421   6.510   2.553  0.2516 -0.0793 -0.1466
  146MOL   N12420714   6.339   6.439   2.520 -0.3580  0.2684  0.3409
  146MOL   H12520715   6.425   6.749   2.475  0.4471 -1.2215 -0.7843
  146MOL   H12620716   6.571   6.706   2.401 -0.3184  0.1172 -0.4291
  146MOL   H12720717   6.526   6.611   2.695  0.9491  3.3597 -0.6724
  146MOL   C12820718   6.680   6.541   2.578  0.4274 -0.7299  0.0565
  146MOL   C12920719   6.700   6.419   2.667 -0.3127 -0.6563 -0.5043
  146MOL   C13020720   6.670   6.292   2.600 -0.2980  0.2719  0.3662
  146MOL   N13120721   6.644   6.187   2.550 -0.3790 -0.1604 -0.0543
  146MOL   H13220722   6.693   6.508   2.474  0.0997  1.5978 -0.7674
  146MOL   H13320723   6.753   6.621   2.594 -0.2028 -0.2166  0.3810
  146MOL   H13420724   6.633   6.403   2.752  0.4035  1.4761  0.4978
  146MOL   C13520725   6.840   6.432   2.730 -0.5982  0.3788  0.1728
  146MOL   C13620726   6.857   6.533   2.840 -0.3738 -0.0468 -0.3938
  146MOL   C13720727   6.749   6.542   2.942  0.8492 -0.3996  0.0423
  146MOL   N13820728   6.653   6.543   3.007 -0.2110 -0.1454 -0.3900
  146MOL   H13920729   6.861   6.334   2.772  0.3262  1.3724  2.0651
  146MOL   H14020730   6.902   6.443   2.640 -1.2429 -0.9010 -0.4440
  146MOL   H14120731   6.860   6.632   2.795  0.4901  1.4071  2.7469
  146MOL   H14220732   6.959   6.521   2.877 -0.7173 -1.0929  0.2542
  147MOL     C120733   3.888   3.223   7.443  0.3418 -0.2684 -0.1729
  147MOL     C220734   3.761   3.304   7.412 -0.3348 -0.0493  0.0173
  147MOL     C320735   3.800   3.438   7.372 -0.4953 -0.1937  0.0359
  147MOL     N420736   3.822   3.546   7.337  0.0727 -0.0665 -0.0922
  147MOL     H520737   3.866   3.117   7.456 -0.9577  0.0495  0.3827
  147MOL     H620738   3.929   3.261   7.536 -0.8134 -1.9315  1.0621
  147MOL     H720739   3.707   3.315   7.507  1.3169 -1.9806  1.2304
  147MOL     H820740   3.957   3.214   7.359  0.4037  0.7489 -0.2332
  147MOL     C920741   3.673   3.229   7.309 -0.2967  0.2011  0.7513
  147MOL    C1020742   3.715   3.245   7.160 -0.0716  0.5592  0.9016
  147MOL    C1120743   3.840   3.172   7.137  0.1413 -0.5675  0.3628
  147MOL    N1220744   3.936   3.117   7.122 -0.1860 -0.0296  0.4110
  147MOL    H1320745   3.661   3.125   7.339  0.1057 -0.6200 -1.7701
  147MOL    H1420746   3.572   3.267   7.321 -0.7330 -1.4080  2.4174
  147MOL    H1520747   3.740   3.350   7.147  0.1269  0.5724  1.3639
  147MOL    C1620748   3.608   3.212   7.049  0.2437 -0.1967  0.1958
  147MOL    C1720749   3.641   3.266   6.908 -0.0443 -0.2758  0.0257
  147MOL    C1820750   3.774   3.231   6.847 -0.6852  0.4306 -0.0763
  147MOL    N1920751   3.877   3.205   6.798 -0.4416 -0.0074  0.0416
  147MOL    H2020752   3.586   3.105   7.049 -0.2186 -0.1047  0.3887
  147MOL    H2120753   3.515   3.259   7.082 -0.7520 -1.1290 -1.2049
  147MOL    H2220754   3.648   3.375   6.915  0.8343 -0.2229 -1.5792
  147MOL    C2320755   3.521   3.232   6.817 -0.0595  0.2387 -0.5924
  147MOL    C2420756   3.520   3.109   6.721  0.6836  0.1618 -0.0224
  147MOL    C2520757   3.547   2.982   6.800  0.4279 -0.4538  0.7153
  147MOL    N2620758   3.566   2.891   6.871 -0.1126  0.3138  0.0428
  147MOL    H2720759   3.431   3.241   6.877  0.0640  3.0492 -0.7585
  147MOL    H2820760   3.513   3.318   6.750  1.6295  1.8479  1.2231
  147MOL    H2920761   3.607   3.122   6.657  1.8812 -0.1375  1.5043
  147MOL    C3020762   3.392   3.095   6.638 -0.0532  0.3160 -0.8843
  147MOL    C3120763   3.341   3.214   6.561 -0.1972 -0.7467 -0.5007
  147MOL    C3220764   3.450   3.271   6.480  0.2443  0.0316  0.5381
  147MOL    N3320765   3.534   3.320   6.414  0.0791 -0.6613 -0.1480
  147MOL    H3420766   3.406   3.023   6.557  0.5923 -0.5831  0.0119
  147MOL    H3520767   3.310   3.057   6.701  0.3713 -1.4781 -1.3720
  147MOL    H3620768   3.325   3.292   6.635 -2.9175  0.3663 -2.1520
  147MOL    C3720769   3.207   3.190   6.490 -0.5536 -0.2824 -0.1451
  147MOL    C3820770   3.142   3.314   6.403  0.1924 -0.1374 -0.6607
  147MOL    C3920771   3.222   3.358   6.282 -0.2712 -0.1149 -0.2244
  147MOL    N4020772   3.277   3.397   6.183 -0.4479  0.7956 -0.1404
  147MOL    H4120773   3.223   3.106   6.422 -0.4451 -1.0454  0.8148
  147MOL    H4220774   3.135   3.160   6.566  0.0773  1.0879  1.0162
  147MOL    H4320775   3.142   3.399   6.471  2.4442 -0.9670  0.4239
  147MOL    C4420776   2.997   3.271   6.366 -0.1122  0.8162 -0.1000
  147MOL    C4520777   2.978   3.176   6.243 -0.0893 -0.2487  0.1377
  147MOL    C4620778   3.037   3.039   6.249 -0.0089 -0.1749 -0.0570
  147MOL    N4720779   3.080   2.931   6.245 -0.0799  0.0986  0.0388
  147MOL    H4820780   2.938   3.225   6.445 -2.2595 -0.3346 -2.3173
  147MOL    H4920781   2.944   3.363   6.341 -3.2242 -1.2939 -1.6397
  147MOL    H5020782   3.034   3.232   6.168  1.5790  0.8034  2.1098
  147MOL    C5120783   2.832   3.173   6.215  0.0321 -0.1498  0.1149
  147MOL    C5220784   2.787   3.083   6.105 -0.2398 -0.2359  0.1524
  147MOL    C5320785   2.641   3.081   6.102  0.1411 -0.8490 -0.3126
  147MOL    N5420786   2.528   3.087   6.109 -0.1842  0.0802  0.4135
  147MOL    H5520787   2.766   3.144   6.297  0.1352  0.0392  0.2648
  147MOL    H5620788   2.798   3.275   6.193  1.3918  0.4846  0.9019
  147MOL    H5720789   2.815   2.984   6.142  0.8104  0.0822  0.2307
  147MOL    C5820790   2.851   3.112   5.969  0.1873 -0.6780  0.7192
  147MOL    C5920791   2.809   3.021   5.846  0.2652 -0.8350  0.0407
  147MOL    C6020792   2.668   3.036   5.818  0.2243  0.4612 -0.0065
  147MOL    N6120793   2.559   3.043   5.798  0.1169  0.3779 -0.3857
  147MOL    H6220794   2.815   3.211   5.941  0.9929 -0.3398  0.8942
  147MOL    H6320795   2.959   3.122   5.971  0.0493  1.3211 -0.2197
  147MOL    H6420796   2.821   2.915   5.868  2.1382 -0.4708  0.8442
  147MOL    C6520797   2.872   3.062   5.708  0.0352 -0.0627  0.2543
  147MOL    C6620798   3.017   3.018   5.685  0.3449 -0.0599 -0.0598
  147MOL    C6720799   3.033   2.876   5.730 -0.1310  0.4456  0.8011
  147MOL    N6820800   3.040   2.768   5.770  0.5948  0.3951 -0.4671
  147MOL    H6920801   2.804   3.016   5.637 -1.6789  0.9654  1.1792
  147MOL    H7020802   2.872   3.171   5.701 -2.2940  0.0202  1.0698
  147MOL    H7120803   3.077   3.067   5.762 -1.6982  1.4687  0.6058
  147MOL    C7220804   3.082   3.033   5.543  0.4927 -0.8330  0.0249
  147MOL    C7320805   3.235   3.030   5.535 -0.4297  0.1977 -0.5820
  147MOL    C7420806   3.291   2.895   5.576  0.3447  0.2937  0.6210
  147MOL    N7520807   3.343   2.793   5.605  0.0078  0.5664  0.9191
  147MOL    H7620808   3.034   2.965   5.473 -2.5036  1.5337 -0.3152
  147MOL    H7720809   3.045   3.130   5.509 -1.9877 -1.0716  1.8802
  147MOL    H7820810   3.281   3.093   5.612 -0.6510 -1.4444  0.9362
  147MOL    C7920811   3.288   3.085   5.402  0.6170 -0.6787 -0.5587
  147MOL    C8020812   3.307   2.983   5.285 -0.4995 -1.1420 -0.5106
  147MOL    C8120813   3.183   2.919   5.249 -0.0645 -0.0724  0.3775
  147MOL    N8220814   3.084   2.863   5.227  0.2142  0.4290 -0.0855
  147MOL    H8320815   3.231   3.165   5.354  0.7684 -2.1297 -3.2494
  147MOL    H8420816   3.381   3.138   5.424  0.1652 -0.6233  1.3539
  147MOL    H8520817   3.376   2.905   5.318  1.5800  1.2507  0.9679
  147MOL    C8620818   3.376   3.050   5.167 -0.8037  0.6026  0.0654
  147MOL    C8720819   3.356   2.975   5.030 -0.3314 -1.4054 -1.0088
  147MOL    C8820820   3.220   3.001   4.972 -0.1174 -0.3795 -0.1878
  147MOL    N8920821   3.116   3.031   4.926 -0.1095  0.2147  0.8680
  147MOL    H9020822   3.347   3.154   5.154 -0.1869  1.0199  1.8955
  147MOL    H9120823   3.481   3.043   5.196 -1.1465 -1.5402  0.9174
  147MOL    H9220824   3.354   2.867   5.046 -1.2187 -1.1481  0.7075
  147MOL    C9320825   3.456   3.026   4.922 -0.2368  0.2520 -0.1019
  147MOL    C9420826   3.588   2.947   4.926 -0.0228  0.1262 -0.3548
  147MOL    C9520827   3.572   2.810   4.873  0.2074 -0.0640 -0.3769
  147MOL    N9620828   3.557   2.701   4.835 -0.1992 -0.5205  0.3639
  147MOL    H9720829   3.413   3.022   4.822  0.6209 -0.7213 -0.4484
  147MOL    H9820830   3.477   3.132   4.927 -0.8129  0.4967 -2.1162
  147MOL    H9920831   3.604   2.930   5.032  2.3897 -2.2837 -1.0422
  147MOL   C10020832   3.707   3.027   4.878 -0.9156 -0.3406  0.2919
  147MOL   C10120833   3.842   2.973   4.934  0.5564 -0.4853 -0.4727
  147MOL   C10220834   3.884   2.838   4.890 -0.4484 -0.2425 -0.1912
  147MOL   N10320835   3.922   2.733   4.855  0.1400  0.3252  0.1178
  147MOL   H10420836   3.707   3.036   4.770  2.1435 -2.5933  0.0325
  147MOL   H10520837   3.692   3.128   4.916  1.0150 -0.4858  1.5370
  147MOL   H10620838   3.833   2.971   5.043 -0.9778 -1.6781 -0.5997
  147MOL   C10720839   3.963   3.065   4.903 -0.2242 -0.5110  0.0288
  147MOL   C10820840   3.998   3.183   4.991 -0.1827 -0.3931 -0.2386
  147MOL   C10920841   4.016   3.129   5.130 -0.3031 -0.1075 -0.1930
  147MOL   N11020842   4.031   3.085   5.238 -0.4280  0.1046  0.5236
  147MOL   H11120843   4.050   2.999   4.902 -1.6480 -2.4470  0.5050
  147MOL   H11220844   3.953   3.106   4.803 -1.5130 -0.6049  0.1135
  147MOL   H11320845   3.909   3.245   5.000  0.7015  0.6421  1.5312
  147MOL   C11420846   4.111   3.272   4.940  0.3328  0.3564  0.6098
  147MOL   C11520847   4.161   3.386   5.035  0.1932 -0.5189 -0.0010
  147MOL   C11620848   4.052   3.456   5.100  0.1467  0.0711  0.2639
  147MOL   N11720849   3.962   3.511   5.152 -0.6403 -0.5500 -0.7961
  147MOL   H11820850   4.192   3.209   4.905 -1.4002 -2.2212  1.1122
  147MOL   H11920851   4.077   3.318   4.847 -2.4356  0.5652  1.6758
  147MOL   H12020852   4.207   3.460   4.969  0.2779 -1.9837 -1.6307
  147MOL   C12120853   4.271   3.329   5.130  0.3889  0.1184 -0.3161
  147MOL   C12220854   4.340   3.435   5.214 -0.3651  0.2644  0.3328
  147MOL   C12320855   4.423   3.369   5.325 -0.3327 -0.3648  0.2224
  147MOL   N12420856   4.489   3.315   5.413 -0.3147 -0.4607  0.0329
  147MOL   H12520857   4.230   3.250   5.193  0.7964 -0.7075 -1.0757
  147MOL   H12620858   4.350   3.284   5.070  1.8880  0.7900  1.1096
  147MOL   H12720859   4.267   3.488   5.276 -0.8932 -0.8655  0.6936
  147MOL   C12820860   4.419   3.547   5.130 -0.9123 -0.0093  0.7686
  147MOL   C12920861   4.541   3.507   5.043 -0.3259  0.2149 -0.4693
  147MOL   C13020862   4.490   3.437   4.925  0.3319  0.8696 -0.1313
  147MOL   N13120863   4.448   3.385   4.835  0.2444  0.2659  0.5534
  147MOL   H13220864   4.346   3.589   5.061  0.5334  1.3845  0.0631
  147MOL   H13320865   4.461   3.620   5.199 -0.0051  0.6495 -0.4643
  147MOL   H13420866   4.607   3.444   5.103 -3.0890 -2.3660  0.0308
  147MOL   C13520867   4.635   3.627   5.007  0.1412  0.0779 -0.1942
  147MOL   C13620868   4.593   3.711   4.885 -0.6704 -0.3223  0.5009
  147MOL   C13720869   4.463   3.779   4.898  0.4004 -0.1287  0.4456
  147MOL   N13820870   4.362   3.831   4.912  0.2360  0.6934 -0.0461
  147MOL   H13920871   4.635   3.698   5.090  1.6545 -0.8684  0.6290
  147MOL   H14020872   4.739   3.595   4.998  0.1863  0.6090 -1.8783
  147MOL   H14120873   4.585   3.643   4.800  1.7608  0.8451 -0.7260
  147MOL   H14220874   4.662   3.792   4.861 -2.7686  0.9102 -1.5761
  148MOL     C120875   6.817   2.988   8.195  0.4129  0.4877 -0.5406
  148MOL     C220876   6.836   2.839   8.236  0.8762  0.7572 -1.0158
  148MOL     C320877   6.953   2.784   8.176 -0.1307  0.1149 -0.1099
  148MOL     N420878   7.046   2.731   8.138 -0.1548 -0.0466 -0.1152
  148MOL     H520879   6.870   3.013   8.104  2.0620  1.8974  0.7812
  148MOL     H620880   6.848   3.049   8.280 -1.1378 -1.2352  1.3282
  148MOL     H720881   6.756   2.779   8.194  0.4990  1.0927 -0.7732
  148MOL     H820882   6.709   3.004   8.189 -0.1403 -2.9636 -1.0764
  148MOL     C920883   6.839   2.823   0.071 -0.2756  0.6658  0.0529
  148MOL    C1020884   6.712   2.880   0.139 -0.8895 -0.8979 -0.0082
  148MOL    C1120885   6.587   2.835   0.088  0.6153  0.4040 -0.2478
  148MOL    N1220886   6.484   2.807   0.044  0.0002 -0.6004  0.1129
  148MOL    H1320887   6.859   2.718   0.089  2.1982  0.8201 -1.5173
  148MOL    H1420888   6.927   2.876   0.109 -1.1557  1.3404  1.2030
  148MOL    H1520889   6.720   2.989   0.138  0.3442 -0.9298  2.3229
  148MOL    C1620890   6.727   2.841   0.290  0.3808  0.0240  0.2806
  148MOL    C1720891   6.628   2.901   0.389  0.6123 -0.0623  0.3791
  148MOL    C1820892   6.494   2.846   0.382  0.3298 -0.2463 -0.0900
  148MOL    N1920893   6.386   2.798   0.376  0.0012  0.1487  0.5881
  148MOL    H2020894   6.724   2.732   0.302 -3.1766  0.1411  0.9426
  148MOL    H2120895   6.828   2.868   0.319  0.3450  2.2765 -1.5793
  148MOL    H2220896   6.622   3.007   0.362  0.7699  0.1013  0.9715
  148MOL    C2320897   6.680   2.904   0.531  0.1301  0.0628 -0.7524
  148MOL    C2420898   6.670   2.784   0.627  0.0724  0.0934 -0.4330
  148MOL    C2520899   6.746   2.669   0.579  0.1078  0.1501  0.3505
  148MOL    N2620900   6.805   2.579   0.539 -0.2755 -0.2448 -0.1966
  148MOL    H2720901   6.781   2.945   0.528 -0.0003  0.3701 -1.0389
  148MOL    H2820902   6.618   2.983   0.574  0.1291  0.4332 -1.4199
  148MOL    H2920903   6.572   2.737   0.616 -0.3116  0.2404  2.1022
  148MOL    C3020904   6.713   2.828   0.776 -0.0453  0.3585  0.3462
  148MOL    C3120905   6.870   2.837   0.801  0.5016  0.2005  0.4969
  148MOL    C3220906   6.917   2.970   0.747  0.0958  0.7754  0.2752
  148MOL    N3320907   6.951   3.068   0.703  0.4528  0.3297  0.6806
  148MOL    H3420908   6.663   2.922   0.800  0.1091  0.4274  0.3991
  148MOL    H3520909   6.683   2.752   0.848  2.8431 -1.0862  0.1121
  148MOL    H3620910   6.913   2.760   0.737 -0.5067  0.6820 -0.7815
  148MOL    C3720911   6.918   2.829   0.947 -0.1053  0.5565 -0.1016
  148MOL    C3820912   7.064   2.852   0.976  1.0437 -0.7619  0.3877
  148MOL    C3920913   7.143   2.830   0.860 -0.1284  0.4243 -0.1916
  148MOL    N4020914   7.204   2.807   0.767 -0.5596 -1.0218  0.5817
  148MOL    H4120915   6.855   2.896   1.006  0.0471 -0.7984  1.6449
  148MOL    H4220916   6.892   2.729   0.982  0.0349 -0.2951 -2.3549
  148MOL    H4320917   7.096   2.774   1.045 -1.8419  0.1788  2.9226
  148MOL    C4420918   7.091   2.987   1.033 -0.6784 -0.3630  0.8903
  148MOL    C4520919   7.245   3.023   1.046  0.6263 -0.2354  0.0465
  148MOL    C4620920   7.248   3.169   1.082 -0.1050  0.0405 -0.1316
  148MOL    N4720921   7.255   3.278   1.114  0.3699 -0.0076 -0.5078
  148MOL    H4820922   7.050   3.057   0.960  0.1529 -1.8022 -1.0193
  148MOL    H4920923   7.035   3.012   1.123 -0.2445 -1.3339  1.4364
  148MOL    H5020924   7.304   3.012   0.955  3.9362  2.3712  1.7723
  148MOL    C5120925   7.317   2.938   1.160  0.4269  0.0635  0.8445
  148MOL    C5220926   7.473   2.962   1.180  0.0433  0.2757  0.0315
  148MOL    C5320927   7.502   3.091   1.241 -0.4279 -0.1360 -0.1617
  148MOL    N5420928   7.528   3.194   1.291  0.0363  0.2795  0.0608
  148MOL    H5520929   7.264   2.941   1.255  0.2141 -0.2779  0.7407
  148MOL    H5620930   7.312   2.836   1.120  1.1065  0.3389  0.0349
  148MOL    H5720931   7.509   2.970   1.078  1.0446  1.0137  0.4415
  148MOL    C5820932   7.555   2.852   1.256 -0.4600 -0.1758 -0.0133
  148MOL    C5920933   7.562   2.711   1.191  0.1403 -0.2373  0.6753
  148MOL    C6020934   7.612   2.727   1.047 -0.0681 -0.0003 -0.3247
  148MOL    N6120935   7.645   2.734   0.937 -0.3443  0.1784 -0.1016
  148MOL    H6220936   7.658   2.886   1.263 -1.5506  3.3188 -0.0398
  148MOL    H6320937   7.523   2.836   1.359  1.8282  1.9503  1.0547
  148MOL    H6420938   7.456   2.688   1.181  0.1388 -0.3092  0.8636
  148MOL    C6520939   7.630   2.593   1.263 -0.1987 -0.6374  0.6065
  148MOL    C6620940   7.571   2.454   1.230 -0.0633  0.1109  0.2146
  148MOL    C6720941   7.566   2.422   1.084  0.7559  0.1844 -0.7710
  148MOL    N6820942   7.562   2.396   0.973  0.0439 -0.6725  0.8711
  148MOL    H6920943   7.739   2.588   1.253 -0.0470  2.1278  0.6819
  148MOL    H7020944   7.612   2.619   1.367  2.8190 -0.8096  1.2240
  148MOL    H7120945   7.468   2.453   1.266  0.4957 -2.1384  1.8236
  148MOL    C7220946   7.638   2.329   1.298  0.0494 -0.1846  0.1869
  148MOL    C7320947   7.624   2.320   1.450 -0.1418  0.3114 -0.0564
  148MOL    C7420948   7.508   2.404   1.498 -0.0418 -0.2413  0.0985
  148MOL    N7520949   7.418   2.469   1.532 -0.2494 -0.7935  0.0771
  148MOL    H7620950   7.588   2.237   1.265 -0.5386 -0.5704  2.0733
  148MOL    H7720951   7.743   2.317   1.274  0.2056  2.1178 -0.3535
  148MOL    H7820952   7.704   2.380   1.494 -1.7323  0.9709  2.0394
  148MOL    C7920953   7.635   2.178   1.510  0.0568 -0.0083 -0.0646
  148MOL    C8020954   7.656   2.161   1.663 -1.1957  0.6435  0.5516
  148MOL    C8120955   7.544   2.218   1.739  0.5267  0.2918 -0.2759
  148MOL    N8220956   7.451   2.258   1.799  0.3823  0.3080  0.6676
  148MOL    H8320957   7.547   2.121   1.480  1.0568 -2.2848  1.1902
  148MOL    H8420958   7.703   2.115   1.454 -2.0697  0.2384 -3.0418
  148MOL    H8520959   7.746   2.211   1.700  0.6260 -0.8060 -1.6934
  148MOL    C8620960   7.670   2.006   1.702 -0.0698 -1.4336  0.7449
  148MOL    C8720961   7.561   1.912   1.651 -0.3114 -0.6001 -0.0910
  148MOL    C8820962   7.594   1.865   1.511  0.7657 -0.2461 -0.4690
  148MOL    N8920963   7.629   1.834   1.404 -0.5409 -0.1997 -0.1522
  148MOL    H9020964   7.771   1.968   1.684 -0.2563 -1.8318  0.5194
  148MOL    H9120965   7.672   2.008   1.811  2.2063  0.0270  0.7086
  148MOL    H9220966   7.467   1.964   1.634 -1.0669 -2.0270 -0.3576
  148MOL    C9320967   7.531   1.790   1.736  0.6276 -0.1231  0.0369
  148MOL    C9420968   7.406   1.711   1.683 -0.1997 -0.2457 -0.3557
  148MOL    C9520969   7.389   1.569   1.720  0.5588  0.6540 -0.6784
  148MOL    N9620970   7.381   1.462   1.758 -0.4087 -0.1478 -0.2272
  148MOL    H9720971   7.620   1.728   1.733 -0.2487 -1.4447  1.1429
  148MOL    H9820972   7.518   1.820   1.840 -4.9670 -0.5785 -0.4144
  148MOL    H9920973   7.415   1.703   1.574 -1.9276  0.3071 -0.5597
  148MOL   C10020974   7.278   1.789   1.714 -0.4300 -0.1549  0.1028
  148MOL   C10120975   7.153   1.713   1.747  0.0386 -0.3576 -0.1545
  148MOL   C10220976   7.068   1.804   1.826  0.1660 -0.6881  0.1064
  148MOL   N10320977   7.005   1.873   1.890  0.3587 -0.0481 -0.0802
  148MOL   H10420978   7.295   1.843   1.807  0.7316 -2.6424  1.4084
  148MOL   H10520979   7.259   1.865   1.638 -0.6955  0.2281  0.5562
  148MOL   H10620980   7.165   1.627   1.812 -0.1313 -2.2180 -2.5232
  148MOL   C10720981   7.082   1.665   1.623  0.3256  0.1570 -0.3073
  148MOL   C10820982   6.953   1.588   1.638  0.1248  0.2900 -0.2923
  148MOL   C10920983   6.868   1.597   1.519  0.2228  0.2643 -0.0024
  148MOL   N11020984   6.803   1.608   1.424 -0.4510  0.2229 -0.1637
  148MOL   H11120985   7.069   1.744   1.549  0.3162  0.0275 -0.4448
  148MOL   H11220986   7.148   1.596   1.570 -1.5989 -1.5209 -0.6054
  148MOL   H11320987   6.892   1.642   1.710 -2.4765 -0.6760 -1.7082
  148MOL   C11420988   6.962   1.439   1.691  0.0419 -0.0270  0.9870
  148MOL   C11520989   6.906   1.326   1.600  0.7027  0.0365  0.2615
  148MOL   C11620990   6.758   1.323   1.583  0.0013  0.6081  0.4891
  148MOL   N11720991   6.642   1.315   1.572 -0.0469 -0.0722  0.6056
  148MOL   H11820992   7.063   1.421   1.727  1.1284  0.1116 -1.8454
  148MOL   H11920993   6.912   1.438   1.788 -0.1880  0.7927  0.8828
  148MOL   H12020994   6.935   1.242   1.664  3.4420  0.1119 -0.8171
  148MOL   C12120995   6.980   1.309   1.469 -0.3483  0.3893  0.1264
  148MOL   C12220996   7.131   1.286   1.478 -0.6144  0.2824 -0.1232
  148MOL   C12320997   7.161   1.176   1.573  0.1016  0.9125  0.4745
  148MOL   N12420998   7.184   1.093   1.649 -0.2550 -0.3310  0.3727
  148MOL   H12520999   6.932   1.225   1.419 -0.1174  0.2698  0.1038
  148MOL   H12621000   6.967   1.388   1.395  0.2362 -0.3080 -0.7284
  148MOL   H12721001   7.177   1.367   1.534 -2.3848  0.1483  1.5686
  148MOL   C12821002   7.201   1.264   1.342  0.2693  0.4017  0.4117
  148MOL   C12921003   7.339   1.325   1.332 -0.4560 -0.0396  0.7237
  148MOL   C13021004   7.331   1.469   1.337  0.0887  0.7047 -0.1666
  148MOL   N13121005   7.317   1.584   1.349  0.3833 -0.0342 -0.4841
  148MOL   H13221006   7.215   1.157   1.329 -1.2579 -0.1088  2.7522
  148MOL   H13321007   7.139   1.302   1.261  1.2343  0.4946 -0.3014
  148MOL   H13421008   7.378   1.292   1.236 -0.5811 -1.2073  1.0657
  148MOL   C13521009   7.441   1.269   1.438  0.0618  0.2335 -0.2726
  148MOL   C13621010   7.586   1.309   1.426 -0.0086 -0.1368 -0.0530
  148MOL   C13721011   7.627   1.425   1.512 -0.2423  0.4567  0.0413
  148MOL   N13821012   7.660   1.517   1.584  0.3752 -0.0145  0.2524
  148MOL   H13921013   7.395   1.277   1.537 -0.2625  0.9244 -0.4814
  148MOL   H14021014   7.445   1.161   1.421 -0.4569  0.3229 -0.9709
  148MOL   H14121015   7.587   1.340   1.322 -0.7672  1.5622  0.4222
  148MOL   H14221016   7.659   1.229   1.433  0.4244  0.1804 -0.9206
  149MOL     C121017   5.015   5.836   2.914  0.4340 -0.4489 -0.2936
  149MOL     C221018   4.940   5.939   2.996 -0.2104 -0.6972 -0.1416
  149MOL     C321019   5.020   5.974   3.109 -0.2096 -0.3042 -0.9472
  149MOL     N421020   5.081   5.999   3.208  0.2068  0.2863  0.1198
  149MOL     H521021   5.028   5.748   2.978 -1.3079 -1.3554 -1.1359
  149MOL     H621022   5.108   5.866   2.866 -0.0129 -0.2954 -1.0748
  149MOL     H721023   4.840   5.906   3.024 -1.0745  1.8875 -0.0100
  149MOL     H821024   4.952   5.798   2.833 -1.0165 -0.5861  0.8839
  149MOL     C921025   4.920   6.071   2.911  0.5172  0.9698 -0.2975
  149MOL    C1021026   4.803   6.070   2.807 -0.5537 -0.2989 -0.1250
  149MOL    C1121027   4.671   6.016   2.852 -0.4896 -0.1161  0.4093
  149MOL    N1221028   4.569   5.971   2.889 -0.7768 -0.5522 -0.3779
  149MOL    H1321029   4.909   6.159   2.974 -2.4402 -0.0192  0.6497
  149MOL    H1421030   5.014   6.085   2.857  0.3185 -0.6316 -1.0855
  149MOL    H1521031   4.830   6.010   2.721  2.5115  2.1511 -0.9356
  149MOL    C1621032   4.777   6.220   2.756  0.3377  0.0612  0.1898
  149MOL    C1721033   4.651   6.288   2.808  0.1525 -0.3574  0.5364
  149MOL    C1821034   4.649   6.281   2.954  0.1319  0.6241 -0.1533
  149MOL    N1921035   4.635   6.271   3.073 -0.4758 -0.2779  0.2192
  149MOL    H2021036   4.862   6.286   2.769  0.3885  0.3202 -1.3367
  149MOL    H2121037   4.771   6.215   2.647 -2.8325 -0.8632  0.3486
  149MOL    H2221038   4.564   6.237   2.767  1.3397 -2.1919  0.2362
  149MOL    C2321039   4.649   6.437   2.757  0.4977  0.1678  0.0232
  149MOL    C2421040   4.528   6.525   2.791 -1.0181  0.2680  0.5896
  149MOL    C2521041   4.522   6.553   2.937  0.4560  0.2279  0.4423
  149MOL    N2621042   4.526   6.568   3.054  0.3332  0.5381 -0.3193
  149MOL    H2721043   4.739   6.494   2.780  1.3093 -1.1897  0.3184
  149MOL    H2821044   4.654   6.430   2.648  1.4941 -2.0239  0.1783
  149MOL    H2921045   4.439   6.464   2.772 -1.2625 -0.8159  4.6310
  149MOL    C3021046   4.518   6.650   2.710 -0.4651  0.5471 -0.0750
  149MOL    C3121047   4.496   6.641   2.560  0.6946  0.1191 -0.1167
  149MOL    C3221048   4.376   6.549   2.548  0.2078 -0.3806 -0.1168
  149MOL    N3321049   4.288   6.476   2.532 -0.0216  0.1671  0.9201
  149MOL    H3421050   4.435   6.705   2.754  0.0534  1.3074 -0.0474
  149MOL    H3521051   4.616   6.695   2.727  0.0276 -1.4867  2.9069
  149MOL    H3621052   4.569   6.595   2.494  0.0342  0.4337 -1.0965
  149MOL    C3721053   4.463   6.782   2.503 -0.0682  0.1735 -0.5143
  149MOL    C3821054   4.444   6.799   2.354  0.6224  0.3277 -0.0659
  149MOL    C3921055   4.341   6.712   2.291 -0.0279 -0.0465 -0.4093
  149MOL    N4021056   4.263   6.638   2.248 -0.2447 -0.5613 -0.0071
  149MOL    H4121057   4.376   6.829   2.551 -0.3514  0.8930 -1.7244
  149MOL    H4221058   4.551   6.844   2.521  0.3655 -1.0376  1.7125
  149MOL    H4321059   4.538   6.753   2.322  1.4336  0.9745  1.3475
  149MOL    C4421060   4.428   6.948   2.305  0.2680 -0.6932 -0.1266
  149MOL    C4521061   4.408   6.976   2.150  0.2238 -0.2267  0.2170
  149MOL    C4621062   4.391   7.116   2.120  0.1885 -0.8908 -0.8901
  149MOL    N4721063   4.371   7.224   2.085 -0.4768  0.3752 -0.3468
  149MOL    H4821064   4.346   6.988   2.364  0.4185 -0.1112 -0.3029
  149MOL    H4921065   4.513   7.003   2.346 -0.7504  0.3282  0.6449
  149MOL    H5021066   4.314   6.929   2.122  0.3983 -1.2688  1.3425
  149MOL    C5121067   4.530   6.913   2.075  0.6042  0.1213  0.0624
  149MOL    C5221068   4.487   6.862   1.932 -0.5436  0.0538 -0.3275
  149MOL    C5321069   4.390   6.941   1.858  0.3696  0.2872 -0.2733
  149MOL    N5421070   4.307   6.998   1.800  0.0268  0.1210  0.0023
  149MOL    H5521071   4.612   6.985   2.070  1.5289 -0.8804  0.4876
  149MOL    H5621072   4.580   6.834   2.132  1.5021  0.2056 -0.5926
  149MOL    H5721073   4.423   6.776   1.952 -0.5762  0.3903  1.0521
  149MOL    C5821074   4.611   6.827   1.840  0.9896 -0.1454 -0.4691
  149MOL    C5921075   4.721   6.734   1.898  0.1564 -0.6911  0.0405
  149MOL    C6021076   4.662   6.601   1.936 -0.3427  0.1732 -0.4699
  149MOL    N6121077   4.631   6.499   1.972  0.0515 -0.0716  0.4415
  149MOL    H6221078   4.578   6.791   1.742  0.1034  2.1295 -1.0407
  149MOL    H6321079   4.659   6.920   1.807  0.9607 -0.2175 -0.7163
  149MOL    H6421080   4.743   6.783   1.992 -0.9567  1.4772 -0.7911
  149MOL    C6521081   4.855   6.724   1.818  0.2785 -0.3150  0.1772
  149MOL    C6621082   4.849   6.644   1.688  0.3432 -0.7788  0.3742
  149MOL    C6721083   4.761   6.710   1.589 -0.0071 -0.0471  0.0907
  149MOL    N6821084   4.696   6.760   1.508 -0.3344  0.9161 -0.5066
  149MOL    H6921085   4.895   6.825   1.804 -0.8688 -0.0604 -1.3692
  149MOL    H7021086   4.923   6.666   1.881  1.1408  0.4857  0.0076
  149MOL    H7121087   4.802   6.546   1.699  0.5789 -1.1855 -2.1563
  149MOL    C7221088   4.985   6.625   1.618 -0.7383  0.0391  0.0553
  149MOL    C7321089   5.095   6.738   1.610 -0.3939  0.1248 -0.4088
  149MOL    C7421090   5.126   6.796   1.742  0.2687 -0.3199  0.4601
  149MOL    N7521091   5.150   6.839   1.851  0.1850 -0.3471 -0.1436
  149MOL    H7621092   5.024   6.533   1.664 -1.0488 -0.3548 -0.4632
  149MOL    H7721093   4.967   6.600   1.514  1.6814  1.4410 -0.7308
  149MOL    H7821094   5.043   6.820   1.559  2.1778  2.5483  0.7616
  149MOL    C7921095   5.222   6.697   1.536  1.0663  0.2305  0.0263
  149MOL    C8021096   5.307   6.810   1.465  0.9232 -0.2257  0.8279
  149MOL    C8121097   5.224   6.883   1.367 -0.0305 -0.2219  0.0550
  149MOL    N8221098   5.162   6.947   1.291 -0.4644  0.2224 -0.1304
  149MOL    H8321099   5.301   6.641   1.587  1.2691  0.7115  0.2451
  149MOL    H8421100   5.192   6.629   1.457  2.2427 -0.9186  0.5541
  149MOL    H8521101   5.378   6.762   1.397  1.9363 -0.5601  2.1059
  149MOL    C8621102   5.381   6.894   1.572 -0.2676  0.4720 -0.5724
  149MOL    C8721103   5.378   7.049   1.560 -0.5688 -0.0512  0.7985
  149MOL    C8821104   5.475   7.095   1.454 -0.1579 -0.0314 -0.7478
  149MOL    N8921105   5.544   7.132   1.367  0.3555 -0.0700 -0.9990
  149MOL    H9021106   5.364   6.866   1.676 -2.0085  2.5220 -0.2579
  149MOL    H9121107   5.485   6.864   1.573 -0.2132  0.6100 -1.7332
  149MOL    H9221108   5.436   7.080   1.646 -0.3873  1.6398  0.0867
  149MOL    C9321109   5.236   7.123   1.577 -0.5822 -0.0320 -0.1616
  149MOL    C9421110   5.242   7.278   1.576 -0.0045 -0.1917  0.2017
  149MOL    C9521111   5.286   7.334   1.447 -0.1878 -0.8831 -0.5997
  149MOL    N9621112   5.314   7.383   1.347  0.2266  0.1890 -0.4996
  149MOL    H9721113   5.160   7.095   1.505  0.3885 -0.4055 -1.0627
  149MOL    H9821114   5.204   7.084   1.674 -1.6724  0.2215 -0.4160
  149MOL    H9921115   5.317   7.313   1.648  0.4230  3.9093 -2.0788
  149MOL   C10021116   5.107   7.330   1.626  0.0887 -0.4534 -0.0412
  149MOL   C10121117   5.076   7.483   1.591 -0.5018 -0.1600  0.2964
  149MOL   C10221118   4.935   7.505   1.628  0.2474 -0.2210  0.3385
  149MOL   N10321119   4.820   7.514   1.653 -0.1905  0.6732 -0.4189
  149MOL   H10421120   5.028   7.259   1.604 -0.4618  0.1580 -0.0466
  149MOL   H10521121   5.107   7.319   1.734  2.0095 -0.6774 -0.0423
  149MOL   H10621122   5.069   7.501   1.484  1.9264  1.3542  0.3577
  149MOL   C10721123   5.175   7.571   1.667 -0.0481 -0.6858 -0.3464
  149MOL   C10821124   5.140   7.727   1.687 -0.2725 -0.5582  0.1585
  149MOL   C10921125   5.073   7.783   1.570 -0.5111  0.3151 -0.2838
  149MOL   N11021126   5.013   7.823   1.479 -0.1766  0.3970 -0.1165
  149MOL   H11121127   5.188   7.544   1.772 -0.3705  1.1793  0.1979
  149MOL   H11221128   5.273   7.560   1.620  0.1343 -0.2007 -0.0842
  149MOL   H11321129   5.229   7.789   1.697  0.1835 -1.1137 -0.4808
  149MOL   C11421130   5.053   7.727   1.815 -0.3525  0.0497 -0.0367
  149MOL   C11521131   4.987   7.873   1.830 -0.2153 -0.5812 -0.1537
  149MOL   C11621132   4.873   7.878   1.923  0.3642 -0.4062  0.3851
  149MOL   N11721133   4.784   7.881   2.000 -0.0027 -0.3884 -0.2682
  149MOL   H11821134   4.978   7.648   1.817 -0.5118  0.0828 -2.6589
  149MOL   H11921135   5.112   7.704   1.903  0.9037  0.5708 -0.7276
  149MOL   H12021136   4.952   7.911   1.734  0.2311 -1.0821 -0.5166
  149MOL   C12121137   5.095   7.971   1.875 -0.4618 -0.5200  0.6533
  149MOL   C12221138   5.074   8.116   1.824  0.1923  0.2961 -0.2923
  149MOL   C12321139   4.945   8.176   1.863  0.2369  0.3745  0.2770
  149MOL   N12421140   4.838   8.220   1.889 -0.3055 -0.5420 -0.1614
  149MOL   H12521141   5.094   7.957   1.983  0.8016 -2.1770  0.4727
  149MOL   H12621142   5.198   7.943   1.854 -0.4819 -1.6974  2.0529
  149MOL   H12721143   5.085   8.114   1.716  1.4722  0.2674 -0.1665
  149MOL   C12821144   5.189   8.221   1.850 -0.4336  0.1485  0.6758
  149MOL   C12921145   5.337   8.175   1.817 -0.2458  0.1748  1.1373
  149MOL   C13021146   5.348   8.120   1.687 -0.0687 -0.3306  0.2527
  149MOL   N13121147   5.358   8.069   1.583  0.2991  0.5474  0.4936
  149MOL   H13221148   5.160   0.006   1.811 -2.3509 -0.1565  1.2684
  149MOL   H13321149   5.182   8.245   1.957 -3.4273  1.5936  0.2204
  149MOL   H13421150   5.356   8.088   1.879 -3.5909 -0.5229  1.2843
  149MOL   C13521151   5.443   8.276   1.841 -0.4395  0.0441 -0.1311
  149MOL   C13621152   5.590   8.237   1.812 -0.4738  0.0914  0.4132
  149MOL   C13721153   5.648   8.131   1.897  0.1214  0.0967  0.4105
  149MOL   N13821154   5.695   8.045   1.956 -0.0898 -0.7436  0.3412
  149MOL   H13921155   5.429   0.055   1.785 -1.1360 -0.7516 -1.2737
  149MOL   H14021156   5.439   8.301   1.947 -2.6065 -0.9682  0.0448
  149MOL   H14121157   5.659   0.007   1.829  1.7789 -1.2543 -1.9652
  149MOL   H14221158   5.620   8.223   1.708  1.3274 -0.7671  1.0334
  150MOL     C121159   6.959   1.593   2.213  0.0833 -0.1388  0.1860
  150MOL     C221160   6.848   1.605   2.319  0.2958 -0.6126 -0.0357
  150MOL     C321161   6.897   1.623   2.458 -0.1553  0.0767 -1.2461
  150MOL     N421162   6.936   1.634   2.570 -0.4699 -0.1425  0.3057
  150MOL     H521163   7.023   1.680   2.199 -0.0171 -0.4664 -2.6282
  150MOL     H621164   6.929   1.554   2.116  1.5501 -0.1434 -0.2744
  150MOL     H721165   6.793   1.513   2.340 -0.5262  0.1321  1.1208
  150MOL     H821166   7.037   1.523   2.241  1.2354  0.7377 -0.7607
  150MOL     C921167   6.755   1.727   2.297 -0.1957  0.1936  0.3485
  150MOL    C1021168   6.703   1.762   2.165 -0.3332 -0.5029  0.1024
  150MOL    C1121169   6.646   1.648   2.099 -0.7085  0.0353 -0.1383
  150MOL    N1221170   6.595   1.556   2.049 -1.0389 -0.5013  0.7556
  150MOL    H1321171   6.667   1.726   2.361 -1.7588  0.6199 -1.7904
  150MOL    H1421172   6.814   1.811   2.334  1.3976  0.2413 -2.1618
  150MOL    H1521173   6.798   1.777   2.113 -0.0866 -0.5803  0.5220
  150MOL    C1621174   6.608   1.885   2.149  1.2044 -0.1685  1.2377
  150MOL    C1721175   6.660   2.005   2.068 -0.9053  0.3353  0.5292
  150MOL    C1821176   6.558   2.111   2.038  0.2577  0.2524  0.3017
  150MOL    N1921177   6.474   2.188   2.012  0.1464  0.4071 -0.0200
  150MOL    H2021178   6.509   1.854   2.116  1.5802  0.3481 -0.4321
  150MOL    H2121179   6.578   1.917   2.249 -0.4659 -0.6178  0.8855
  150MOL    H2221180   6.686   1.955   1.975 -1.3066  0.1994  0.4880
  150MOL    C2321181   6.795   2.059   2.116  1.2229  0.4300  0.3839
  150MOL    C2421182   6.856   2.175   2.024  0.0026  0.9660 -0.5687
  150MOL    C2521183   6.773   2.294   2.045  0.1859 -0.3451 -0.0144
  150MOL    N2621184   6.715   2.390   2.071  0.5621 -0.5545  0.2283
  150MOL    H2721185   6.789   2.086   2.222 -0.0482 -2.0414  0.9911
  150MOL    H2821186   6.868   1.982   2.140 -1.2742 -1.2642  2.9257
  150MOL    H2921187   6.860   2.145   1.919  0.7591  0.5629 -0.4252
  150MOL    C3021188   7.006   2.191   2.053 -0.3425 -0.1261 -0.7996
  150MOL    C3121189   7.070   2.277   1.939  0.6827  0.2936  0.3564
  150MOL    C3221190   7.177   2.356   2.004 -0.1495 -0.5967  0.0913
  150MOL    N3321191   7.259   2.431   2.047  0.4007  0.2518 -0.1017
  150MOL    H3421192   7.019   2.225   2.155 -4.1494  2.0169 -0.9587
  150MOL    H3521193   7.053   2.093   2.064 -0.1866 -0.1889 -1.9696
  150MOL    H3621194   6.998   2.352   1.907 -0.1498 -2.3257 -4.3647
  150MOL    C3721195   7.120   2.191   1.819 -0.2311 -0.4983  0.1437
  150MOL    C3821196   7.150   2.270   1.691 -0.3749 -0.1691  0.3918
  150MOL    C3921197   7.222   2.178   1.601  0.0306 -0.0023  0.2847
  150MOL    N4021198   7.288   2.110   1.542 -0.7526  0.0774 -0.4422
  150MOL    H4121199   7.207   2.134   1.851  0.3142 -0.4829 -1.2797
  150MOL    H4221200   7.043   2.118   1.793 -2.2013  2.1575 -1.7274
  150MOL    H4321201   7.232   2.340   1.705  0.2514 -1.0016  0.8703
  150MOL    C4421202   7.037   2.348   1.623 -0.4115 -0.2789 -0.5134
  150MOL    C4521203   7.079   2.473   1.559 -0.2309  0.1994 -0.4306
  150MOL    C4621204   6.958   2.510   1.486 -0.5390 -0.6226 -0.0818
  150MOL    N4721205   6.866   2.542   1.424  0.6076  0.0393 -0.6713
  150MOL    H4821206   7.006   2.283   1.541 -0.4022 -0.2535 -0.5371
  150MOL    H4921207   6.950   2.364   1.687  0.6281  0.5074  0.7168
  150MOL    H5021208   7.148   2.463   1.476 -0.4733  1.5113 -0.8053
  150MOL    C5121209   7.129   2.582   1.649  0.2125 -0.7506  0.2291
  150MOL    C5221210   7.158   2.714   1.578  0.0808  0.3059  0.4588
  150MOL    C5321211   7.199   2.689   1.438  0.0114  0.0680 -0.4843
  150MOL    N5421212   7.233   2.670   1.332  0.3046 -0.5190 -0.0483
  150MOL    H5521213   7.069   2.594   1.739  1.5262  1.5227  0.8629
  150MOL    H5621214   7.224   2.554   1.693 -0.1827  0.5428  1.9782
  150MOL    H5721215   7.249   2.741   1.631  0.6625 -1.9958  0.6827
  150MOL    C5821216   7.038   2.821   1.589  0.4618 -0.4675 -0.0318
  150MOL    C5921217   6.985   2.845   1.725 -0.2221  0.2054 -0.1728
  150MOL    C6021218   7.093   2.885   1.813  0.7314  0.4307  0.6122
  150MOL    N6121219   7.176   2.905   1.888 -0.3033 -0.1798  0.1826
  150MOL    H6221220   7.056   2.915   1.537 -0.3651  0.3985  1.2165
  150MOL    H6321221   6.951   2.786   1.533  1.2346  1.4532 -2.5027
  150MOL    H6421222   6.953   2.752   1.772 -0.5757  1.2458  1.6902
  150MOL    C6521223   6.865   2.938   1.733 -0.5733 -0.2646 -0.7477
  150MOL    C6621224   6.768   2.898   1.845  0.0903  0.2630 -0.0092
  150MOL    C6721225   6.662   2.994   1.849 -0.2875 -0.0834 -0.1755
  150MOL    N6821226   6.575   3.073   1.848 -0.5589  0.2643  0.3594
  150MOL    H6921227   6.906   3.037   1.754  1.2888 -0.9572 -1.0244
  150MOL    H7021228   6.808   2.942   1.641 -3.0779 -2.7919  0.6351
  150MOL    H7121229   6.812   2.915   1.943  0.4873  2.4074 -0.5293
  150MOL    C7221230   6.703   2.764   1.829  1.1503 -0.1526  0.0133
  150MOL    C7321231   6.698   2.691   1.964  0.1500 -0.4112  0.2903
  150MOL    C7421232   6.837   2.650   1.999 -0.1032 -0.9957  0.8326
  150MOL    N7521233   6.948   2.621   2.027 -0.0181  0.0465  0.8846
  150MOL    H7621234   6.605   2.768   1.781  1.5581  2.7495 -0.6933
  150MOL    H7721235   6.755   2.709   1.750  0.7157  0.3951 -0.6701
  150MOL    H7821236   6.648   2.596   1.944  2.2428 -2.2325  3.3439
  150MOL    C7921237   6.627   2.769   2.073  0.3111  0.1962  0.2845
  150MOL    C8021238   6.578   2.689   2.194  0.7031  0.3204  0.2581
  150MOL    C8121239   6.581   2.777   2.313 -0.2492 -0.6103  0.5140
  150MOL    N8221240   6.582   2.847   2.406 -0.3827 -0.0767  0.1667
  150MOL    H8321241   6.684   2.855   2.108 -1.5206  2.0360 -1.1045
  150MOL    H8421242   6.532   2.810   2.040 -1.0595 -3.0637 -0.0212
  150MOL    H8521243   6.651   2.613   2.221 -0.9242 -0.8438  1.5029
  150MOL    C8621244   6.441   2.628   2.168  0.7428 -0.8896  0.6757
  150MOL    C8721245   6.384   2.528   2.268 -0.0777 -0.1852 -0.5432
  150MOL    C8821246   6.357   2.575   2.407  0.4390 -1.4645 -0.0270
  150MOL    N8921247   6.335   2.612   2.516  0.4607 -0.9799 -0.7410
  150MOL    H9021248   6.372   2.705   2.135  2.0901 -0.2814 -0.8033
  150MOL    H9121249   6.457   2.572   2.075 -1.9148  0.2197 -0.4881
  150MOL    H9221250   6.461   2.454   2.282  0.4903  0.1758 -1.6454
  150MOL    C9321251   6.254   2.454   2.214  0.6117 -0.2668  0.0265
  150MOL    C9421252   6.122   2.530   2.197  0.6147  0.2079  0.7536
  150MOL    C9521253   6.026   2.437   2.134 -0.8729 -0.3866  0.2243
  150MOL    N9621254   5.950   2.369   2.079  0.5243 -0.7634 -0.4959
  150MOL    H9721255   6.289   2.410   2.120 -1.5998  0.2782 -1.0932
  150MOL    H9821256   6.236   2.365   2.273 -1.2126  0.7965  1.1069
  150MOL    H9921257   6.144   2.604   2.121 -2.4666  1.8882  1.3997
  150MOL   C10021258   6.067   2.607   2.313 -0.7600 -0.1884 -0.7384
  150MOL   C10121259   5.923   2.656   2.302 -0.1195 -0.6693  0.2207
  150MOL   C10221260   5.827   2.558   2.340  0.3584 -0.6232  0.0659
  150MOL   N10321261   5.753   2.483   2.379 -0.0803 -0.2988 -0.6391
  150MOL   H10421262   6.074   2.545   2.402  2.6386  1.4329  0.2322
  150MOL   H10521263   6.135   2.689   2.338  0.2368 -0.9369 -0.9301
  150MOL   H10621264   5.907   2.683   2.198  1.3455  1.8733  0.6003
  150MOL   C10721265   5.889   2.773   2.398 -0.6528 -0.9240  0.2330
  150MOL   C10821266   5.953   2.915   2.380 -0.9095 -0.4044  0.4572
  150MOL   C10921267   5.937   2.969   2.245  0.9754  0.2382  0.1690
  150MOL   N11021268   5.925   3.014   2.135  0.2958 -0.5472  0.4257
  150MOL   H11121269   5.781   2.787   2.391 -0.5358 -0.2374 -0.2374
  150MOL   H11221270   5.905   2.737   2.500  0.7025 -0.6006  0.1509
  150MOL   H11321271   6.060   2.923   2.402 -0.9342  0.1749  0.3731
  150MOL   C11421272   5.883   3.013   2.473 -0.7924 -0.8500  0.9708
  150MOL   C11521273   5.919   2.998   2.624 -0.2998 -0.0204 -0.0001
  150MOL   C11621274   6.067   3.009   2.643  0.1083 -0.7283 -0.6813
  150MOL   N11721275   6.179   3.014   2.658 -0.2082  0.2532  0.2396
  150MOL   H11821276   5.914   3.117   2.463  2.1742 -1.6997  0.8138
  150MOL   H11921277   5.775   3.010   2.456 -0.3037  1.7124 -3.2398
  150MOL   H12021278   5.900   2.892   2.642  0.8421 -0.1536  0.4778
  150MOL   C12121279   5.821   3.078   2.721 -1.1933  0.9927  0.4757
  150MOL   C12221280   5.814   3.027   2.867 -0.4125  0.2685 -0.8051
  150MOL   C12321281   5.945   3.035   2.929  0.3834 -0.1869 -1.2157
  150MOL   N12421282   6.052   3.050   2.970  0.0355 -0.0556  0.6935
  150MOL   H12521283   5.847   3.183   2.734  0.8526  0.4681  0.7194
  150MOL   H12621284   5.718   3.086   2.684 -0.9698  1.7717  0.0040
  150MOL   H12721285   5.791   2.921   2.875  0.9427 -0.0867 -1.4128
  150MOL   C12821286   5.704   3.107   2.949 -0.0859  0.1667  0.0231
  150MOL   C12921287   5.674   3.042   3.080  0.1893 -0.3510 -0.5660
  150MOL   C13021288   5.658   2.897   3.067 -0.2666  0.4886 -0.6175
  150MOL   N13121289   5.646   2.781   3.054 -0.5201 -0.4690  0.2888
  150MOL   H13221290   5.746   3.205   2.966  3.3276 -1.0885 -0.7601
  150MOL   H13321291   5.606   3.119   2.901 -0.7433  1.5211  1.6800
  150MOL   H13421292   5.571   3.068   3.105  0.6786  2.3853 -1.2395
  150MOL   C13521293   5.751   3.089   3.200  0.6863 -0.1312  0.5361
  150MOL   C13621294   5.727   3.232   3.235 -0.4203  0.1527 -0.0366
  150MOL   C13721295   5.588   3.283   3.234 -0.0335  0.3520 -0.1279
  150MOL   N13821296   5.480   3.320   3.238  0.1810  0.1220  0.9177
  150MOL   H13921297   5.722   3.021   3.281 -0.9824 -1.5175 -1.1768
  150MOL   H14021298   5.857   3.075   3.179  0.8323 -0.0582  1.2226
  150MOL   H14121299   5.780   3.291   3.160  0.4877 -0.0973  0.4011
  150MOL   H14221300   5.772   3.264   3.329  0.0776 -0.5768 -0.0182
  151MOL     C121301   5.577   8.250   1.372 -0.2465  0.4377 -0.0480
  151MOL     C221302   5.479   8.184   1.268 -0.0102  0.0160  0.1589
  151MOL     C321303   5.365   8.279   1.230  0.0514 -0.5493  0.9385
  151MOL     N421304   5.274   0.035   1.206 -0.2113  0.3386  0.0374
  151MOL     H521305   5.629   0.014   1.314  1.1450 -1.5297 -1.4697
  151MOL     H621306   5.654   8.175   1.394 -0.7647 -0.0038  0.2625
  151MOL     H721307   5.426   8.100   1.313  0.3431 -0.9578 -1.2035
  151MOL     H821308   5.532   8.291   1.462 -1.4499  1.1788 -0.9724
  151MOL     C921309   5.559   8.116   1.146 -0.5069 -0.6599  0.2804
  151MOL    C1021310   5.692   8.175   1.100  0.0716 -0.5522 -0.1784
  151MOL    C1121311   5.760   8.084   1.005  0.4518  0.6855  1.0090
  151MOL    N1221312   5.814   8.015   0.927  0.2149  0.2011 -0.0158
  151MOL    H1321313   5.580   8.014   1.177  2.5611 -0.6196 -1.4893
  151MOL    H1421314   5.489   8.101   1.064 -0.9749  1.9378  0.1610
  151MOL    H1521315   5.756   8.180   1.188  1.3943 -0.7596 -1.1062
  151MOL    C1621316   5.674   0.009   1.049  1.0800  0.0179  0.3885
  151MOL    C1721317   5.802   0.082   1.012 -0.4191  0.3723  0.1729
  151MOL    C1821318   5.771   0.185   0.912  0.6454 -0.3560  0.3604
  151MOL    N1921319   5.745   0.266   0.834 -0.0139  0.3316  0.2438
  151MOL    H2021320   5.617   0.002   0.957  0.2278 -1.9927  1.0290
  151MOL    H2121321   5.603   0.068   1.107  0.8068  1.3158 -1.2533
  151MOL    H2221322   5.856   0.013   0.948 -0.9387 -2.0447  2.2277
  151MOL    C2321323   5.887   0.123   1.134 -0.4242  0.4376  0.2979
  151MOL    C2421324   5.862   0.263   1.189  0.1559  0.2040 -0.4290
  151MOL    C2521325   5.723   0.280   1.213  0.4651 -0.5241  0.5071
  151MOL    N2621326   5.611   0.294   1.240  0.6837  1.0695 -0.2880
  151MOL    H2721327   5.888   0.040   1.204 -1.5499  0.5023  0.4027
  151MOL    H2821328   5.986   0.126   1.088 -0.4934 -0.6148  0.0664
  151MOL    H2921329   5.888   0.330   1.108  1.2351  1.2431  0.7499
  151MOL    C3021330   5.949   0.302   1.315 -0.4939 -0.2918 -0.5950
  151MOL    C3121331   5.882   0.314   1.452 -0.3098 -0.1038  0.0711
  151MOL    C3221332   5.825   0.186   1.496  1.1014  0.2088  0.4706
  151MOL    N3321333   5.778   0.089   1.536  0.0956  0.2934  0.7445
  151MOL    H3421334   6.025   0.225   1.334 -1.1277 -0.0244  3.5061
  151MOL    H3521335   6.001   0.394   1.289 -0.6042 -0.1698 -0.3869
  151MOL    H3621336   5.798   0.379   1.430  1.6979  2.1659 -1.0043
  151MOL    C3721337   5.968   0.379   1.559  0.4483 -0.1389 -0.3096
  151MOL    C3821338   5.896   0.438   1.677  0.4496 -0.0222 -0.7310
  151MOL    C3921339   5.777   0.364   1.747 -0.2792  0.1441  0.1687
  151MOL    N4021340   5.697   0.302   1.804  0.1984 -0.3352  0.0109
  151MOL    H4121341   6.039   0.308   1.601  1.3682  1.4760  0.9158
  151MOL    H4221342   6.030   0.455   1.510  0.9800 -0.4700 -0.1551
  151MOL    H4321343   5.852   0.525   1.628  0.5564 -0.8792 -2.3978
  151MOL    C4421344   5.989   0.497   1.785 -0.5397 -0.6391  0.0885
  151MOL    C4521345   6.027   0.396   1.900 -0.4409  0.4450  0.1480
  151MOL    C4621346   6.168   0.409   1.931 -0.1963 -0.2194 -1.3221
  151MOL    N4721347   6.281   0.419   1.953  0.1214 -0.6952  0.7772
  151MOL    H4821348   6.085   0.531   1.745 -1.7512  0.6118 -1.8486
  151MOL    H4921349   5.941   0.590   1.817 -1.3412 -0.2588 -2.0943
  151MOL    H5021350   6.008   0.290   1.883 -0.1657  0.4359 -0.1020
  151MOL    C5121351   5.938   0.430   2.022 -1.3268  0.3721  0.1500
  151MOL    C5221352   5.950   0.339   2.139 -0.4296  0.0627 -0.3114
  151MOL    C5321353   6.031   0.404   2.248  0.4027 -0.2863 -0.0587
  151MOL    N5421354   6.092   0.459   2.330  0.5690  0.2136 -0.5130
  151MOL    H5521355   5.963   0.531   2.054 -1.3975 -0.3371  2.5565
  151MOL    H5621356   5.837   0.447   1.983 -1.2203  2.0839  0.5798
  151MOL    H5721357   6.015   0.255   2.114 -2.3368 -0.7453 -2.7449
  151MOL    C5821358   5.824   0.274   2.193  0.4226  0.2240  0.1799
  151MOL    C5921359   5.732   0.358   2.288  0.3615  0.1626  1.2950
  151MOL    C6021360   5.743   0.505   2.270  0.4314 -0.2509  0.6571
  151MOL    N6121361   5.753   0.619   2.268 -0.0586 -0.6509 -0.0524
  151MOL    H6221362   5.763   0.233   2.113 -0.0458 -0.2472  0.7723
  151MOL    H6321363   5.849   0.179   2.240 -0.0375 -0.9457 -1.8742
  151MOL    H6421364   5.758   0.329   2.389 -0.7040  0.3129  1.6155
  151MOL    C6521365   5.583   0.322   2.287 -0.1003 -0.0846 -0.0781
  151MOL    C6621366   5.538   0.171   2.282 -0.2536 -0.6396  1.1712
  151MOL    C6721367   5.620   0.086   2.379 -0.5892  0.1660 -0.7178
  151MOL    N6821368   5.688   0.026   2.448 -0.3822  0.5126  0.2085
  151MOL    H6921369   5.531   0.372   2.368  1.1004 -0.9462  1.2333
  151MOL    H7021370   5.550   0.365   2.192 -1.1373 -1.8688 -0.5521
  151MOL    H7121371   5.560   0.138   2.181  1.3715  0.0044  1.3053
  151MOL    C7221372   5.386   0.137   2.314 -0.4011  0.7539  0.6278
  151MOL    C7321373   5.291   0.238   2.249 -0.2824 -0.4773 -0.4478
  151MOL    C7421374   5.302   0.234   2.108 -0.7727  0.9975  0.0689
  151MOL    N7521375   5.315   0.232   1.994  0.0413 -0.2210  0.5282
  151MOL    H7621376   5.363   0.037   2.277 -1.1558  1.3811 -0.6281
  151MOL    H7721377   5.381   0.145   2.422 -2.8102  1.3472  0.4971
  151MOL    H7821378   5.323   0.339   2.275 -1.4004 -0.0985 -0.5352
  151MOL    C7921379   5.156   0.206   2.307  0.2874  0.7171 -0.2149
  151MOL    C8021380   5.055   0.326   2.292 -0.1117  0.6461 -0.3557
  151MOL    C8121381   5.019   0.360   2.156  0.5617  0.7222 -1.1106
  151MOL    N8221382   4.997   0.381   2.047  0.0578 -0.1893 -0.1801
  151MOL    H8321383   5.111   0.117   2.262  0.6695  0.4103  0.0097
  151MOL    H8421384   5.165   0.164   2.407 -0.5492  0.3692 -0.2791
  151MOL    H8521385   5.109   0.412   2.331  1.8338 -0.5674 -0.2755
  151MOL    C8621386   4.933   0.298   2.377 -0.6537 -0.0490 -0.5131
  151MOL    C8721387   4.824   0.408   2.385 -0.4002  0.1420  0.2945
  151MOL    C8821388   4.709   0.362   2.469  0.4470 -0.5494 -0.6454
  151MOL    N8921389   4.612   0.324   2.530  0.2009 -0.1385  0.2340
  151MOL    H9021390   4.881   0.207   2.348 -0.5179  0.0234 -0.9885
  151MOL    H9121391   4.967   0.275   2.478 -1.7666  2.1818  0.4095
  151MOL    H9221392   4.789   0.416   2.282 -0.2634 -0.1169  0.2278
  151MOL    C9321393   4.881   0.536   2.435 -0.1232  0.4227 -0.7441
  151MOL    C9421394   4.796   0.661   2.447  1.0225 -0.3085  0.1584
  151MOL    C9521395   4.868   0.774   2.509  0.3330 -0.5931  0.3752
  151MOL    N9621396   4.933   0.859   2.555 -1.1170 -0.5378 -0.0815
  151MOL    H9721397   4.927   0.519   2.533 -0.1648  2.2850 -0.3818
  151MOL    H9821398   4.953   0.572   2.363 -0.0502 -2.4922 -2.2261
  151MOL    H9921399   4.720   0.644   2.523 -0.2708  0.9349 -0.8370
  151MOL   C10021400   4.719   0.704   2.325  0.1560 -0.0389  0.0832
  151MOL   C10121401   4.571   0.657   2.303  0.1136 -0.3917 -0.5520
  151MOL   C10221402   4.483   0.727   2.395 -0.5215  0.1402  0.9613
  151MOL   N10321403   4.410   0.778   2.469  0.0174  0.5778  0.3030
  151MOL   H10421404   4.727   0.810   2.300  0.1162 -0.8074 -3.5922
  151MOL   H10521405   4.768   0.662   2.237 -0.0074  1.5708 -0.7979
  151MOL   H10621406   4.563   0.560   2.353 -0.6123  0.6144  1.2993
  151MOL   C10721407   4.524   0.660   2.151  0.0258  0.6752 -0.3695
  151MOL   C10821408   4.376   0.628   2.127  0.1484  0.0227  0.4234
  151MOL   C10921409   4.292   0.741   2.159  0.1617 -0.3604 -0.2737
  151MOL   N11021410   4.229   0.835   2.186  0.3217 -0.0828  0.1294
  151MOL   H11121411   4.566   0.736   2.085  0.8954  0.3003 -0.2523
  151MOL   H11221412   4.585   0.577   2.113 -1.0764  0.4668 -1.7268
  151MOL   H11321413   4.352   0.554   2.204  5.1451 -1.1145  1.0936
  151MOL   C11421414   4.347   0.567   1.986  0.3961  0.5512  0.2060
  151MOL   C11521415   4.235   0.456   1.990  0.1172 -0.0951  0.6504
  151MOL   C11621416   4.289   0.347   2.064 -0.2911  0.5789  0.0056
  151MOL   N11721417   4.335   0.253   2.113 -0.2633  0.7471 -0.0821
  151MOL   H11821418   4.325   0.640   1.908 -1.1521 -0.2706 -0.1441
  151MOL   H11921419   4.443   0.535   1.945 -0.3952  0.8396 -1.9037
  151MOL   H12021420   4.235   0.428   1.885 -1.1595  1.0949  0.3107
  151MOL   C12121421   4.093   0.493   2.042  0.3773  0.2709  0.6349
  151MOL   C12221422   3.987   0.383   2.011 -0.3235 -0.2550 -0.2213
  151MOL   C12321423   4.008   0.351   1.870  0.5506  0.0590 -0.1604
  151MOL   N12421424   4.022   0.324   1.759  0.3377  0.1764 -0.0946
  151MOL   H12521425   4.086   0.529   2.144 -1.3329  0.3352  0.5182
  151MOL   H12621426   4.069   0.580   1.980 -1.5396 -1.1758 -0.7149
  151MOL   H12721427   3.891   0.434   2.022  0.2780  0.9173 -0.3616
  151MOL   C12821428   3.989   0.262   2.106 -0.1754  0.3495 -0.5906
  151MOL   C12921429   3.939   0.296   2.244 -0.1713  0.1848  0.6907
  151MOL   C13021430   3.840   0.399   2.263 -0.4254 -0.7661  0.3476
  151MOL   N13121431   3.760   0.482   2.274 -0.3375 -0.1662  0.2660
  151MOL   H13221432   3.903   0.211   2.063 -1.5100  0.9614  1.2859
  151MOL   H13321433   4.072   0.192   2.110 -0.6696 -0.2031 -0.0973
  151MOL   H13421434   4.028   0.348   2.280  1.9027 -1.8014 -1.4413
  151MOL   C13521435   3.915   0.176   2.335 -0.0512 -0.3157  0.1714
  151MOL   C13621436   3.853   0.193   2.474  0.0250 -0.5231  0.6818
  151MOL   C13721437   3.942   0.246   2.582  0.4411  0.5336  0.5020
  151MOL   N13821438   4.014   0.290   2.661  0.0889 -0.0367  0.4395
  151MOL   H13921439   3.847   0.113   2.278 -1.2854  0.7832  0.3991
  151MOL   H14021440   4.014   0.132   2.342  0.7321  1.2407 -0.8770
  151MOL   H14121441   3.792   0.108   2.505 -3.4504  0.5110 -2.8525
  151MOL   H14221442   3.777   0.271   2.464  0.5530  0.0896  1.4462
  152MOL     C121443   7.797   7.101   3.152 -0.4732  0.3284  0.7645
  152MOL     C221444   7.705   7.066   3.269  0.2240 -0.5552  0.3185
  152MOL     C321445   7.576   7.038   3.212  0.4455  0.2815 -0.6299
  152MOL     N421446   7.470   7.016   3.160  0.4540  0.0442 -0.5559
  152MOL     H521447   7.764   7.183   3.087  0.3671  1.1259  1.3271
  152MOL     H621448   7.812   7.016   3.086  0.8728  1.9118 -1.0291
  152MOL     H721449   7.692   7.155   3.332  1.0514  0.4084 -0.8357
  152MOL     H821450   7.899   7.125   3.181  0.3056  0.4739 -1.9208
  152MOL     C921451   7.764   6.942   3.340 -0.1282 -0.3778 -0.2991
  152MOL    C1021452   7.695   6.905   3.468  0.3530  0.2576  0.4667
  152MOL    C1121453   7.548   6.888   3.454 -0.3005  0.3268  0.4025
  152MOL    N1221454   7.431   6.868   3.448 -0.8022 -0.5496  0.1502
  152MOL    H1321455   7.759   6.859   3.269 -0.6443 -0.6393  0.0413
  152MOL    H1421456   7.869   6.962   3.361 -0.0125 -2.7801  1.6635
  152MOL    H1521457   7.713   6.991   3.533  0.2257 -0.8319  1.9847
  152MOL    C1621458   7.761   6.784   3.531 -0.0241  0.4297  0.0025
  152MOL    C1721459   7.759   6.796   3.684 -0.2670 -0.0232 -0.6387
  152MOL    C1821460   7.744   6.663   3.755  0.1283  0.3901 -0.0652
  152MOL    N1921461   7.736   6.558   3.801  0.5156  0.2272  0.6487
  152MOL    H2021462   7.720   6.691   3.490  0.2414  0.5721 -0.5835
  152MOL    H2121463   7.865   6.772   3.500  0.0272  1.5483 -0.2627
  152MOL    H2221464   7.667   6.844   3.715  0.2759  0.5750  0.0691
  152MOL    C2321465   7.870   6.896   3.742 -0.0138 -1.0579 -0.0892
  152MOL    C2421466   7.877   6.928   3.901 -0.0944 -0.4147  0.0846
  152MOL    C2521467   7.926   6.816   3.980  0.3409 -0.3205  1.3052
  152MOL    N2621468   7.960   6.729   4.050  0.3995 -0.6726 -0.5338
  152MOL    H2721469   7.969   6.869   3.705 -0.3346 -0.7109 -1.1862
  152MOL    H2821470   7.849   6.991   3.693 -0.3717 -0.3709  1.3488
  152MOL    H2921471   7.776   6.948   3.937 -0.6682 -1.4848 -0.8902
  152MOL    C3021472   7.951   7.056   3.928 -0.0610  0.5416  0.2106
  152MOL    C3121473   8.108   7.054   3.918 -0.2529 -0.5848  1.1829
  152MOL    C3221474   8.164   7.170   3.840 -0.3791  0.3862 -0.9208
  152MOL    N3321475   8.202   7.262   3.775  0.6695 -0.2112 -0.3376
  152MOL    H3421476   7.915   7.137   3.864  2.1476  1.4672  0.0989
  152MOL    H3521477   7.923   7.087   4.029 -2.1593 -2.4096  0.5737
  152MOL    H3621478   8.118   6.985   3.834 -2.7715  0.2390  0.1605
  152MOL    C3721479   8.183   7.018   4.043  0.6580  0.2231  0.1879
  152MOL    C3821480   8.223   7.128   4.150 -0.5976 -0.3626 -0.4428
  152MOL    C3921481   8.113   7.226   4.161  0.3785  0.5439  0.2428
  152MOL    N4021482   8.026   7.301   4.177 -0.0183  0.3672  0.1895
  152MOL    H4121483   8.124   6.940   4.091 -0.6634 -0.5242 -2.5268
  152MOL    H4221484   8.278   6.969   4.019 -0.0847 -1.5615  0.7563
  152MOL    H4321485   8.297   7.188   4.097 -0.5193 -0.9955 -1.0529
  152MOL    C4421486   8.277   7.067   4.286  0.1368  0.4389  0.4750
  152MOL    C4521487   8.183   7.038   4.401  0.2021  0.4483  0.0797
  152MOL    C4621488   8.118   7.154   4.465 -0.5804 -0.0966  0.5344
  152MOL    N4721489   8.063   7.249   4.504 -0.0787 -0.2968  0.0393
  152MOL    H4821490   0.026   6.980   4.263  0.3456  0.7865 -0.2988
  152MOL    H4921491   0.031   7.144   4.325 -1.0759  1.3938  0.6937
  152MOL    H5021492   8.245   7.001   4.483  2.3503  1.8236 -0.8900
  152MOL    C5121493   8.059   6.946   4.362 -0.1896  0.3539  0.4672
  152MOL    C5221494   7.956   6.903   4.461  0.1326 -0.2277  0.3458
  152MOL    C5321495   8.014   6.849   4.582 -0.1538  0.2260 -0.3762
  152MOL    N5421496   8.062   6.806   4.681  0.2381  0.3254 -0.3602
  152MOL    H5521497   8.014   6.987   4.272 -1.4501  3.2533  2.3532
  152MOL    H5621498   8.106   6.854   4.327 -4.6142 -2.1877  0.8634
  152MOL    H5721499   7.914   6.813   4.416 -0.9911  0.5581 -0.2123
  152MOL    C5821500   7.841   7.001   4.483 -0.2701 -0.1926  0.2162
  152MOL    C5921501   7.698   6.941   4.477  0.0670  0.0409  0.7472
  152MOL    C6021502   7.669   6.860   4.347 -0.5295  0.3128 -0.4377
  152MOL    N6121503   7.646   6.799   4.251  0.3747  0.3522  0.3358
  152MOL    H6221504   7.852   7.063   4.572 -3.0033 -0.5034  0.8464
  152MOL    H6321505   7.841   7.069   4.398 -1.4254  0.2439  0.5542
  152MOL    H6421506   7.625   7.021   4.477  0.1021  0.0721  0.5593
  152MOL    C6521507   7.677   6.849   4.602  0.5832 -0.3129 -0.4529
  152MOL    C6621508   7.558   6.878   4.687 -0.1879 -0.2440  0.4695
  152MOL    C6721509   7.440   6.878   4.607  1.0088  0.4191 -0.7432
  152MOL    N6821510   7.350   6.886   4.539  0.2672  0.7507  0.4766
  152MOL    H6921511   7.664   6.746   4.568  0.4358 -0.3070 -0.4166
  152MOL    H7021512   7.760   6.855   4.672 -0.6666  0.3072  0.9978
  152MOL    H7121513   7.573   6.981   4.720  0.9504 -0.9168  2.1153
  152MOL    C7221514   7.536   6.784   4.804  0.6039  0.1385 -0.3579
  152MOL    C7321515   7.655   6.757   4.898  0.6207 -0.0873 -0.0881
  152MOL    C7421516   7.728   6.876   4.933  0.3025 -0.1218  0.3585
  152MOL    N7521517   7.789   6.973   4.953  0.7769  0.5622 -0.0543
  152MOL    H7621518   7.464   6.836   4.867 -0.5924 -0.7143 -0.9979
  152MOL    H7721519   7.494   6.687   4.776  0.3785  0.5217 -1.3325
  152MOL    H7821520   7.729   6.707   4.835  0.0212  0.6888 -1.4341
  152MOL    C7921521   7.612   6.671   5.021  0.0894  0.9814 -0.3329
  152MOL    C8021522   7.718   6.574   5.081 -0.0294  0.2345 -0.3392
  152MOL    C8121523   7.822   6.536   4.989 -0.1364  0.0291  0.7085
  152MOL    N8221524   7.904   6.504   4.910 -0.5011 -0.5287 -0.6922
  152MOL    H8321525   7.566   6.730   5.100 -0.9762  0.3986 -0.5119
  152MOL    H8421526   7.533   6.607   4.980  0.7079 -1.3787  1.9851
  152MOL    H8521527   7.676   6.478   5.111  1.6675 -0.8621 -1.3490
  152MOL    C8621528   7.784   6.642   5.202 -0.0548 -0.0517  0.0503
  152MOL    C8721529   7.872   6.547   5.284 -0.5525  0.1760  0.3093
  152MOL    C8821530   7.949   6.629   5.388  0.0595  0.5719 -0.5073
  152MOL    N8921531   8.005   6.690   5.468 -0.3819  0.0829 -0.0499
  152MOL    H9021532   7.841   6.728   5.168  0.6425 -0.8842 -0.8912
  152MOL    H9121533   7.701   6.680   5.262 -0.9348 -1.2374 -0.3913
  152MOL    H9221534   7.947   6.497   5.222  0.9695 -0.4651  2.6074
  152MOL    C9321535   7.801   6.447   5.362  0.2671  0.4253 -0.0099
  152MOL    C9421536   7.892   6.333   5.425 -0.4786  0.0140 -0.7490
  152MOL    C9521537   7.843   6.267   5.551  0.9158  0.1456  0.4130
  152MOL    N9621538   7.815   6.212   5.649 -0.1677 -0.1397  0.1709
  152MOL    H9721539   7.745   6.497   5.440 -0.8428 -0.0341 -0.5043
  152MOL    H9821540   7.740   6.400   5.285  0.2680  1.6152 -0.7453
  152MOL    H9921541   7.984   6.382   5.459 -0.8321 -1.0419  1.8057
  152MOL   C10021542   7.931   6.224   5.323  0.0435 -0.3605  0.2103
  152MOL   C10121543   7.822   6.107   5.301  0.0430  0.0539 -0.3842
  152MOL   C10221544   7.728   6.159   5.200  0.5832 -0.4268 -0.0370
  152MOL   N10321545   7.654   6.211   5.124 -0.5042  0.2328  0.1182
  152MOL   H10421546   7.945   6.271   5.226  0.0998  2.8106  1.7026
  152MOL   H10521547   8.030   6.191   5.357  0.6284  0.6140 -0.5294
  152MOL   H10621548   7.762   6.083   5.388  1.9755  1.2991  1.3373
  152MOL   C10721549   7.884   5.977   5.245 -0.4854  0.2453 -0.5285
  152MOL   C10821550   7.981   5.988   5.127 -1.0340  0.2995 -0.3177
  152MOL   C10921551   8.103   6.066   5.147  0.3412 -0.7006  0.3668
  152MOL   N11021552   8.202   6.128   5.163  0.2775 -0.0498 -0.7857
  152MOL   H11121553   7.926   5.919   5.327 -0.4720  0.3813 -0.4388
  152MOL   H11221554   7.809   5.905   5.213  0.0830 -0.9247  0.7585
  152MOL   H11321555   7.928   6.026   5.040  1.4826  1.4449 -1.4122
  152MOL   C11421556   8.024   5.842   5.082  0.8986 -0.3104 -0.1630
  152MOL   C11521557   8.135   5.835   4.979 -0.2558 -0.2296 -0.3458
  152MOL   C11621558   8.263   5.800   5.038  0.5427  0.1126 -0.8964
  152MOL   N11721559   0.051   5.774   5.085  0.1574 -0.2705 -0.5915
  152MOL   H11821560   8.063   5.802   5.176  1.4696 -0.2363 -0.3643
  152MOL   H11921561   7.931   5.792   5.056  1.0778  0.1053 -1.6638
  152MOL   H12021562   8.157   5.937   4.944  1.3457  0.2343  1.9239
  152MOL   C12121563   8.093   5.754   4.853 -0.5960  0.3610  0.0803
  152MOL   C12221564   8.207   5.739   4.745 -0.7932  0.0660 -0.1821
  152MOL   C12321565   8.186   5.638   4.638  0.4850 -0.8246 -0.0261
  152MOL   N12421566   8.179   5.559   4.555 -0.4188  0.4790  0.0763
  152MOL   H12521567   8.064   5.656   4.889  0.0998  0.3952  0.7407
  152MOL   H12621568   8.007   5.805   4.808 -1.9669 -1.4057  0.6350
  152MOL   H12721569   8.293   5.693   4.794  0.0695  0.1836 -1.5432
  152MOL   C12821570   8.244   5.878   4.679  0.3507 -0.5729  0.0538
  152MOL   C12921571   0.063   5.886   4.593 -0.7745  0.5042 -0.0336
  152MOL   C13021572   0.173   5.816   4.664 -1.0302 -0.0259  1.1529
  152MOL   N13121573   0.259   5.757   4.715  0.3407 -0.4636 -0.0144
  152MOL   H13221574   8.161   5.916   4.620  2.1506  2.0696 -0.8590
  152MOL   H13321575   8.257   5.947   4.763  0.5877  0.6070 -0.9395
  152MOL   H13421576   0.093   5.991   4.591 -0.2926  0.3622 -0.1314
  152MOL   C13521577   0.052   5.851   4.445 -0.0258  0.1847 -0.7617
  152MOL   C13621578   0.179   5.884   4.370  0.2101 -0.2504 -0.3509
  152MOL   C13721579   0.155   5.854   4.233  0.1930  0.0684 -0.0811
  152MOL   N13821580   0.130   5.837   4.121 -0.0922 -0.4950  0.0040
  152MOL   H13921581   0.018   5.749   4.431  0.3157 -0.1269  0.5705
  152MOL   H14021582   8.294   5.917   4.394 -1.0137  0.3910  0.8193
  152MOL   H14121583   0.265   5.825   4.402 -0.1194 -0.2593  0.5189
  152MOL   H14221584   0.196   5.991   4.378 -0.1238 -0.2492  0.4648
  153MOL     C121585   7.433   4.318   6.461  0.0308 -0.3627  0.0040
  153MOL     C221586   7.499   4.449   6.498  0.6080 -0.1652 -0.0596
  153MOL     C321587   7.401   4.563   6.498 -0.4558 -0.0877  0.1609
  153MOL     N421588   7.330   4.654   6.497 -0.4165 -0.0926  0.6188
  153MOL     H521589   7.340   4.334   6.406 -0.2852  1.0957  0.9294
  153MOL     H621590   7.400   4.268   6.552  1.3394 -0.7824  0.2589
  153MOL     H721591   7.566   4.483   6.419  0.8956 -0.2476  0.1496
  153MOL     H821592   7.506   4.252   6.415  0.2476 -0.1211 -0.0039
  153MOL     C921593   7.573   4.467   6.632 -0.2054 -0.1397  0.1944
  153MOL    C1021594   7.691   4.372   6.630 -0.0490  0.1503 -0.3368
  153MOL    C1121595   7.802   4.433   6.546  0.2694  0.2059 -0.3153
  153MOL    N1221596   7.879   4.488   6.479 -0.0901 -0.7127  0.0400
  153MOL    H1321597   7.601   4.571   6.650  0.1567  0.0295 -1.2917
  153MOL    H1421598   7.510   4.430   6.712 -1.7651 -0.7520 -1.2947
  153MOL    H1521599   7.662   4.280   6.578 -2.0279  0.4561  0.1994
  153MOL    C1621600   7.749   4.350   6.771 -0.0006 -0.0247 -0.7363
  153MOL    C1721601   7.700   4.220   6.834 -0.2190  0.0912  0.0787
  153MOL    C1821602   7.718   4.103   6.741  0.1669 -0.4458  0.5243
  153MOL    N1921603   7.739   4.010   6.675  0.1155 -0.0219 -0.3145
  153MOL    H2021604   7.858   4.355   6.766  0.1219 -0.0745  1.2859
  153MOL    H2121605   7.706   4.430   6.832 -0.8948 -0.1155 -1.2339
  153MOL    H2221606   7.593   4.233   6.848  0.0522  0.9890  1.3318
  153MOL    C2321607   7.758   4.189   6.974 -0.2117  0.3054 -0.0468
  153MOL    C2421608   7.723   4.053   7.041 -0.3993 -0.1564 -0.2224
  153MOL    C2521609   7.811   3.945   7.000 -0.2242 -0.1999 -0.1835
  153MOL    N2621610   7.889   3.866   6.977 -0.7007  0.3006  0.0876
  153MOL    H2721611   7.867   4.194   6.972 -0.1657 -0.8784 -1.3680
  153MOL    H2821612   7.725   4.277   7.029 -0.4657  0.7288 -0.8773
  153MOL    H2921613   7.620   4.025   7.019 -1.3088  4.3076 -2.2103
  153MOL    C3021614   7.739   4.078   7.193  0.0405  0.0355 -0.2361
  153MOL    C3121615   7.711   3.962   7.284  0.7978 -0.0838 -0.8294
  153MOL    C3221616   7.823   3.910   7.360 -0.5165  0.1883  0.4889
  153MOL    N3321617   7.919   3.869   7.409  0.4753  0.4232  0.1716
  153MOL    H3421618   7.834   4.131   7.200 -0.4862  1.2736 -2.0824
  153MOL    H3521619   7.670   4.162   7.207  0.7835  1.3387 -3.8582
  153MOL    H3621620   7.653   3.881   7.238 -0.9306 -0.1986  1.4281
  153MOL    C3721621   7.608   4.016   7.390 -0.6812 -0.2780 -0.1746
  153MOL    C3821622   7.452   4.000   7.359  0.3787 -0.3062  0.0572
  153MOL    C3921623   7.421   4.060   7.233  0.1772 -0.4803 -0.2631
  153MOL    N4021624   7.395   4.100   7.126  0.1948 -0.1093  0.6369
  153MOL    H4121625   7.623   3.968   7.486 -0.2915  1.3551  0.5949
  153MOL    H4221626   7.638   4.119   7.405  2.6019 -1.0262 -1.2773
  153MOL    H4321627   7.403   4.045   7.446  0.5689 -0.5934  0.3102
  153MOL    C4421628   7.391   3.858   7.359  0.4513  0.0330 -0.0262
  153MOL    C4521629   7.240   3.842   7.332 -0.3366 -0.0195  0.3072
  153MOL    C4621630   7.157   3.911   7.441 -0.8827  0.3897  0.0348
  153MOL    N4721631   7.095   3.968   7.523 -0.4809  0.0626 -0.2270
  153MOL    H4821632   7.447   3.801   7.285  1.2307  1.2214 -0.3679
  153MOL    H4921633   7.411   3.811   7.455 -0.8245 -0.4543  0.0022
  153MOL    H5021634   7.212   3.738   7.348  0.2474 -0.2045  0.1621
  153MOL    C5121635   7.170   3.873   7.199 -0.4965  0.2176  0.6044
  153MOL    C5221636   7.237   3.810   7.075 -0.6911  0.0529  0.9252
  153MOL    C5321637   7.271   3.667   7.088 -0.4880  0.1089 -0.7043
  153MOL    N5421638   7.292   3.553   7.102  0.2255  0.8762  0.5778
  153MOL    H5521639   7.071   3.827   7.195 -0.8807  0.9942  1.0117
  153MOL    H5621640   7.147   3.980   7.192  0.4560  0.3491 -0.6591
  153MOL    H5721641   7.338   3.851   7.071 -0.0203 -1.4858  1.6700
  153MOL    C5821642   7.167   3.834   6.945  0.2892 -0.7709  0.2798
  153MOL    C5921643   7.183   3.978   6.894  0.1170 -0.1954 -1.4186
  153MOL    C6021644   7.314   4.023   6.832 -0.4281 -0.6068  0.1313
  153MOL    N6121645   7.410   4.058   6.780  0.1936  0.1716  0.8258
  153MOL    H6221646   7.198   3.771   6.862 -2.5950 -1.1046 -0.5910
  153MOL    H6321647   7.063   3.802   6.958 -0.5877 -0.2891 -4.7541
  153MOL    H6421648   7.160   4.042   6.979 -0.6339 -1.8991 -0.3250
  153MOL    C6521649   7.084   4.015   6.784 -0.2897  0.2937 -0.4568
  153MOL    C6621650   6.933   4.000   6.810 -0.0681 -0.2680 -0.5823
  153MOL    C6721651   6.897   3.999   6.954 -1.0857 -1.0161  0.0392
  153MOL    N6821652   6.872   3.995   7.065  0.1189  0.2934  0.3437
  153MOL    H6921653   7.103   4.121   6.773 -3.5801  1.0257  0.3170
  153MOL    H7021654   7.115   3.956   6.698 -1.2425 -0.6122 -0.1941
  153MOL    H7121655   6.914   3.898   6.778  1.4139 -0.5738 -0.5471
  153MOL    C7221656   6.855   4.095   6.727  0.2782  0.9967  0.5723
  153MOL    C7321657   6.712   4.117   6.758  0.3860  0.1156 -0.3093
  153MOL    C7421658   6.658   4.235   6.689  0.0193  0.5063 -0.1263
  153MOL    N7521659   6.616   4.326   6.631 -0.2287  0.5084 -0.2270
  153MOL    H7621660   6.887   4.197   6.745 -3.2137  2.2577 -0.0026
  153MOL    H7721661   6.873   4.091   6.620  0.1184  0.3695  0.5669
  153MOL    H7821662   6.694   4.134   6.864 -1.6559 -1.9195 -0.2880
  153MOL    C7921663   6.627   3.988   6.735  0.5265  0.2579  0.1709
  153MOL    C8021664   6.476   4.012   6.712 -0.0986  1.2594 -0.3208
  153MOL    C8121665   6.458   4.042   6.568 -0.8118  0.3103 -0.2825
  153MOL    N8221666   6.449   4.064   6.458  0.4429  0.1807  0.6244
  153MOL    H8321667   6.664   3.946   6.642  1.3929  1.0552  0.1533
  153MOL    H8421668   6.655   3.905   6.801  3.3743  0.2409 -1.0032
  153MOL    H8521669   6.449   4.102   6.768  0.7347  0.0627  2.0648
  153MOL    C8621670   6.391   3.887   6.756  0.6249  0.2708 -0.3710
  153MOL    C8721671   6.369   3.874   6.913 -0.1542  0.9260 -0.0312
  153MOL    C8821672   6.496   3.832   6.977  0.0950  0.2192  0.0554
  153MOL    N8921673   6.592   3.798   7.028 -0.6789 -0.1128 -0.0217
  153MOL    H9021674   6.295   3.897   6.705  0.8576 -0.1997 -0.9138
  153MOL    H9121675   6.441   3.799   6.715 -1.5324 -0.5421 -1.3234
  153MOL    H9221676   6.301   3.790   6.926  2.8342 -1.6533 -0.2397
  153MOL    C9321677   6.307   3.999   6.968 -0.1590 -0.4878 -0.2652
  153MOL    C9421678   6.234   3.983   7.100 -0.1185 -0.3895  0.5083
  153MOL    C9521679   6.122   3.883   7.097 -0.5483 -0.5893 -0.2736
  153MOL    N9621680   6.036   3.812   7.096 -0.3534  0.4229  0.4685
  153MOL    H9721681   6.380   4.078   6.984  0.0912 -0.9335  0.8250
  153MOL    H9821682   6.227   4.035   6.904 -1.0005 -1.5443  0.1775
  153MOL    H9921683   6.183   4.078   7.117 -0.8404 -0.3668 -1.6460
  153MOL   C10021684   6.323   3.962   7.224  0.3384  0.3177 -0.2553
  153MOL   C10121685   6.435   4.066   7.245 -0.0550  0.5997  0.9961
  153MOL   C10221686   6.368   4.199   7.247 -0.9650  1.1334  0.5647
  153MOL   N10321687   6.315   4.303   7.234 -0.1958  0.3254 -0.2771
  153MOL   H10421688   6.258   3.965   7.311  0.0889  0.3312 -0.4407
  153MOL   H10521689   6.368   3.863   7.223 -0.5830 -0.1035 -0.2626
  153MOL   H10621690   6.504   4.057   7.161 -1.3189  2.6999 -0.3349
  153MOL   C10721691   6.505   4.047   7.378 -0.3257  0.0546  0.2826
  153MOL   C10821692   6.603   4.168   7.399  0.1468 -0.9255  0.4804
  153MOL   C10921693   6.542   4.285   7.465 -0.1268  0.2307  0.0574
  153MOL   N11021694   6.489   4.380   7.507 -0.2553 -0.1919 -0.3453
  153MOL   H11121695   6.438   4.047   7.464  2.5636  1.8269  2.6250
  153MOL   H11221696   6.551   3.948   7.375  0.6434  0.5348 -1.3457
  153MOL   H11321697   6.634   4.199   7.299 -0.0885 -0.2964  0.6054
  153MOL   C11421698   6.734   4.135   7.472 -0.2270  0.3848 -0.4627
  153MOL   C11521699   6.716   4.112   7.619 -0.5105 -0.5793 -0.4662
  153MOL   C11621700   6.640   3.993   7.646 -0.2240  1.0955  0.1847
  153MOL   N11721701   6.586   3.895   7.669  0.0724  0.3580  0.4342
  153MOL   H11821702   6.776   4.039   7.439 -1.1504 -0.6593  1.3235
  153MOL   H11921703   6.808   4.213   7.453  0.7849 -0.5731 -0.5105
  153MOL   H12021704   6.655   4.186   7.671 -0.9140 -0.7936 -0.6346
  153MOL   C12121705   6.854   4.110   7.702  0.1903  0.0205  0.1955
  153MOL   C12221706   6.948   4.232   7.684 -0.4503  0.1017  0.3214
  153MOL   C12321707   6.879   4.362   7.683  1.3244 -0.0034  0.0060
  153MOL   N12421708   6.826   4.463   7.686  0.4570 -0.8762 -0.0091
  153MOL   H12521709   6.833   4.103   7.809 -0.8397  2.3430  0.1823
  153MOL   H12621710   6.905   4.015   7.688 -0.4429 -0.1533 -0.9256
  153MOL   H12721711   6.987   4.217   7.583 -0.5184  0.3841  0.2540
  153MOL   C12821712   7.061   4.240   7.788 -0.3299  0.0162 -0.4936
  153MOL   C12921713   7.173   4.351   7.760 -0.5272 -0.3884  0.7549
  153MOL   C13021714   7.224   4.368   7.617  0.4016 -0.4479 -0.3168
  153MOL   N13121715   7.259   4.378   7.504  0.3027  0.1876  0.0824
  153MOL   H13221716   7.027   4.248   7.891  1.6502 -2.4915  0.3831
  153MOL   H13321717   7.115   4.147   7.804  0.8556  0.8172  0.2953
  153MOL   H13421718   7.257   4.302   7.809  0.4181  0.5296  0.0714
  153MOL   C13521719   7.143   4.481   7.838 -0.1756 -0.0606  0.4635
  153MOL   C13621720   7.235   4.517   7.952  0.2293  0.0295  0.6612
  153MOL   C13721721   7.231   4.410   8.047 -0.5279  0.4166 -0.6661
  153MOL   N13821722   7.233   4.326   8.127 -0.0891  0.2148  0.8114
  153MOL   H13921723   7.118   4.572   7.784  0.7277 -0.7498 -1.1463
  153MOL   H14021724   7.038   4.473   7.869 -1.0366  3.6920 -1.2497
  153MOL   H14121725   7.203   4.607   8.005  0.4921 -1.0190  2.6717
  153MOL   H14221726   7.337   4.527   7.917 -0.4627 -0.6560 -1.6073
  154MOL     C121727   5.669   3.809   2.662  0.2516 -0.0017 -0.6406
  154MOL     C221728   5.760   3.722   2.752  0.6300 -0.1191 -0.5975
  154MOL     C321729   5.863   3.798   2.816 -0.6402  0.6823 -0.4716
  154MOL     N421730   5.948   3.859   2.863  0.5725  0.1473 -0.5237
  154MOL     H521731   5.740   3.841   2.585  0.6146  0.9173  0.0721
  154MOL     H621732   5.636   3.906   2.698 -1.8036 -1.0930  0.4885
  154MOL     H721733   5.800   3.633   2.705  1.1287 -0.4072  0.3565
  154MOL     H821734   5.577   3.769   2.618 -1.3792  2.0144  0.8461
  154MOL     C921735   5.668   3.672   2.864 -0.7054 -0.5226 -0.5382
  154MOL    C1021736   5.564   3.577   2.822  0.3638 -0.7467 -0.3002
  154MOL    C1121737   5.626   3.468   2.750  0.1523 -0.2154 -0.5629
  154MOL    N1221738   5.674   3.383   2.696  0.3235  0.6627 -0.1026
  154MOL    H1321739   5.734   3.618   2.932 -1.3875 -1.6401 -0.7514
  154MOL    H1421740   5.628   3.751   2.927  0.3057  0.4896 -1.1438
  154MOL    H1521741   5.502   3.626   2.747  1.7595 -0.2523 -1.1629
  154MOL    C1621742   5.476   3.517   2.943 -0.5442  0.1181  0.0476
  154MOL    C1721743   5.334   3.472   2.903  0.2537  0.2613  0.4671
  154MOL    C1821744   5.261   3.587   2.836 -0.5934  0.3633 -0.2183
  154MOL    N1921745   5.199   3.674   2.787  0.0477 -0.0009  0.5551
  154MOL    H2021746   5.525   3.443   3.008 -0.9911 -0.3267 -0.1195
  154MOL    H2121747   5.474   3.589   3.025  0.4735 -2.0519  2.0379
  154MOL    H2221748   5.289   3.443   2.998  0.3307 -0.5353  0.2667
  154MOL    C2321749   5.339   3.338   2.826  0.2798 -0.4160 -0.0542
  154MOL    C2421750   5.209   3.266   2.798  0.3691  0.0122  0.4271
  154MOL    C2521751   5.097   3.296   2.890 -0.2646 -1.2928 -0.3321
  154MOL    N2621752   5.008   3.322   2.957  0.2215 -0.5110 -0.3206
  154MOL    H2721753   5.395   3.335   2.733  0.2513  0.4277 -0.0954
  154MOL    H2821754   5.394   3.274   2.894  2.1436  0.9804 -0.2252
  154MOL    H2921755   5.222   3.163   2.831 -0.7392 -0.4419 -0.5422
  154MOL    C3021756   5.167   3.262   2.659 -0.1685 -0.5555  0.3510
  154MOL    C3121757   5.026   3.183   2.639 -0.0979 -0.1010  0.4447
  154MOL    C3221758   4.991   3.206   2.498  1.0292 -0.1315 -0.5945
  154MOL    N3321759   4.964   3.224   2.391 -0.0314 -0.6523 -0.1859
  154MOL    H3421760   5.158   3.365   2.624  0.3163 -0.1273  1.4536
  154MOL    H3521761   5.243   3.210   2.599  0.6207 -1.4645  2.1091
  154MOL    H3621762   4.942   3.225   2.694 -0.5974 -0.2833 -0.1637
  154MOL    C3721763   5.029   3.032   2.671  0.8905 -0.5509  0.2891
  154MOL    C3821764   4.897   2.960   2.674 -0.1432  0.0264  0.6949
  154MOL    C3921765   4.797   3.038   2.755  0.4926  0.3219 -0.3305
  154MOL    N4021766   4.716   3.102   2.815  0.0004 -0.3996  0.6647
  154MOL    H4121767   5.098   2.979   2.605 -0.0946 -0.6828 -0.6437
  154MOL    H4221768   5.066   3.015   2.772  0.4122 -0.2943  0.5103
  154MOL    H4321769   4.920   2.860   2.711 -0.3067 -0.5569 -0.7259
  154MOL    C4421770   4.825   2.939   2.540 -0.4093  0.0196  0.2385
  154MOL    C4521771   4.908   2.875   2.424  0.8117 -0.1259 -0.5301
  154MOL    C4621772   4.997   2.779   2.487  0.1940  0.0802  0.3836
  154MOL    N4721773   5.071   2.700   2.534  0.1697  0.2185 -0.4352
  154MOL    H4821774   4.735   2.880   2.556 -0.6062 -0.4339 -2.2350
  154MOL    H4921775   4.789   3.033   2.498 -2.8547 -0.9032  0.1970
  154MOL    H5021776   4.977   2.951   2.386 -0.1908  0.6127 -0.9087
  154MOL    C5121777   4.821   2.816   2.310  0.2217 -0.0086 -0.7452
  154MOL    C5221778   4.899   2.769   2.183 -0.0130  0.1564 -0.0039
  154MOL    C5321779   4.974   2.649   2.207  0.6672 -0.1277 -0.2463
  154MOL    N5421780   5.038   2.553   2.227 -0.1411  0.4274  0.1744
  154MOL    H5521781   4.778   2.727   2.354  0.9739 -0.4489 -0.8859
  154MOL    H5621782   4.733   2.872   2.279 -0.7452 -1.1559 -0.0897
  154MOL    H5721783   4.966   2.852   2.161  0.7991 -1.0731 -2.3869
  154MOL    C5821784   4.801   2.746   2.069  0.2663  0.4979  0.4901
  154MOL    C5921785   4.875   2.684   1.941 -0.0355  0.0848 -0.2148
  154MOL    C6021786   4.769   2.613   1.866 -0.2288  0.3950  0.4348
  154MOL    N6121787   4.682   2.559   1.810 -0.2138 -0.1270  0.1276
  154MOL    H6221788   4.721   2.677   2.097 -0.2832  1.2574  0.8035
  154MOL    H6321789   4.737   2.829   2.039  0.4480  0.5299  0.1971
  154MOL    H6421790   4.950   2.612   1.975  1.4384  1.2883 -0.8757
  154MOL    C6521791   4.964   2.793   1.862 -0.7759  0.7843  0.8024
  154MOL    C6621792   5.074   2.729   1.774  0.3525 -0.1318  0.2317
  154MOL    C6721793   5.017   2.654   1.659 -0.6211 -0.6090 -0.6593
  154MOL    N6821794   4.974   2.600   1.572  0.0255 -0.1058  0.1713
  154MOL    H6921795   4.903   2.866   1.809 -1.8447 -1.3212 -0.9520
  154MOL    H7021796   5.022   2.850   1.934  1.3011 -0.0242 -0.1888
  154MOL    H7121797   5.130   2.652   1.828  1.5677  1.0409  0.6741
  154MOL    C7221798   5.185   2.834   1.739  1.0365 -0.1397 -0.1457
  154MOL    C7321799   5.146   2.913   1.612  0.1523  0.0700 -0.1663
  154MOL    C7421800   5.005   2.951   1.600  0.3169  0.1263 -0.4870
  154MOL    N7521801   4.889   2.980   1.588 -0.1413 -0.0210  0.3593
  154MOL    H7621802   5.211   2.903   1.819 -0.3079 -0.7852  0.8754
  154MOL    H7721803   5.279   2.781   1.722  0.1362 -1.6269 -0.5733
  154MOL    H7821804   5.147   2.844   1.528 -0.6758  0.5287 -0.5543
  154MOL    C7921805   5.243   3.029   1.583  0.6688 -0.4537 -0.2152
  154MOL    C8021806   5.200   3.121   1.470  0.1499  0.2749  0.0654
  154MOL    C8121807   5.100   3.225   1.509 -0.1785 -0.0441  0.0962
  154MOL    N8221808   5.026   3.308   1.549 -0.1703  0.3226  0.2096
  154MOL    H8321809   5.256   3.090   1.673  0.1397 -0.9142  0.1812
  154MOL    H8421810   5.340   2.979   1.575  0.2526 -1.2644 -0.2601
  154MOL    H8521811   5.141   3.074   1.391  0.9025 -0.6828  0.0709
  154MOL    C8621812   5.328   3.189   1.407  0.7146  0.7229 -0.4841
  154MOL    C8721813   5.300   3.304   1.306  0.5050 -0.4338 -0.1328
  154MOL    C8821814   5.405   3.409   1.309 -0.1360  0.1461  0.0212
  154MOL    N8921815   5.479   3.495   1.317 -0.4588 -0.1105 -0.1497
  154MOL    H9021816   5.391   3.224   1.489  1.0541 -0.0243 -0.4191
  154MOL    H9121817   5.394   3.114   1.363  0.9064  0.6929 -0.1423
  154MOL    H9221818   5.216   3.364   1.340 -0.0030 -0.6965 -0.9138
  154MOL    C9321819   5.277   3.247   1.164 -0.1744  0.5071  0.0820
  154MOL    C9421820   5.127   3.254   1.135 -0.3996  0.3404  0.0771
  154MOL    C9521821   5.069   3.391   1.142 -0.3223 -0.8351  0.4464
  154MOL    N9621822   5.021   3.500   1.150 -0.8601 -0.2172 -0.8348
  154MOL    H9721823   5.338   3.297   1.089  0.1376 -1.1896 -0.8104
  154MOL    H9821824   5.300   3.141   1.152 -1.6630  0.3571 -1.6130
  154MOL    H9921825   5.071   3.188   1.201  0.7762 -0.0268  0.7386
  154MOL   C10021826   5.103   3.219   0.984  0.0862 -0.1053 -0.8296
  154MOL   C10121827   5.102   3.071   0.953 -0.2754 -0.2440  0.5911
  154MOL   C10221828   4.999   2.990   1.024  0.5996 -0.4603 -0.0229
  154MOL   N10321829   4.923   2.935   1.087  0.7741  0.0262 -0.3139
  154MOL   H10421830   4.999   3.249   0.966  0.0252 -0.3755 -0.9233
  154MOL   H10521831   5.165   3.281   0.919 -1.0766 -0.4096 -2.2634
  154MOL   H10621832   5.194   3.028   0.994 -0.7240 -3.0188 -1.1627
  154MOL   C10721833   5.098   3.047   0.800 -0.2069 -0.5275 -0.4734
  154MOL   C10821834   5.150   2.914   0.754 -0.2860  0.1754 -0.0466
  154MOL   C10921835   5.057   2.811   0.789 -0.3765  0.2216 -0.2318
  154MOL   N11021836   4.983   2.724   0.816 -0.2742 -0.5761 -0.3154
  154MOL   H11121837   4.996   3.064   0.765 -2.0144  0.7765  4.9883
  154MOL   H11221838   5.149   3.131   0.752 -0.8943 -0.8422 -1.7955
  154MOL   H11321839   5.243   2.899   0.809 -1.0426 -1.0887  0.9134
  154MOL   C11421840   5.190   2.892   0.605  0.2400  0.0593  0.0736
  154MOL   C11521841   5.287   2.767   0.585  0.3719  0.6185  0.6839
  154MOL   C11621842   5.348   2.715   0.705 -1.1703  0.2377  0.5461
  154MOL   N11721843   5.397   2.674   0.799 -0.4620 -0.1202 -0.6226
  154MOL   H11821844   5.111   2.886   0.530  1.5507 -2.9065 -1.1238
  154MOL   H11921845   5.255   2.976   0.581 -0.3628  0.3199 -0.6668
  154MOL   H12021846   5.368   2.791   0.517 -0.1916  1.8957  0.4462
  154MOL   C12121847   5.202   2.651   0.532  0.7152  0.4362 -0.0260
  154MOL   C12221848   5.180   2.644   0.379  0.3161  0.1322 -0.2600
  154MOL   C12321849   5.302   2.631   0.297  0.3462 -0.4245 -0.6413
  154MOL   N12421850   5.399   2.631   0.233  0.2349  0.3340  0.3618
  154MOL   H12521851   5.274   2.570   0.545  2.7850  1.8376 -2.2063
  154MOL   H12621852   5.113   2.621   0.587 -0.1587 -0.3903 -1.8408
  154MOL   H12721853   5.138   2.738   0.343 -2.1072 -1.0488 -0.5884
  154MOL   C12821854   5.070   2.540   0.358 -0.3172 -0.0427  0.3164
  154MOL   C12921855   5.007   2.542   0.216 -0.3630  0.5584  0.7005
  154MOL   C13021856   5.102   2.519   0.101  1.0051  0.1559 -0.2802
  154MOL   N13121857   5.178   2.494   0.016  0.3264  0.4083 -0.6827
  154MOL   H13221858   5.103   2.439   0.383  1.0594  0.5856  1.0894
  154MOL   H13321859   4.995   2.583   0.425 -1.0880 -3.0529  1.4755
  154MOL   H13421860   4.973   2.644   0.199 -2.1106 -0.3098 -1.1305
  154MOL   C13521861   4.884   2.453   0.211 -0.3488 -0.6152 -0.2508
  154MOL   C13621862   4.793   2.478   0.092 -0.3531  0.1505 -0.3585
  154MOL   C13721863   4.657   2.419   0.098  0.7973  0.2079  0.2408
  154MOL   N13821864   4.555   2.369   0.102  0.0277  0.0724  0.0045
  154MOL   H13921865   4.906   2.346   0.212 -0.0040 -0.5597 -1.5139
  154MOL   H14021866   4.829   2.468   0.304 -0.3753  0.0573 -0.3720
  154MOL   H14121867   4.846   2.426   0.012  0.8964 -1.1397  1.2619
  154MOL   H14221868   4.806   2.584   0.075  1.7499  0.1200  0.8873
  155MOL     C121869   6.451   6.802   3.085 -0.0348  0.0984  0.1987
  155MOL     C221870   6.433   6.940   3.158  0.2903 -0.2394 -0.5711
  155MOL     C321871   6.333   6.922   3.265  0.1407  0.0650 -0.2761
  155MOL     N421872   6.250   6.900   3.345  0.4805 -0.4184  0.0988
  155MOL     H521873   6.487   6.727   3.156 -1.1341 -0.0539  0.6120
  155MOL     H621874   6.528   6.810   3.009  0.4617 -1.2349  0.5356
  155MOL     H721875   6.397   7.015   3.088  0.8207  1.7688  1.2334
  155MOL     H821876   6.356   6.779   3.035  0.5568  0.2790 -1.0126
  155MOL     C921877   6.572   6.998   3.212  0.1880  0.0711 -0.5097
  155MOL    C1021878   6.575   7.151   3.249  0.3800 -0.4297  0.6071
  155MOL    C1121879   6.469   7.201   3.338 -0.1243  0.1090 -0.2658
  155MOL    N1221880   6.384   7.244   3.409  0.0231 -0.0271 -0.2337
  155MOL    H1321881   6.613   6.941   3.296  1.1957  1.5591  0.0365
  155MOL    H1421882   6.646   6.986   3.133  1.0735 -0.2205  0.3540
  155MOL    H1521883   6.547   7.214   3.165 -2.0405 -0.5166  1.3050
  155MOL    C1621884   6.714   7.194   3.299 -0.2253 -0.9709  0.0204
  155MOL    C1721885   6.825   7.204   3.192  0.0646 -0.5386  0.2058
  155MOL    C1821886   6.784   7.267   3.063  0.0810  0.8518 -0.7105
  155MOL    N1921887   6.757   7.312   2.963 -0.0140  0.1670  0.3547
  155MOL    H2021888   6.699   7.291   3.347 -0.0038 -1.6719  1.5143
  155MOL    H2121889   6.744   7.129   3.382  0.1140 -0.4693  0.2945
  155MOL    H2221890   6.864   7.108   3.156 -1.2159 -1.2562  0.7207
  155MOL    C2321891   6.941   7.277   3.257 -0.8444 -0.0697  0.1332
  155MOL    C2421892   7.025   7.184   3.344 -0.5357 -0.5291  0.5172
  155MOL    C2521893   7.090   7.091   3.245  0.2883  0.2154 -0.4077
  155MOL    N2621894   7.133   7.023   3.164 -0.1786 -0.2548  0.2311
  155MOL    H2721895   7.013   7.318   3.186 -0.7785 -1.7706 -0.8083
  155MOL    H2821896   6.904   7.367   3.307  0.7845  1.0131 -0.5773
  155MOL    H2921897   6.969   7.126   3.418 -3.1996  2.3617  0.8677
  155MOL    C3021898   7.141   7.257   3.421  0.4209 -0.0141  1.2910
  155MOL    C3121899   7.230   7.158   3.504 -0.0561 -0.1530 -0.0061
  155MOL    C3221900   7.370   7.182   3.473  0.2632  0.1206  0.4606
  155MOL    N3321901   7.475   7.210   3.438 -0.7786 -0.3139  0.3203
  155MOL    H3421902   7.207   7.293   3.341  1.7121 -1.2263  1.7840
  155MOL    H3521903   7.113   7.336   3.490  0.9591 -0.7062  2.3213
  155MOL    H3621904   7.214   7.053   3.480 -1.4613 -0.2702  1.3565
  155MOL    C3721905   7.214   7.182   3.657  0.1005 -0.9772  0.2171
  155MOL    C3821906   7.281   7.083   3.756  0.7995 -0.0863  0.1883
  155MOL    C3921907   7.433   7.079   3.747  0.4103  0.0595 -0.0495
  155MOL    N4021908   7.549   7.070   3.737  0.1657 -0.2305 -0.6776
  155MOL    H4121909   7.253   7.280   3.684 -2.3850  0.3638 -0.9232
  155MOL    H4221910   7.109   7.172   3.681  0.0633  0.1176  0.5391
  155MOL    H4321911   7.266   6.977   3.733  0.4792 -0.5710  2.5614
  155MOL    C4421912   7.239   7.105   3.907  0.1100  0.1295 -0.0877
  155MOL    C4521913   7.311   7.001   3.993 -0.3411  0.1365 -0.3693
  155MOL    C4621914   7.436   7.052   4.060  0.0711 -0.5689  0.5310
  155MOL    N4721915   7.526   7.086   4.118  0.1405  0.3238 -0.5582
  155MOL    H4821916   7.254   7.207   3.941  2.6537 -1.0538  2.4936
  155MOL    H4921917   7.132   7.083   3.913  0.1990  0.0531  1.2178
  155MOL    H5021918   7.349   6.923   3.927  1.5811  0.9297 -0.2535
  155MOL    C5121919   7.214   6.933   4.085  0.2985  0.3385  0.1438
  155MOL    C5221920   7.264   6.824   4.188  0.2507 -0.1527 -0.1257
  155MOL    C5321921   7.146   6.758   4.254  0.1230  0.2574 -0.2303
  155MOL    N5421922   7.046   6.709   4.294 -0.2200  0.2025 -0.2602
  155MOL    H5521923   7.159   7.009   4.140 -0.1943 -0.6987  1.1095
  155MOL    H5621924   7.135   6.895   4.021 -1.7701  0.0525  2.7618
  155MOL    H5721925   7.321   6.879   4.263  2.8841 -1.4250 -1.1415
  155MOL    C5821926   7.352   6.716   4.121  0.5051  0.0861 -0.2491
  155MOL    C5921927   7.292   6.606   4.034  0.3907 -0.6735  0.2784
  155MOL    C6021928   7.223   6.654   3.910  0.5166 -0.2139  0.5082
  155MOL    N6121929   7.178   6.694   3.814  0.3183 -0.2060 -0.1045
  155MOL    H6221930   7.423   6.764   4.055  1.5924  0.5524  1.2360
  155MOL    H6321931   7.405   6.658   4.197  1.7443 -0.2935 -1.4035
  155MOL    H6421932   7.225   6.552   4.101 -0.5164  0.4618  0.2890
  155MOL    C6521933   7.397   6.498   3.990 -0.2252 -0.3232  0.1584
  155MOL    C6621934   7.436   6.388   4.097 -0.4532 -0.4381 -0.4497
  155MOL    C6721935   7.319   6.325   4.161  0.7216  0.3277  0.0437
  155MOL    N6821936   7.223   6.273   4.208  0.3275 -0.0160  0.1178
  155MOL    H6921937   7.366   6.436   3.906 -0.1597  0.3126 -0.3389
  155MOL    H7021938   7.479   6.547   3.937 -0.7155 -0.2265 -0.5148
  155MOL    H7121939   7.469   6.440   4.187 -3.3957 -0.0899  0.4811
  155MOL    C7221940   7.550   6.299   4.051  0.0270  0.1025  0.5430
  155MOL    C7321941   7.695   6.346   4.047  0.2529 -0.1298 -0.2164
  155MOL    C7421942   7.731   6.390   4.177 -0.3972  0.2686  0.6739
  155MOL    N7521943   7.755   6.423   4.284 -0.6385 -0.0867 -0.0357
  155MOL    H7621944   7.544   6.207   4.109  0.5912 -0.8279 -0.8382
  155MOL    H7721945   7.525   6.266   3.951  1.6502 -2.3620  0.9224
  155MOL    H7821946   7.685   6.443   3.998  0.3440  0.5705  1.1452
  155MOL    C7921947   7.785   6.238   3.980  0.4393 -0.1030 -0.6433
  155MOL    C8021948   7.940   6.263   4.007 -0.0356  0.3110  0.1765
  155MOL    C8121949   8.015   6.151   3.949 -0.7666 -0.7700 -0.1312
  155MOL    N8221950   8.080   6.062   3.906 -0.5427 -0.0266  0.1399
  155MOL    H8321951   7.757   6.140   4.018 -0.8345 -0.1676 -1.6846
  155MOL    H8421952   7.764   6.246   3.873 -0.4066 -0.8752 -0.5427
  155MOL    H8521953   7.966   6.268   4.113  0.7235  0.2932 -0.0091
  155MOL    C8621954   7.992   6.396   3.935  0.9408  0.7930 -0.5363
  155MOL    C8721955   8.138   6.429   3.946  0.2294  0.1385  0.0313
  155MOL    C8821956   8.173   6.551   3.878 -0.5405  0.0212 -0.6708
  155MOL    N8921957   8.200   6.650   3.825  0.3628 -0.1257 -0.3669
  155MOL    H9021958   7.974   6.391   3.828  1.2002  0.3101 -0.5625
  155MOL    H9121959   7.935   6.480   3.975 -0.7007 -0.5392 -0.0622
  155MOL    H9221960   8.182   6.350   3.886 -0.8979  0.8254 -1.7371
  155MOL    C9321961   8.183   6.437   4.095  0.3285 -0.2318 -0.1479
  155MOL    C9421962   0.015   6.491   4.124 -0.5354  0.0790 -0.6451
  155MOL    C9521963   8.304   6.577   4.247  0.7539  0.0731 -0.3471
  155MOL    N9621964   8.280   6.641   4.343 -0.3189 -0.6108  0.2793
  155MOL    H9721965   8.110   6.504   4.138  3.0283  1.1365  2.4729
  155MOL    H9821966   8.175   6.335   4.134  1.2662 -1.7270 -3.6178
  155MOL    H9921967   0.051   6.564   4.051  2.8675 -1.1527 -0.2667
  155MOL   C10021968   0.130   6.389   4.149 -0.1721 -0.0449 -0.4182
  155MOL   C10121969   0.166   6.304   4.030  0.4436 -0.2759 -0.1781
  155MOL   C10221970   0.182   6.381   3.905 -0.1311  0.7778  0.1748
  155MOL   N10321971   0.188   6.446   3.806  0.1192 -0.0237  0.0658
  155MOL   H10421972   0.220   6.440   4.183  0.5581 -1.0904 -0.7808
  155MOL   H10521973   0.103   6.322   4.231  1.8672 -0.3087  0.0689
  155MOL   H10621974   0.097   6.220   4.026  2.1512 -1.9229  3.0015
  155MOL   C10721975   0.297   6.215   4.060  0.6399 -1.0641  0.1070
  155MOL   C10821976   0.343   6.110   3.950  0.7289 -0.4378 -0.3417
  155MOL   C10921977   0.364   6.160   3.812 -0.0513  0.4406  0.0573
  155MOL   N11021978   0.385   6.201   3.700  0.5240  0.6212 -0.0404
  155MOL   H11121979   0.383   6.276   4.087 -0.8983  1.2573 -0.1725
  155MOL   H11221980   0.282   6.155   4.150 -0.6166 -1.5203 -0.3860
  155MOL   H11321981   0.264   6.037   3.935  0.9396 -0.2286 -2.6672
  155MOL   C11421982   0.471   6.040   3.994 -0.1543  0.1257 -0.3254
  155MOL   C11521983   0.521   5.931   3.896 -0.4417 -0.2818 -0.4728
  155MOL   C11621984   0.641   5.869   3.946 -0.0547 -0.6621  0.0348
  155MOL   N11721985   0.736   5.823   3.991 -0.4736  0.2678  0.0015
  155MOL   H11821986   0.547   6.118   3.992  1.3607 -1.3289 -0.7443
  155MOL   H11921987   0.454   5.995   4.092  0.0220  1.9748  0.5754
  155MOL   H12021988   0.550   5.990   3.809  0.5800 -3.1533 -2.1584
  155MOL   C12121989   0.417   5.827   3.851  0.3092  0.3055  0.3167
  155MOL   C12221990   0.455   5.733   3.740  0.2226 -0.1398  0.9949
  155MOL   C12321991   0.517   5.801   3.624  0.2736  0.6254  0.0085
  155MOL   N12421992   0.569   5.853   3.535  0.4924  0.3107 -0.6116
  155MOL   H12521993   0.383   5.771   3.938  0.7496  2.0465  1.6260
  155MOL   H12621994   0.323   5.878   3.831 -0.3554  0.5880  3.7936
  155MOL   H12721995   0.361   5.701   3.695  0.5925  1.3426 -0.9069
  155MOL   C12821996   0.531   5.604   3.780  0.6349 -0.1825  0.0791
  155MOL   C12921997   0.537   5.490   3.683  0.0518  0.3641  0.1841
  155MOL   C13021998   0.409   5.447   3.633  0.4453 -0.4256  0.3335
  155MOL   N13121999   0.307   5.412   3.592 -0.1603 -1.1534 -0.2752
  155MOL   H13222000   0.637   5.616   3.801  0.7066  0.0025 -0.3700
  155MOL   H13322001   0.491   5.576   3.878  2.1183 -0.5748  0.5781
  155MOL   H13422002   0.579   5.407   3.740 -1.0721  0.3746  1.0466
  155MOL   C13522003   0.636   5.515   3.566 -0.5804  0.1803  0.0446
  155MOL   C13622004   0.661   5.380   3.486  0.1976 -0.5517 -0.1882
  155MOL   C13722005   0.767   5.392   3.376  0.3595 -0.5387 -0.2996
  155MOL   N13822006   0.847   5.401   3.290  0.0332 -0.5618  0.1497
  155MOL   H13922007   0.613   5.602   3.505 -0.8019 -1.5559 -2.4282
  155MOL   H14022008   0.732   5.541   3.612 -0.6190  0.8280 -0.2385
  155MOL   H14122009   0.565   5.363   3.437  0.0551 -0.2512 -0.0155
  155MOL   H14222010   0.696   5.299   3.550 -0.6277 -0.7011  0.0797
  156MOL     C122011   0.317   2.823   0.207  0.1657  0.4177 -0.2363
  156MOL     C222012   0.243   2.686   0.193 -0.5485 -0.6193  0.4543
  156MOL     C322013   0.278   2.603   0.077 -0.7556 -1.4042  0.2899
  156MOL     N422014   0.303   2.534   8.301  0.3678 -0.1843 -0.1443
  156MOL     H522015   0.293   2.887   0.122  0.3481  1.5865  0.5865
  156MOL     H622016   0.425   2.822   0.221  0.2925 -1.3437 -1.2169
  156MOL     H722017   0.137   2.712   0.189 -0.4333  0.0527  1.6193
  156MOL     H822018   0.278   2.857   0.303  2.1789 -2.1210  1.5556
  156MOL     C922019   0.264   2.603   0.324  0.6502  0.3560 -0.0795
  156MOL    C1022020   0.228   2.454   0.332  0.2485 -0.7961  0.4259
  156MOL    C1122021   0.263   2.386   0.462 -0.3005  0.1991 -0.3166
  156MOL    N1222022   0.298   2.333   0.557  0.3459  0.2198  0.2060
  156MOL    H1322023   0.370   2.610   0.350  0.4526 -2.1299  1.5699
  156MOL    H1422024   0.207   2.657   0.400  0.6728 -1.0000  0.9208
  156MOL    H1522025   0.284   2.396   0.259  0.2226  0.4944 -0.6246
  156MOL    C1622026   0.077   2.444   0.292 -0.3328 -0.0984  0.6007
  156MOL    C1722027   0.029   2.300   0.267  0.0867 -0.8391 -0.0407
  156MOL    C1822028   0.125   2.231   0.176 -0.2174  0.4206  0.7288
  156MOL    N1922029   0.207   2.181   0.105  0.2846  0.2266  0.1787
  156MOL    H2022030   0.011   2.480   0.371 -0.5000  0.6151  0.1385
  156MOL    H2122031   0.060   2.500   0.200 -2.1343 -2.5694 -0.6304
  156MOL    H2222032   8.251   2.317   0.208  1.8309 -1.5817 -3.0350
  156MOL    C2322033   8.302   2.217   0.388  0.0582 -0.3038  0.2505
  156MOL    C2422034   8.207   2.281   0.495  0.3723 -0.3775 -0.3752
  156MOL    C2522035   8.073   2.318   0.446 -0.3714 -0.6255 -0.2373
  156MOL    N2622036   7.966   2.347   0.410 -0.4733 -0.0221 -0.1359
  156MOL    H2722037   8.263   2.124   0.347 -0.7678 -0.3175  1.0675
  156MOL    H2822038   0.081   2.185   0.439 -0.5566  0.1291  1.6627
  156MOL    H2922039   8.257   2.372   0.527 -0.4117  0.6251 -1.9574
  156MOL    C3022040   8.187   2.187   0.613 -0.1358 -0.2025 -0.2504
  156MOL    C3122041   8.065   2.206   0.707  0.2624  0.1201 -0.8004
  156MOL    C3222042   8.079   2.116   0.822  0.3718 -0.2192 -0.1433
  156MOL    N3322043   8.085   2.048   0.917 -0.7066  0.3829 -0.1824
  156MOL    H3422044   8.196   2.085   0.575  2.5284 -0.8331  1.8607
  156MOL    H3522045   8.277   2.192   0.674  0.7761 -0.8286 -1.5306
  156MOL    H3622046   7.977   2.178   0.649 -1.7567 -1.0479  2.6089
  156MOL    C3722047   8.041   2.342   0.764 -0.6932 -0.5872 -1.0043
  156MOL    C3822048   7.893   2.354   0.832 -1.0156 -0.3563  0.1486
  156MOL    C3922049   7.896   2.461   0.936 -0.2445 -0.2693  0.4109
  156MOL    N4022050   7.897   2.546   1.015 -0.3211 -0.2472  0.4858
  156MOL    H4122051   8.109   2.369   0.844 -2.9141  0.7600  0.4934
  156MOL    H4222052   8.058   2.420   0.690  2.6424 -0.3720 -0.0954
  156MOL    H4322053   7.876   2.264   0.890 -1.3788  0.9303  2.0822
  156MOL    C4422054   7.773   2.353   0.727  0.5352  0.5038 -0.3883
  156MOL    C4522055   7.702   2.484   0.690  0.0108 -0.1917 -0.0928
  156MOL    C4622056   7.789   2.572   0.615 -0.1023 -0.6672  1.3450
  156MOL    N4722057   7.861   2.644   0.560  0.2174 -0.0082 -0.4817
  156MOL    H4822058   7.817   2.317   0.634  1.8427  0.0028  0.4137
  156MOL    H4922059   7.705   2.276   0.764  0.5825 -0.2447 -1.8086
  156MOL    H5022060   7.673   2.541   0.778 -0.2762  1.1040 -1.0197
  156MOL    C5122061   7.570   2.458   0.622  0.0473 -0.0511 -0.6811
  156MOL    C5222062   7.473   2.576   0.628 -0.0661 -0.0201  0.1413
  156MOL    C5322063   7.495   2.661   0.509 -0.2844  0.6828 -0.0699
  156MOL    N5422064   7.504   2.723   0.411  0.5286  0.1599 -0.0621
  156MOL    H5522065   7.593   2.421   0.521 -0.8184 -0.7260 -0.6364
  156MOL    H5622066   7.511   2.378   0.667 -0.0229 -0.4999 -1.5510
  156MOL    H5722067   7.486   2.635   0.718 -2.3672  0.6177  0.0939
  156MOL    C5822068   7.328   2.541   0.623  1.1860 -0.1037 -0.5551
  156MOL    C5922069   7.265   2.466   0.744 -0.1490 -0.5955 -0.0504
  156MOL    C6022070   7.281   2.530   0.878 -0.5354 -0.6868  0.2166
  156MOL    N6122071   7.300   2.584   0.979  0.2621 -0.9534  0.2606
  156MOL    H6222072   7.277   2.629   0.584  0.3081 -0.9025 -1.2500
  156MOL    H6322073   7.314   2.469   0.542 -2.2400  1.0487 -1.0651
  156MOL    H6422074   7.302   2.364   0.736  2.4154  0.2272  0.9007
  156MOL    C6522075   7.115   2.451   0.717 -0.5842 -0.1093  0.2720
  156MOL    C6622076   7.027   2.367   0.818  0.3067 -0.4251 -0.5786
  156MOL    C6722077   7.092   2.240   0.853  0.3017  0.3795  1.2414
  156MOL    N6822078   7.142   2.138   0.885 -0.2750 -0.1846  0.5714
  156MOL    H6922079   7.075   2.549   0.689 -2.2480 -1.1018 -0.8995
  156MOL    H7022080   7.114   2.407   0.618 -1.6041  1.3314 -0.3786
  156MOL    H7122081   6.934   2.337   0.769 -0.7295  0.2899  0.9157
  156MOL    C7222082   6.997   2.442   0.950  0.6357 -0.6127 -0.1816
  156MOL    C7322083   6.876   2.399   1.030  0.6032  1.1133 -0.6369
  156MOL    C7422084   6.753   2.416   0.954 -0.5116  0.0397 -0.0608
  156MOL    N7522085   6.658   2.439   0.891 -0.1647 -0.4011  0.0335
  156MOL    H7622086   7.087   2.435   1.012 -0.0945  0.9608  1.0923
  156MOL    H7722087   6.988   2.549   0.933  0.2211 -0.5935  0.1589
  156MOL    H7822088   6.881   2.472   1.111 -1.1293  1.7328 -1.0718
  156MOL    C7922089   6.900   2.259   1.087  0.9551 -0.0323  0.2421
  156MOL    C8022090   6.816   2.208   1.204 -0.7169 -0.6427 -0.0626
  156MOL    C8122091   6.675   2.251   1.195 -0.7235 -0.4673 -0.8152
  156MOL    N8222092   6.566   2.284   1.182 -0.4443  0.9404 -0.3608
  156MOL    H8322093   6.897   2.183   1.009 -0.1058 -0.6282  0.8526
  156MOL    H8422094   7.005   2.252   1.118  1.3316 -0.4919 -1.1021
  156MOL    H8522095   6.855   2.241   1.300 -1.5037 -0.5185  0.2206
  156MOL    C8622096   6.824   2.056   1.211  0.7826  0.4707  0.6361
  156MOL    C8722097   6.958   1.998   1.238  0.6999 -0.2022  0.6485
  156MOL    C8822098   6.984   1.990   1.380 -0.2401  0.2175 -0.1438
  156MOL    N8922099   7.004   1.988   1.495  0.1026  0.4426  0.6077
  156MOL    H9022100   6.757   2.021   1.290 -0.7842  0.2148 -0.7634
  156MOL    H9122101   6.788   2.012   1.117  3.1525  2.2636 -1.1776
  156MOL    H9222102   7.045   2.054   1.207 -0.2949  0.6989 -0.5765
  156MOL    C9322103   6.959   1.857   1.171  0.6125  0.2619 -0.6888
  156MOL    C9422104   7.091   1.787   1.171  0.1774  0.0046  0.1710
  156MOL    C9522105   7.071   1.645   1.175  0.4212 -0.0226 -0.1935
  156MOL    N9622106   7.054   1.531   1.180  0.3059 -0.0762  0.1549
  156MOL    H9722107   6.885   1.796   1.223 -0.6030  1.3808 -1.1046
  156MOL    H9822108   6.918   1.855   1.070 -1.8648  0.2811  0.2944
  156MOL    H9922109   7.150   1.797   1.261  2.1341 -1.9523 -0.8275
  156MOL   C10022110   7.175   1.821   1.045 -0.2166 -0.4006  0.3628
  156MOL   C10122111   7.314   1.760   1.027  0.2152  0.1264 -0.3511
  156MOL   C10222112   7.362   1.755   0.887  0.0099 -0.1661  0.5143
  156MOL   N10322113   7.393   1.750   0.778 -0.1690  0.0321  0.0467
  156MOL   H10422114   7.122   1.801   0.952  1.6209 -3.0149 -0.1639
  156MOL   H10522115   7.187   1.929   1.032  2.8997 -0.8956 -1.4143
  156MOL   H10622116   7.314   1.654   1.052  0.5016  0.0724 -0.5761
  156MOL   C10722117   7.416   1.833   1.118  0.1790 -0.2473  0.0253
  156MOL   C10822118   7.477   1.967   1.063  0.3855  0.3675  0.0876
  156MOL   C10922119   7.409   2.091   1.113 -0.5500  0.2367  0.8423
  156MOL   N11022120   7.356   2.191   1.149  0.3043  0.7634  0.3400
  156MOL   H11122121   7.385   1.846   1.221  2.1105 -2.8059  0.9556
  156MOL   H11222122   7.498   1.763   1.130  2.0186  1.5737 -1.4463
  156MOL   H11322123   7.452   1.968   0.957 -0.3819  1.7107  0.2658
  156MOL   C11422124   7.627   1.974   1.089 -1.1095  0.7941 -0.2223
  156MOL   C11522125   7.712   1.875   1.003  0.5861  0.1801 -0.3652
  156MOL   C11622126   7.735   1.951   0.875 -0.0281  0.3085 -0.0422
  156MOL   N11722127   7.756   2.009   0.777 -0.2586 -0.2467 -0.5149
  156MOL   H11822128   7.665   2.075   1.074 -1.0413  0.9186  0.7597
  156MOL   H11922129   7.646   1.965   1.196  2.2459 -0.0269 -0.8365
  156MOL   H12022130   7.652   1.791   0.970 -0.3472  1.0193 -0.8416
  156MOL   C12122131   7.849   1.843   1.080  0.2060  0.1551  0.3187
  156MOL   C12222132   7.857   1.743   1.203  0.7783  0.2886 -0.1119
  156MOL   C12322133   7.766   1.627   1.192  0.3227  0.2179  0.7013
  156MOL   N12422134   7.691   1.539   1.182 -0.5459  0.3253 -0.3308
  156MOL   H12522135   7.901   1.794   0.998  0.5846  1.0116  0.0549
  156MOL   H12622136   7.910   1.931   1.096  0.8295  0.0432 -1.3099
  156MOL   H12722137   7.835   1.803   1.292  0.8589 -0.9989  0.7916
  156MOL   C12822138   8.006   1.704   1.226 -0.9105 -0.3227 -0.1403
  156MOL   C12922139   8.051   1.627   1.352  0.1402  0.2773  0.0770
  156MOL   C13022140   7.986   1.495   1.364 -0.4285 -0.0688  0.2982
  156MOL   N13122141   7.938   1.390   1.375  0.3812  0.4179  0.1245
  156MOL   H13222142   8.032   1.638   1.143 -0.3771 -0.4302  0.1090
  156MOL   H13322143   8.063   1.796   1.218 -2.7275  0.8705  0.4055
  156MOL   H13422144   8.039   1.683   1.444 -0.8461  0.1272  0.0492
  156MOL   C13522145   8.207   1.608   1.358 -0.1074  0.0865  0.6878
  156MOL   C13622146   8.253   1.504   1.257  0.3041 -0.2771 -0.0366
  156MOL   C13722147   0.082   1.486   1.250 -0.6602  0.8406 -0.2323
  156MOL   N13822148   0.201   1.468   1.240 -0.4406 -0.2998  0.6525
  156MOL   H13922149   8.248   1.708   1.344 -0.2649 -0.4174 -3.8967
  156MOL   H14022150   8.225   1.570   1.459 -1.3938 -0.5188  0.7008
  156MOL   H14122151   8.234   1.537   1.155 -0.0724 -1.7891 -0.4750
  156MOL   H14222152   8.222   1.401   1.280 -1.9447  1.1365  3.8730
  157MOL     C122153   7.837   1.688   5.199  0.4059 -0.7851  0.5401
  157MOL     C222154   7.749   1.587   5.268 -0.1375  0.9990 -0.3223
  157MOL     C322155   7.610   1.614   5.244  0.3035 -0.6792  0.2928
  157MOL     N422156   7.498   1.633   5.227 -0.3454 -0.3226  0.5645
  157MOL     H522157   7.839   1.787   5.244  0.7733 -1.1781  1.4014
  157MOL     H622158   7.821   1.686   5.091 -0.5284  0.6947  0.6417
  157MOL     H722159   7.768   1.602   5.374 -0.4956  0.7392 -0.2218
  157MOL     H822160   7.943   1.663   5.206  0.5283 -1.0483 -1.9317
  157MOL     C922161   7.776   1.440   5.225 -0.6670  0.1561 -0.1055
  157MOL    C1022162   7.675   1.381   5.120 -0.0784 -0.6334 -0.2118
  157MOL    C1122163   7.665   1.461   4.994  0.3457  0.1720 -0.2743
  157MOL    N1222164   7.669   1.531   4.900  0.0665 -0.1264  0.2776
  157MOL    H1322165   7.880   1.414   5.203 -0.2178  1.1877  0.7413
  157MOL    H1422166   7.755   1.383   5.315 -2.5734 -0.0505 -0.6671
  157MOL    H1522167   7.572   1.389   5.155  0.0767  1.0880 -0.1103
  157MOL    C1622168   7.706   1.240   5.090 -0.3457  0.4793  0.2974
  157MOL    C1722169   7.595   1.138   5.051  0.1535  0.4069 -0.9626
  157MOL    C1822170   7.474   1.162   5.132  0.2976  0.0545  0.7252
  157MOL    N1922171   7.378   1.186   5.195  0.0772  0.9177 -0.1855
  157MOL    H2022172   7.782   1.234   5.012 -0.8718 -0.8377 -0.1361
  157MOL    H2122173   7.746   1.203   5.184  2.9495 -0.3764 -1.3617
  157MOL    H2222174   7.629   1.045   5.096 -0.7043 -0.1521 -1.4612
  157MOL    C2322175   7.562   1.121   4.904 -0.6195  0.1406 -0.8085
  157MOL    C2422176   7.664   1.027   4.832 -0.2500  0.0214 -0.0649
  157MOL    C2522177   7.666   0.893   4.894  0.7514  0.8373  0.2429
  157MOL    N2622178   7.666   0.792   4.948  0.4655 -0.2405 -0.1609
  157MOL    H2722179   7.464   1.074   4.897 -1.2241  1.1494  0.7890
  157MOL    H2822180   7.563   1.212   4.845 -0.7877  0.2778 -0.5965
  157MOL    H2922181   7.760   1.078   4.846 -0.9846  1.1529  0.8869
  157MOL    C3022182   7.646   1.032   4.678  0.2108  0.1654  0.9817
  157MOL    C3122183   7.768   0.983   4.594 -0.1031  0.2580  0.1842
  157MOL    C3222184   7.885   1.000   4.678  0.3641  0.0072 -0.6574
  157MOL    N3322185   7.979   1.001   4.747 -0.3314  0.1379  0.3354
  157MOL    H3422186   7.553   0.980   4.653  0.7423 -0.7891  0.9752
  157MOL    H3522187   7.618   1.133   4.646 -0.7917 -1.1736 -2.5945
  157MOL    H3622188   7.783   1.042   4.503  0.8335  0.8005  0.6793
  157MOL    C3722189   7.751   0.835   4.556 -0.1289 -0.1592 -0.2223
  157MOL    C3822190   7.869   0.761   4.481 -0.0798  0.3697 -0.0723
  157MOL    C3922191   7.917   0.826   4.357  0.2917  0.1069  0.2611
  157MOL    N4022192   7.959   0.868   4.260  0.4018 -0.3441  0.0662
  157MOL    H4122193   7.741   0.784   4.652  0.8404  0.2775  0.1137
  157MOL    H4222194   7.659   0.825   4.497  0.5191 -1.6941 -1.0071
  157MOL    H4322195   7.831   0.663   4.451  3.7173 -0.5295 -2.2764
  157MOL    C4422196   7.996   0.730   4.565  0.2494  0.0431 -0.1013
  157MOL    C4522197   8.066   0.610   4.497 -0.2081  0.2338 -0.5103
  157MOL    C4622198   8.206   0.617   4.528 -0.6581  0.1242 -0.0816
  157MOL    N4722199   0.005   0.622   4.553  0.4135  0.7965  0.4297
  157MOL    H4822200   8.067   0.813   4.570  1.1904 -0.8690  2.4859
  157MOL    H4922201   7.977   0.702   4.669  0.7893  0.3013  0.0660
  157MOL    H5022202   8.074   0.630   4.390  4.3315  0.7504 -0.1567
  157MOL    C5122203   7.999   0.478   4.533 -0.1319 -1.0419  0.6316
  157MOL    C5222204   7.995   0.367   4.415 -0.7606  0.4004  0.2134
  157MOL    C5322205   7.925   0.427   4.299 -0.1912 -0.1926 -0.1423
  157MOL    N5422206   7.870   0.462   4.208  0.2660  0.4311 -0.0559
  157MOL    H5522207   8.047   0.429   4.618  1.0576  2.1935  1.8640
  157MOL    H5622208   7.894   0.495   4.557 -0.7361  0.9925 -3.1620
  157MOL    H5722209   7.931   0.282   4.437  2.1252 -1.6363  1.0164
  157MOL    C5822210   8.137   0.319   4.376 -0.0982  0.2063  0.4170
  157MOL    C5922211   8.207   0.201   4.443  0.7953  0.9997 -0.2478
  157MOL    C6022212   8.126   0.076   4.459  0.1423 -0.8220  0.2680
  157MOL    N6122213   8.069   8.289   4.461 -0.0862 -0.4207 -0.0999
  157MOL    H6222214   8.131   0.298   4.269  0.4447  1.7623  0.0640
  157MOL    H6322215   8.195   0.410   4.387 -1.2301  0.9018  0.7016
  157MOL    H6422216   8.214   0.237   4.545 -1.3927  1.7477 -0.3412
  157MOL    C6522217   0.035   0.176   4.395 -0.1175 -0.1512  0.1495
  157MOL    C6622218   0.127   0.077   4.474  0.4931 -0.4926  0.5694
  157MOL    C6722219   0.247   0.048   4.395  0.2260 -0.2648  0.7007
  157MOL    N6822220   0.341   0.023   4.337  0.1503  0.2323  0.0407
  157MOL    H6922221   0.022   0.139   4.293  0.6333 -1.3878  0.4825
  157MOL    H7022222   0.093   0.268   4.386  0.7036 -0.3633  2.9019
  157MOL    H7122223   0.068   8.298   4.483  0.4032 -0.6982 -1.7751
  157MOL    C7222224   0.167   0.117   4.620  0.9420 -0.0573  0.2056
  157MOL    C7322225   0.304   0.186   4.637 -0.2571  0.3584  0.8193
  157MOL    C7422226   0.315   0.292   4.537 -0.2684 -0.8051  0.1284
  157MOL    N7522227   0.321   0.377   4.460  0.6463  0.2586  1.0637
  157MOL    H7622228   0.088   0.188   4.646 -0.0102 -0.9631 -0.1604
  157MOL    H7722229   0.156   0.028   4.682  0.1069 -0.6217 -0.7397
  157MOL    H7822230   0.393   0.127   4.611 -0.1781  0.7530  0.1833
  157MOL    C7922231   0.309   0.246   4.784  0.0996 -0.0623  0.0186
  157MOL    C8022232   0.302   0.137   4.893 -0.2296 -0.3394  0.7258
  157MOL    C8122233   0.415   0.041   4.869  0.8831  0.1657  0.1753
  157MOL    N8222234   0.506   8.282   4.851  0.3003  0.1551  0.2551
  157MOL    H8322235   0.407   0.292   4.799 -0.3759 -0.2573  4.2284
  157MOL    H8422236   0.247   0.333   4.804 -0.6318 -0.5194 -0.2612
  157MOL    H8522237   0.202   0.096   4.880 -0.5963  0.3744  1.2357
  157MOL    C8622238   0.306   0.205   5.030 -0.1893 -0.0895  0.1755
  157MOL    C8722239   0.265   0.109   5.146  0.6764 -0.0563 -0.6253
  157MOL    C8822240   0.376   0.008   5.168 -0.2686  0.9784  0.0655
  157MOL    N8922241   0.462   8.242   5.188 -0.2738 -0.3645 -0.6134
  157MOL    H9022242   0.403   0.244   5.061 -0.5270 -0.6907  2.0692
  157MOL    H9122243   0.236   0.289   5.031  0.0685  0.1284 -0.0759
  157MOL    H9222244   0.180   0.048   5.116  2.0960 -2.6912  0.4919
  157MOL    C9322245   0.261   0.182   5.282  0.4586 -0.8776  0.2427
  157MOL    C9422246   0.129   0.173   5.362 -0.5676 -0.3041  0.4828
  157MOL    C9522247   0.144   0.065   5.459  0.3027  0.2943 -0.7111
  157MOL    N9622248   0.155   8.291   5.536 -0.7948  0.7704 -0.6360
  157MOL    H9722249   0.337   0.137   5.346  0.3788 -1.4967 -0.0913
  157MOL    H9822250   0.302   0.283   5.278  0.7891 -1.0006  0.4579
  157MOL    H9922251   0.048   0.134   5.301 -1.1188  1.6799 -0.0873
  157MOL   C10022252   0.085   0.313   5.424  0.2283  0.2756  0.7064
  157MOL   C10122253   0.055   0.420   5.309 -0.2967  0.3397  0.6319
  157MOL   C10222254   8.246   0.369   5.243  0.1384 -0.1528  0.0761
  157MOL   N10322255   8.153   0.325   5.188  0.5051  0.0253 -0.7086
  157MOL   H10422256   8.312   0.298   5.489  0.4133  0.8091  1.0730
  157MOL   H10522257   0.158   0.362   5.488 -0.6272  3.2466 -0.4706
  157MOL   H10622258   0.133   0.418   5.233 -2.8411  0.1997 -2.0664
  157MOL   C10722259   0.052   0.566   5.359 -0.4542 -0.3063 -0.5429
  157MOL   C10822260   0.185   0.632   5.402  0.8645 -0.8710  0.3787
  157MOL   C10922261   0.294   0.609   5.305 -0.5212 -0.4129 -0.5687
  157MOL   N11022262   0.386   0.587   5.237  0.9036  0.4188  0.2538
  157MOL   H11122263   0.004   0.629   5.284  0.8795 -0.6126 -1.6925
  157MOL   H11222264   8.303   0.563   5.449  2.0295  0.8047  1.2353
  157MOL   H11322265   0.227   0.589   5.492 -0.7448  0.6681  1.9251
  157MOL   C11422266   0.162   0.785   5.422  0.0271  0.0081 -0.3791
  157MOL   C11522267   0.085   0.821   5.555  0.1931  0.0621 -0.1046
  157MOL   C11622268   0.128   0.751   5.678 -0.8094  0.5895 -0.4582
  157MOL   N11722269   0.161   0.700   5.778  0.4011  0.5457 -0.5025
  157MOL   H11822270   0.261   0.831   5.428  0.0531 -0.1212  0.2913
  157MOL   H11922271   0.109   0.825   5.336 -0.9241  0.8646  0.5937
  157MOL   H12022272   8.293   0.791   5.543  0.2447  0.2705 -1.0650
  157MOL   C12122273   0.084   0.973   5.584  0.9339 -0.1840  0.5930
  157MOL   C12222274   0.004   1.035   5.706  0.0154  0.2813  0.2670
  157MOL   C12322275   0.020   1.181   5.697 -0.0815  0.8360 -0.1230
  157MOL   N12422276   0.026   1.293   5.683 -1.0200 -0.1434  0.0524
  157MOL   H12522277   0.189   0.996   5.600  0.8755  0.6847 -0.2299
  157MOL   H12622278   0.056   1.025   5.492  0.2615 -1.2865  0.1519
  157MOL   H12722279   0.057   1.017   5.800 -0.7367  1.2561  0.8896
  157MOL   C12822280   8.173   0.974   5.726  0.4950  0.3362 -0.1574
  157MOL   C12922281   8.057   1.002   5.636 -0.0539  0.6483 -0.2410
  157MOL   C13022282   8.100   1.006   5.495 -0.5172 -0.1634 -0.6792
  157MOL   N13122283   8.128   1.007   5.384 -0.1441  0.5625 -0.1199
  157MOL   H13222284   8.180   0.868   5.750  0.7898  0.4653  0.3180
  157MOL   H13322285   8.140   1.017   5.821  0.7098  1.1763 -0.4552
  157MOL   H13422286   8.032   1.108   5.646 -0.7656  0.5224 -0.6027
  157MOL   C13522287   7.940   0.891   5.641 -0.1102  0.1754  0.0370
  157MOL   C13622288   7.819   0.913   5.554  0.1290  0.5673  0.3016
  157MOL   C13722289   7.792   1.054   5.537  0.0236  0.4580 -0.8081
  157MOL   N13822290   7.768   1.164   5.525 -0.2837  0.0008 -0.1955
  157MOL   H13922291   7.972   0.787   5.643 -0.6007  0.0106 -0.6421
  157MOL   H14022292   7.903   0.895   5.744  4.4020 -0.6273  1.8065
  157MOL   H14122293   7.730   0.864   5.594 -0.0895 -0.5857 -1.5504
  157MOL   H14222294   7.834   0.870   5.455 -3.6724 -1.3376  0.4726
  158MOL     C122295   4.452   2.790   2.727 -0.2281 -0.5838 -0.1503
  158MOL     C222296   4.379   2.918   2.698  0.0413  0.0086  0.4349
  158MOL     C322297   4.369   3.007   2.819 -0.5680  0.0418  0.0198
  158MOL     N422298   4.358   3.080   2.910  0.0058 -0.1237 -0.2797
  158MOL     H522299   4.419   2.732   2.814 -1.8912  0.8576  0.1982
  158MOL     H622300   4.556   2.812   2.750 -0.3879 -1.6827  1.7180
  158MOL     H722301   4.278   2.888   2.674  0.0916  1.0059 -1.1324
  158MOL     H822302   4.465   2.733   2.635  0.6829 -1.4487  0.4964
  158MOL     C922303   4.424   2.991   2.562  0.4079  0.3873 -0.2073
  158MOL    C1022304   4.394   2.935   2.429  0.4022  0.2498 -0.2228
  158MOL    C1122305   4.272   2.856   2.418  0.4757 -0.1695 -0.8617
  158MOL    N1222306   4.178   2.794   2.407  0.1692  0.4910 -0.1536
  158MOL    H1322307   4.363   3.081   2.569 -2.5286 -1.5544  0.2153
  158MOL    H1422308   4.528   3.024   2.562  0.3658  0.5949  1.7159
  158MOL    H1522309   4.472   2.864   2.401 -0.0469 -0.5153  0.4271
  158MOL    C1622310   4.400   3.036   2.311 -0.8108  0.1219 -0.6194
  158MOL    C1722311   4.354   2.999   2.164 -0.0852 -0.1169 -0.4878
  158MOL    C1822312   4.408   2.868   2.125 -0.6150 -0.2470 -0.0159
  158MOL    N1922313   4.456   2.767   2.094  0.0338 -0.2513  0.3118
  158MOL    H2022314   4.351   3.129   2.340 -0.9467 -0.0747 -0.2185
  158MOL    H2122315   4.508   3.054   2.312 -0.6924 -0.5441 -1.3438
  158MOL    H2222316   4.410   3.074   2.107 -1.9080  0.9478 -0.8924
  158MOL    C2322317   4.205   3.025   2.133  0.2942 -0.6142  0.5522
  158MOL    C2422318   4.159   3.030   1.984  0.3507 -0.3272  0.0184
  158MOL    C2522319   4.197   2.910   1.906 -0.0504  0.3391  0.7460
  158MOL    N2622320   4.224   2.815   1.844  0.1991  0.4771  0.2412
  158MOL    H2722321   4.143   2.950   2.181 -0.3879 -0.9796 -0.8634
  158MOL    H2822322   4.170   3.123   2.165  0.2942 -0.5640  0.4002
  158MOL    H2922323   4.231   3.099   1.941  1.7463 -2.1433 -0.5819
  158MOL    C3022324   4.008   3.068   1.952 -0.2948 -0.3359 -0.6540
  158MOL    C3122325   3.989   3.156   1.827 -0.3140  0.5185  0.0240
  158MOL    C3222326   3.857   3.128   1.768  0.3423  0.0760  0.7117
  158MOL    N3322327   3.752   3.106   1.714 -0.3187  0.1754  0.9992
  158MOL    H3422328   3.962   2.969   1.944 -0.2450 -0.3933 -0.2699
  158MOL    H3522329   3.973   3.125   2.038 -1.4220  0.6564 -1.7570
  158MOL    H3622330   4.060   3.116   1.755  0.1633 -0.9755  1.3046
  158MOL    C3722331   4.028   3.305   1.863 -0.1366 -0.0095  0.0390
  158MOL    C3822332   3.961   3.408   1.768 -0.0642  0.6742  0.3992
  158MOL    C3922333   3.900   3.514   1.847 -0.2900  0.5640 -0.2598
  158MOL    N4022334   3.851   3.597   1.913  0.5095 -0.3986 -0.0337
  158MOL    H4122335   3.995   3.330   1.964 -1.1246 -0.9245 -0.0511
  158MOL    H4222336   4.135   3.328   1.869  0.0631 -0.7324 -0.7534
  158MOL    H4322337   3.873   3.372   1.715 -1.3027  2.6819  1.0109
  158MOL    C4422338   4.061   3.454   1.663 -0.3177  0.0734  0.3115
  158MOL    C4522339   4.021   3.564   1.573 -0.1847 -0.3004 -0.6343
  158MOL    C4622340   4.016   3.702   1.645 -0.4141  0.0341  0.5073
  158MOL    N4722341   4.014   3.807   1.692  0.6085 -0.2656 -0.6783
  158MOL    H4822342   4.158   3.482   1.702 -0.1970  0.6659 -0.3987
  158MOL    H4922343   4.070   3.366   1.599  1.9105  0.4178  0.1021
  158MOL    H5022344   3.925   3.541   1.527  0.2093 -2.2759 -0.5214
  158MOL    C5122345   4.112   3.574   1.447 -0.2795  0.1327  0.4725
  158MOL    C5222346   4.061   3.681   1.353  0.0984 -0.7018 -0.4021
  158MOL    C5322347   4.096   3.824   1.395 -0.1818  0.1264  0.0531
  158MOL    N5422348   4.128   3.931   1.421 -0.0894 -0.0036  0.5612
  158MOL    H5522349   4.216   3.586   1.478 -0.2314  1.7215 -0.3024
  158MOL    H5622350   4.115   3.474   1.404  0.7357  0.3818 -0.0380
  158MOL    H5722351   3.952   3.681   1.351  0.0738  0.6253  0.1108
  158MOL    C5822352   4.117   3.653   1.211 -0.7921 -0.2025 -0.4394
  158MOL    C5922353   4.047   3.534   1.137 -0.1396 -0.1695 -0.7551
  158MOL    C6022354   3.900   3.534   1.138 -0.2732  0.5695  0.5457
  158MOL    N6122355   3.784   3.540   1.134 -0.3455 -0.7143 -0.1132
  158MOL    H6222356   4.103   3.747   1.158 -1.0602  0.3082  0.5245
  158MOL    H6322357   4.222   3.626   1.220 -0.7459  0.8619  2.6147
  158MOL    H6422358   4.066   3.440   1.190 -0.2052  0.0488 -0.3439
  158MOL    C6522359   4.105   3.505   0.995  0.2203  0.0552 -0.0317
  158MOL    C6622360   4.098   3.620   0.900  0.1053  0.4329  0.1929
  158MOL    C6722361   4.188   3.605   0.791  0.8030  0.2313  0.6850
  158MOL    N6822362   4.254   3.584   0.701  0.0531  0.3340  0.2131
  158MOL    H6922363   4.210   3.476   1.001  0.1633 -0.0970  0.2643
  158MOL    H7022364   4.063   3.413   0.956 -1.5336  0.4634  0.8157
  158MOL    H7122365   4.141   3.708   0.948  0.2349  0.9727 -0.8966
  158MOL    C7222366   3.953   3.657   0.854 -0.7742  0.6405  0.3217
  158MOL    C7322367   3.938   3.730   0.720  0.6828  0.1742  0.7348
  158MOL    C7422368   3.939   3.643   0.608  0.2982 -0.2710  1.4164
  158MOL    N7522369   3.946   3.568   0.521  0.1363 -0.2328  0.1643
  158MOL    H7622370   3.899   3.562   0.851 -0.0911  0.2817 -1.3736
  158MOL    H7722371   3.901   3.699   0.939 -0.9461  0.7917  0.1414
  158MOL    H7822372   4.016   3.803   0.702  0.8850  0.1978  1.6923
  158MOL    C7922373   3.806   3.811   0.725 -0.4139  0.1438 -0.0156
  158MOL    C8022374   3.828   3.949   0.778  0.5754 -0.3114  0.6099
  158MOL    C8122375   3.931   4.030   0.703  0.2273  0.3558  0.3998
  158MOL    N8222376   4.005   4.091   0.643  0.0553 -0.2010  0.3856
  158MOL    H8322377   3.755   3.813   0.629 -0.5345 -0.4000  0.0372
  158MOL    H8422378   3.738   3.759   0.793 -1.6147  1.2701 -0.3245
  158MOL    H8522379   3.893   3.928   0.863  1.3719 -0.5713 -0.0540
  158MOL    C8622380   3.700   4.036   0.810 -0.0612  0.2920 -0.0713
  158MOL    C8722381   3.644   4.119   0.694  0.3508 -0.0570  0.5566
  158MOL    C8822382   3.711   4.248   0.696  0.2459  0.4465 -0.1366
  158MOL    N8922383   3.766   4.348   0.697 -0.3690 -0.3896 -0.3506
  158MOL    H9022384   3.625   3.967   0.851  0.0170 -0.2931 -0.8979
  158MOL    H9122385   3.730   4.097   0.895 -1.3967 -0.0228  0.6348
  158MOL    H9222386   3.544   4.152   0.722 -0.3816 -0.8364 -1.0397
  158MOL    C9322387   3.645   4.058   0.551 -0.1110  0.6025 -0.1652
  158MOL    C9422388   3.575   4.123   0.430  0.6050  0.5928  0.2389
  158MOL    C9522389   3.425   4.132   0.457  0.0587 -0.0603  0.4123
  158MOL    N9622390   3.309   4.133   0.471  0.0331  0.1519  0.0590
  158MOL    H9722391   3.748   4.039   0.518 -0.7774  1.3898 -2.8452
  158MOL    H9822392   3.600   3.961   0.573  1.1329  0.2446  0.8724
  158MOL    H9922393   3.576   4.059   0.342  0.8343  0.8084  0.0856
  158MOL   C10022394   3.637   4.254   0.377  0.7206 -0.1318 -0.1808
  158MOL   C10122395   3.621   4.284   0.225  0.3569  0.5036 -0.3512
  158MOL   C10222396   3.479   4.291   0.177 -0.0705  0.2607  0.6542
  158MOL   N10322397   3.371   4.307   0.141 -0.0852 -0.2651 -0.8868
  158MOL   H10422398   3.603   4.334   0.442  0.4305  1.2988 -2.0567
  158MOL   H10522399   3.743   4.245   0.397  0.9933 -2.2775 -2.3140
  158MOL   H10622400   3.657   4.200   0.165 -0.2059 -0.6576  0.8999
  158MOL   C10722401   3.703   4.406   0.178  0.1816 -0.9421 -0.7467
  158MOL   C10822402   3.719   4.442   0.029 -0.5506 -1.3811 -0.2300
  158MOL   C10922403   3.589   4.489   8.289  0.3151  0.3846  0.1929
  158MOL   N11022404   3.486   4.517   8.248 -0.1525 -0.2621 -0.3831
  158MOL   H11122405   3.658   4.499   0.212 -0.2277 -1.1350 -0.7500
  158MOL   H11222406   3.802   4.396   0.221  0.1166  0.2632 -0.3271
  158MOL   H11322407   3.742   4.351   8.285 -2.0690 -1.3011 -1.0071
  158MOL   C11422408   3.834   4.543   0.002 -0.1097 -0.1247 -0.3967
  158MOL   C11522409   3.895   4.539   8.174 -0.9388  0.3075  0.6335
  158MOL   C11622410   3.802   4.521   8.064  0.3492  0.3112 -0.0839
  158MOL   N11722411   3.723   4.512   7.978 -0.5070  0.0401  0.6353
  158MOL   H11822412   3.793   4.642   0.022 -2.3027 -1.1295  0.2214
  158MOL   H11922413   3.910   4.513   0.074 -0.1356 -1.9493 -1.1111
  158MOL   H12022414   3.968   4.458   8.171 -1.2739  0.0323 -0.2008
  158MOL   C12122415   3.975   4.676   8.148 -0.7017  0.2353 -0.3057
  158MOL   C12222416   4.046   4.701   8.012 -0.2125  0.3702 -0.1067
  158MOL   C12322417   4.108   4.834   8.006 -0.6869 -0.2495  0.0669
  158MOL   N12422418   4.154   4.941   8.014 -0.1977 -0.1271 -0.3664
  158MOL   H12522419   3.912   4.760   8.178  0.9448  1.4950 -0.2956
  158MOL   H12622420   4.056   4.679   8.221 -2.0297  0.5504  1.1961
  158MOL   H12722421   3.971   4.701   7.933 -1.4697  0.0411  1.0663
  158MOL   C12822422   4.140   4.590   7.975 -0.3294  0.6258 -0.0587
  158MOL   C12922423   4.224   4.610   7.843 -0.2117 -0.0230  0.5307
  158MOL   C13022424   4.358   4.676   7.873  0.0202  0.3233 -0.3814
  158MOL   N13122425   4.462   4.722   7.894  0.5083  0.4716  0.1404
  158MOL   H13222426   4.204   4.559   8.058  0.5815 -1.7638 -1.5939
  158MOL   H13322427   4.070   4.507   7.965 -0.2516  0.5264  0.2071
  158MOL   H13422428   4.175   4.674   7.770 -1.6842 -2.1659 -0.4321
  158MOL   C13522429   4.237   4.483   7.772  0.0083 -0.4516  0.0156
  158MOL   C13622430   4.350   4.493   7.669 -0.2621 -0.5149 -0.5383
  158MOL   C13722431   4.342   4.401   7.553  0.4903 -0.6186  0.3028
  158MOL   N13822432   4.329   4.325   7.463  0.3963 -0.6788 -0.2643
  158MOL   H13922433   4.255   4.399   7.841  0.0492 -2.4951 -2.4063
  158MOL   H14022434   4.143   4.464   7.721 -0.8956 -0.6851  1.7399
  158MOL   H14122435   4.446   4.487   7.721 -0.7582 -1.1505  0.3189
  158MOL   H14222436   4.339   4.597   7.637 -0.5315 -0.3702  0.0245
  159MOL     C122437   4.396   4.789   6.042  0.5800 -0.1226  0.0061
  159MOL     C222438   4.314   4.771   5.917 -0.2793 -0.4734  0.8299
  159MOL     C322439   4.345   4.865   5.807 -0.2220 -0.3405 -0.3268
  159MOL     N422440   4.368   4.945   5.728 -0.1201 -0.1159 -0.3229
  159MOL     H522441   4.349   4.745   6.129 -0.4616  4.3584  1.8272
  159MOL     H622442   4.405   4.896   6.059  0.1519  0.1406 -1.3360
  159MOL     H722443   4.210   4.793   5.943 -0.6355  0.2376 -1.0925
  159MOL     H822444   4.498   4.752   6.026  1.2059  1.1589  0.9350
  159MOL     C922445   4.314   4.621   5.870 -0.1404  0.5681  0.0291
  159MOL    C1022446   4.199   4.577   5.775 -0.5280 -0.0471 -0.2903
  159MOL    C1122447   4.068   4.595   5.825 -0.0666  1.0412  0.1084
  159MOL    N1222448   3.960   4.605   5.865 -0.2113  0.2546 -0.2020
  159MOL    H1322449   4.406   4.610   5.812  1.2615  0.1649  2.2535
  159MOL    H1422450   4.314   4.553   5.955 -2.3575 -0.7352 -0.9882
  159MOL    H1522451   4.215   4.472   5.753 -1.6939  0.0603 -1.7676
  159MOL    C1622452   4.227   4.638   5.637  0.0481 -0.0345 -0.5279
  159MOL    C1722453   4.143   4.587   5.514 -0.5647  0.0753 -0.2849
  159MOL    C1822454   3.998   4.613   5.519  0.7226  0.0164  0.7627
  159MOL    N1922455   3.883   4.638   5.522 -0.1585  0.0959  1.1511
  159MOL    H2022456   4.206   4.745   5.633  0.3218  0.0216 -0.4723
  159MOL    H2122457   4.330   4.621   5.606  0.2499 -1.1092  0.7084
  159MOL    H2222458   4.140   4.479   5.504 -0.5653  0.1421 -1.0210
  159MOL    C2322459   4.206   4.643   5.376 -0.0241  0.0576 -0.6536
  159MOL    C2422460   4.107   4.634   5.255  0.4403  0.3454 -0.3302
  159MOL    C2522461   4.162   4.708   5.142 -0.2914 -0.8643  0.2308
  159MOL    N2622462   4.203   4.767   5.052 -0.3092 -0.5862  0.7762
  159MOL    H2722463   4.225   4.750   5.388 -0.1651 -0.0746  0.7373
  159MOL    H2822464   4.298   4.590   5.352 -0.4123 -0.3821 -1.1883
  159MOL    H2922465   4.008   4.672   5.282 -0.4359 -0.7019 -1.9445
  159MOL    C3022466   4.070   4.486   5.212  1.4315 -0.5584 -0.4477
  159MOL    C3122467   3.931   4.458   5.139  1.2304 -0.0627  0.1282
  159MOL    C3222468   3.897   4.570   5.053 -0.2348  0.4965  0.0613
  159MOL    N3322469   3.874   4.661   4.982 -0.4654  0.7771  0.3047
  159MOL    H3422470   4.144   4.465   5.135 -0.6190 -0.9723 -2.3674
  159MOL    H3522471   4.077   4.413   5.293  1.0169  0.2582  0.3303
  159MOL    H3622472   3.853   4.440   5.213  0.2287  2.5967 -0.2441
  159MOL    C3722473   3.925   4.325   5.061  0.1803 -0.0057 -0.4104
  159MOL    C3822474   3.785   4.294   4.993 -0.6863  0.3356 -0.9087
  159MOL    C3922475   3.676   4.353   5.078  0.8792  0.3048 -0.2873
  159MOL    N4022476   3.593   4.397   5.146  0.1617 -0.1623 -0.3571
  159MOL    H4122477   3.993   4.322   4.975  0.3291 -2.6239 -0.2418
  159MOL    H4222478   3.953   4.241   5.123  0.6774 -0.8584 -1.7622
  159MOL    H4322479   3.752   4.190   4.987  0.6130  0.0145 -2.7839
  159MOL    C4422480   3.770   4.331   4.842 -0.4876  0.1083  0.3462
  159MOL    C4522481   3.805   4.226   4.734 -0.4141 -0.6792  0.6284
  159MOL    C4622482   3.768   4.270   4.595  0.5375 -0.3272 -0.3761
  159MOL    N4722483   3.735   4.302   4.486  0.1855 -0.1023 -1.0321
  159MOL    H4822484   3.665   4.356   4.829 -0.5349  0.6601  1.6673
  159MOL    H4922485   3.824   4.419   4.806 -0.6048 -0.7622 -2.0625
  159MOL    H5022486   3.740   4.139   4.740  0.4906 -1.4505 -0.4144
  159MOL    C5122487   3.945   4.165   4.752  0.6404  0.3263  0.2405
  159MOL    C5222488   3.988   4.063   4.643 -0.1352  0.1298  0.6784
  159MOL    C5322489   4.027   4.135   4.517  0.5396 -0.6317  0.3102
  159MOL    N5422490   4.054   4.197   4.426 -0.0090  0.5326  0.3883
  159MOL    H5522491   4.017   4.246   4.757  1.8433 -0.8606  3.8124
  159MOL    H5622492   3.951   4.122   4.852 -0.3106  0.1127  0.2083
  159MOL    H5722493   3.911   3.988   4.625  3.4949 -3.7600  0.5981
  159MOL    C5822494   4.115   3.977   4.670 -0.0301  0.1549 -0.3285
  159MOL    C5922495   4.164   3.881   4.562  0.5941  0.0326  1.1016
  159MOL    C6022496   4.288   3.806   4.590 -0.2309  0.5912 -0.3565
  159MOL    N6122497   4.385   3.746   4.615 -0.0779 -0.0949 -0.0942
  159MOL    H6222498   4.194   4.049   4.688  0.8196 -0.4707 -1.5006
  159MOL    H6322499   4.108   3.925   4.766 -1.2538  2.7436  1.0217
  159MOL    H6422500   4.191   3.948   4.481 -1.7930  2.2210  2.0591
  159MOL    C6522501   4.061   3.784   4.503  0.1981 -0.6638 -0.3723
  159MOL    C6622502   4.051   3.647   4.560 -0.4823  0.0152  0.2622
  159MOL    C6722503   4.044   3.647   4.705  0.3543 -1.1539 -0.2906
  159MOL    N6822504   4.032   3.650   4.819 -0.0287 -0.3675 -0.3708
  159MOL    H6922505   3.963   3.830   4.494  0.7543  1.0283  1.8189
  159MOL    H7022506   4.086   3.753   4.401 -0.3937 -0.7706 -0.4857
  159MOL    H7122507   4.144   3.591   4.549  0.4755  1.1993  2.1070
  159MOL    C7222508   3.939   3.555   4.498 -0.2381 -0.1430  0.0525
  159MOL    C7322509   3.956   3.519   4.352 -0.2767  0.5433  0.4131
  159MOL    C7422510   4.095   3.483   4.311  0.2927  0.2804  0.3126
  159MOL    N7522511   4.201   3.456   4.270 -0.4507 -0.5808  0.5186
  159MOL    H7622512   3.928   3.459   4.548  0.9855 -0.7900 -0.8835
  159MOL    H7722513   3.842   3.602   4.513 -0.0219 -0.1211  1.4439
  159MOL    H7822514   3.934   3.607   4.293 -0.5654  0.4331  0.3542
  159MOL    C7922515   3.860   3.404   4.311 -0.1854 -0.6783 -0.2280
  159MOL    C8022516   3.710   3.426   4.348 -0.7331  0.3764 -0.4188
  159MOL    C8122517   3.663   3.559   4.307 -0.7772  0.0658  0.6343
  159MOL    N8222518   3.626   3.666   4.289 -0.4354 -0.3163  0.4126
  159MOL    H8322519   3.868   3.402   4.202  1.2338  2.0360 -0.2165
  159MOL    H8422520   3.883   3.303   4.347  0.0403 -1.8244 -3.3723
  159MOL    H8522521   3.693   3.424   4.455 -1.5600 -0.9081 -0.5605
  159MOL    C8622522   3.612   3.321   4.302 -0.3102 -0.0845  0.4195
  159MOL    C8722523   3.616   3.189   4.382 -0.0337 -0.4592  0.4231
  159MOL    C8822524   3.549   3.205   4.515 -0.5583 -0.5688  0.2673
  159MOL    N8922525   3.494   3.222   4.615  0.3994  0.0202  0.1473
  159MOL    H9022526   3.519   3.374   4.321 -0.2130  0.9338 -1.8440
  159MOL    H9122527   3.622   3.306   4.195  1.4369 -0.9559  0.6781
  159MOL    H9222528   3.718   3.169   4.415 -0.3114 -0.9445  0.9944
  159MOL    C9322529   3.561   3.070   4.304 -0.4449 -0.1531 -0.1218
  159MOL    C9422530   3.641   3.048   4.170 -0.5703  0.0182  0.2550
  159MOL    C9522531   3.787   3.042   4.191  0.8751  0.1300  0.0018
  159MOL    N9622532   3.900   3.039   4.209  0.0828 -0.0868  0.0740
  159MOL    H9722533   3.566   2.975   4.358  0.1670  0.1473  0.3571
  159MOL    H9822534   3.457   3.074   4.274 -0.7352 -2.8670  0.3412
  159MOL    H9922535   3.622   3.123   4.093  1.2000 -0.3918 -0.6188
  159MOL   C10022536   3.575   2.931   4.095  0.0298  0.1078  0.1137
  159MOL   C10122537   3.627   2.914   3.948  0.0145  0.0837 -0.4156
  159MOL   C10222538   3.597   2.776   3.908 -0.1693 -0.5455 -0.5305
  159MOL   N10322539   3.575   2.668   3.879 -0.0262 -0.5324 -0.3607
  159MOL   H10422540   3.567   2.836   4.147 -1.0659  0.0258 -0.1882
  159MOL   H10522541   3.469   2.956   4.086 -0.8033 -2.4974  1.9625
  159MOL   H10622542   3.736   2.921   3.951  0.1222 -1.8425  2.1226
  159MOL   C10722543   3.582   3.030   3.846  0.3293  0.1496  0.1125
  159MOL   C10822544   3.608   3.005   3.701  0.3712 -0.2513  0.6849
  159MOL   C10922545   3.751   2.973   3.681 -0.0727  0.1478  0.4151
  159MOL   N11022546   3.860   2.948   3.655 -0.1971  0.3097 -0.1544
  159MOL   H11122547   3.484   3.073   3.865  0.7637  2.0692 -1.7593
  159MOL   H11222548   3.648   3.112   3.875  1.8297 -1.5453  1.6408
  159MOL   H11322549   3.595   3.102   3.653  0.8719 -0.6026 -0.1829
  159MOL   C11422550   3.513   2.908   3.630  0.0224 -0.4349 -0.0474
  159MOL   C11522551   3.486   2.945   3.475 -0.3229 -0.2263  0.4098
  159MOL   C11622552   3.610   2.979   3.399 -0.0622 -0.9430 -0.7798
  159MOL   N11722553   3.705   3.004   3.340 -0.1715 -0.0610 -0.3415
  159MOL   H11822554   3.555   2.807   3.636 -0.0292 -0.4909 -0.5811
  159MOL   H11922555   3.420   2.905   3.686  0.5503 -0.5058  0.8427
  159MOL   H12022556   3.426   3.035   3.464 -0.1018 -0.0745  0.4423
  159MOL   C12122557   3.424   2.831   3.397 -0.2282  0.3222  0.5018
  159MOL   C12222558   3.285   2.786   3.450 -0.5653  0.0205  0.2148
  159MOL   C12322559   3.209   2.906   3.479 -0.1465 -0.2920  0.2154
  159MOL   N12422560   3.151   3.005   3.499  0.1609  0.4316 -0.0499
  159MOL   H12522561   3.412   2.863   3.294  1.3095  0.8406  0.4755
  159MOL   H12622562   3.489   2.745   3.417 -0.6854  0.4036  2.5096
  159MOL   H12722563   3.301   2.731   3.543 -2.9483  1.3038  1.4300
  159MOL   C12822564   3.207   2.695   3.359 -0.4787  0.2328 -0.0383
  159MOL   C12922565   3.268   2.557   3.338 -0.1172 -0.1529 -0.0145
  159MOL   C13022566   3.300   2.497   3.468  0.5110 -0.1497 -0.7490
  159MOL   N13122567   3.316   2.443   3.570  0.0192  0.5247 -1.0280
  159MOL   H13222568   3.114   2.667   3.409  0.1882 -1.7198  0.1708
  159MOL   H13322569   3.179   2.747   3.268 -0.0472  0.9921  0.2547
  159MOL   H13422570   3.364   2.584   3.294  0.7202 -0.5318  1.5375
  159MOL   C13522571   3.181   2.471   3.253 -0.4164  0.2000  0.0826
  159MOL   C13622572   3.219   2.325   3.233  0.3962 -0.1683  0.2028
  159MOL   C13722573   3.171   2.240   3.343  0.5874  0.0709  0.4751
  159MOL   N13822574   3.135   2.175   3.428 -0.0590  0.4969  0.0174
  159MOL   H13922575   3.079   2.482   3.289 -0.0605 -0.9627  1.5052
  159MOL   H14022576   3.177   2.520   3.156  0.3645 -0.5002 -0.3180
  159MOL   H14122577   3.326   2.303   3.242  0.6549  0.7212 -0.5511
  159MOL   H14222578   3.187   2.273   3.142  1.0844 -1.4461  0.6683
  160MOL     C122579   0.759   7.041   4.049  0.2275 -0.2703  0.0311
  160MOL     C222580   0.904   7.008   4.064 -0.3610  0.5990  0.1735
  160MOL     C322581   0.990   7.129   4.072  0.0716 -0.1629 -0.0571
  160MOL     N422582   1.055   7.222   4.070 -0.3259  0.3027 -0.0099
  160MOL     H522583   0.731   7.119   4.120 -2.2412 -2.8771  2.0353
  160MOL     H622584   0.695   6.955   4.070 -1.5840  1.3975  1.4839
  160MOL     H722585   0.936   6.949   3.978  0.5166  0.0639  0.8646
  160MOL     H822586   0.736   7.086   3.952 -1.5257 -0.3736  0.3787
  160MOL     C922587   0.935   6.907   4.175 -0.0741  0.2908  0.0646
  160MOL    C1022588   1.090   6.887   4.180 -0.4150 -0.3700 -0.2790
  160MOL    C1122589   1.154   6.986   4.268 -1.0554 -0.0296 -0.2053
  160MOL    N1222590   1.207   7.063   4.337 -0.3535 -0.4499  0.4564
  160MOL    H1322591   0.898   6.956   4.265 -0.3728  1.6656 -0.7819
  160MOL    H1422592   0.873   6.822   4.147  1.3406 -0.8495  0.3193
  160MOL    H1522593   1.137   6.890   4.081  1.6509 -0.5525  0.6554
  160MOL    C1622594   1.135   6.744   4.203  0.1264  0.2591 -0.1559
  160MOL    C1722595   1.286   6.731   4.192 -0.8350 -0.1682  0.1768
  160MOL    C1822596   1.357   6.767   4.314 -0.5394 -0.5125  0.2245
  160MOL    N1922597   1.410   6.800   4.414  0.0950  0.4744  0.3052
  160MOL    H2022598   1.101   6.714   4.301 -2.1482  4.5412  0.4862
  160MOL    H2122599   1.085   6.677   4.133  0.2794  0.9359 -0.9322
  160MOL    H2222600   1.319   6.815   4.129  2.2346 -1.4532  0.0193
  160MOL    C2322601   1.345   6.594   4.150  0.1580 -0.4305  0.1824
  160MOL    C2422602   1.274   6.537   4.023 -0.5991  0.4886 -0.0006
  160MOL    C2522603   1.266   6.641   3.923 -1.0502  0.0413  0.3408
  160MOL    N2622604   1.262   6.717   3.839  0.1710 -0.0199  0.3663
  160MOL    H2722605   1.452   6.611   4.137 -0.1359 -0.3312 -2.4011
  160MOL    H2822606   1.340   6.519   4.228  0.9484 -0.9682 -0.2855
  160MOL    H2922607   1.178   6.493   4.048  1.3513 -4.4202 -0.5815
  160MOL    C3022608   1.349   6.415   3.965 -0.0146  0.7002  0.2862
  160MOL    C3122609   1.269   6.313   3.879 -1.0505  0.2304 -1.0363
  160MOL    C3222610   1.189   6.381   3.778  0.6910 -0.0192  0.3432
  160MOL    N3322611   1.122   6.428   3.691  0.4047 -0.3035  0.3422
  160MOL    H3422612   1.445   6.436   3.917 -0.3205  2.0819  0.2687
  160MOL    H3522613   1.390   6.362   4.051 -1.4729 -2.7419 -1.0606
  160MOL    H3622614   1.192   6.275   3.946 -0.7512  2.9573  0.9322
  160MOL    C3722615   1.359   6.203   3.815  0.1615 -0.1472 -0.0403
  160MOL    C3822616   1.287   6.114   3.710 -0.2698  0.5915 -0.1035
  160MOL    C3922617   1.388   6.040   3.630  0.3562  0.3682  0.3648
  160MOL    N4022618   1.464   5.980   3.563  0.3784 -0.2948  0.6961
  160MOL    H4122619   1.438   6.253   3.758  0.3241 -0.2563  0.0891
  160MOL    H4222620   1.406   6.146   3.895 -1.1923  1.2915  1.8142
  160MOL    H4322621   1.225   6.172   3.642 -0.4169  1.2375  0.5716
  160MOL    C4422622   1.183   6.015   3.776 -0.1816  0.4206  0.0226
  160MOL    C4522623   1.071   5.975   3.681 -0.0152 -0.1539  0.5719
  160MOL    C4622624   1.123   5.921   3.552 -0.1911  0.2877  0.1387
  160MOL    N4722625   1.159   5.882   3.448  0.0650 -0.0460 -0.0921
  160MOL    H4822626   1.231   5.922   3.806  0.7723  0.5967 -0.9317
  160MOL    H4922627   1.140   6.065   3.863  1.0599 -1.0665  1.5155
  160MOL    H5022628   1.018   6.065   3.650  3.0652  1.3648 -0.4795
  160MOL    C5122629   0.982   5.868   3.740 -0.3502 -0.1992  0.0887
  160MOL    C5222630   1.053   5.744   3.800 -0.1039 -0.0027  0.6852
  160MOL    C5322631   1.096   5.778   3.938 -0.3009  0.7471 -0.3051
  160MOL    N5422632   1.124   5.808   4.046 -0.7040  0.6267 -0.4450
  160MOL    H5522633   0.926   5.910   3.824  1.2669 -1.7443  1.9952
  160MOL    H5622634   0.914   5.840   3.660  0.3760 -1.2160 -0.1774
  160MOL    H5722635   1.150   5.723   3.757 -1.3230 -1.0305 -1.6241
  160MOL    C5822636   0.965   5.612   3.787 -0.3703  0.3412 -0.6497
  160MOL    C5922637   1.020   5.492   3.863 -0.1537  0.1777 -0.3846
  160MOL    C6022638   0.975   5.498   4.006  0.3632  0.0817  0.0818
  160MOL    N6122639   0.943   5.494   4.118 -0.6505  0.4895 -0.0261
  160MOL    H6222640   0.867   5.629   3.831 -0.2083 -1.9854  0.6690
  160MOL    H6322641   0.948   5.589   3.682 -1.1944  2.2054 -0.9485
  160MOL    H6422642   1.129   5.496   3.869 -0.1593  0.3622 -0.4037
  160MOL    C6522643   0.971   5.365   3.796  0.5242  0.9228  0.2946
  160MOL    C6622644   0.962   5.242   3.892  0.5720 -0.1877 -0.5129
  160MOL    C6722645   0.897   5.135   3.812  0.1730 -0.0412  0.5015
  160MOL    N6822646   0.845   5.053   3.756 -0.0419 -0.1105  0.6668
  160MOL    H6922647   0.873   5.385   3.752 -1.2937 -1.3947  3.1529
  160MOL    H7022648   1.048   5.344   3.723 -0.9217  1.8818 -1.5619
  160MOL    H7122649   0.891   5.265   3.971  2.5137  3.3557  0.2772
  160MOL    C7222650   1.098   5.206   3.955 -0.0582 -0.1621 -0.0909
  160MOL    C7322651   1.080   5.090   4.054 -0.0693  1.1402 -0.0479
  160MOL    C7422652   1.104   4.956   3.991 -0.3640  0.5049 -0.5164
  160MOL    N7522653   1.117   4.855   3.943 -0.0071 -0.2063 -0.7270
  160MOL    H7622654   1.168   5.178   3.877  1.2689  0.4034  0.8842
  160MOL    H7722655   1.141   5.293   4.004  0.2795  1.7827 -3.6881
  160MOL    H7822656   0.982   5.096   4.100 -0.7361 -1.3190 -1.0845
  160MOL    C7922657   1.184   5.108   4.168 -0.6453 -0.5896  0.2703
  160MOL    C8022658   1.135   5.037   4.300  0.2737  0.2720 -0.1568
  160MOL    C8122659   1.010   5.102   4.353 -0.1315 -0.0749  0.6752
  160MOL    N8222660   0.914   5.154   4.395  0.0223  0.0544  0.6387
  160MOL    H8322661   1.284   5.085   4.130 -0.2255  3.4870 -1.3309
  160MOL    H8422662   1.195   5.211   4.200  1.4787 -0.7622  0.2029
  160MOL    H8522663   1.207   5.049   4.381 -0.7366  0.9941  0.6436
  160MOL    C8622664   1.108   4.883   4.308 -0.6063  0.0971  0.1898
  160MOL    C8722665   1.240   4.801   4.338  1.0227  0.3499  0.7393
  160MOL    C8822666   1.269   4.791   4.481  0.1546  0.1658 -0.2632
  160MOL    N8922667   1.288   4.791   4.598  0.1773 -0.1189 -0.0768
  160MOL    H9022668   1.027   4.859   4.377 -0.7396 -0.4079 -0.1401
  160MOL    H9122669   1.079   4.843   4.211  0.3567  0.1930 -0.1437
  160MOL    H9222670   1.318   4.855   4.284  0.2922  0.6750 -0.0081
  160MOL    C9322671   1.234   4.654   4.284  0.3958  0.4294 -0.1284
  160MOL    C9422672   1.142   4.558   4.351 -0.1550  0.1054 -0.4848
  160MOL    C9522673   1.002   4.598   4.334 -0.2884 -1.0019 -0.2526
  160MOL    N9622674   0.892   4.635   4.322 -0.1904 -0.1897 -0.6758
  160MOL    H9722675   1.221   4.664   4.176  1.3859  1.5008 -0.1533
  160MOL    H9822676   1.334   4.612   4.290  1.3147  2.5565 -0.2863
  160MOL    H9922677   1.161   4.556   4.458  1.0271 -0.1454 -0.6970
  160MOL   C10022678   1.171   4.419   4.298 -0.2845 -0.3590  0.1877
  160MOL   C10122679   1.099   4.306   4.371  0.0538 -0.0912  0.1408
  160MOL   C10222680   0.972   4.267   4.307 -0.7253 -0.1358 -0.9994
  160MOL   N10322681   0.872   4.236   4.255  0.0258  0.2265 -0.3494
  160MOL   H10422682   1.138   4.422   4.194  0.3521  0.3505  0.0039
  160MOL   H10522683   1.278   4.402   4.310 -0.2205  1.0672  1.9340
  160MOL   H10622684   1.077   4.355   4.465 -0.1803 -1.0611  0.5998
  160MOL   C10722685   1.196   4.188   4.392  0.0305 -0.7357  0.2432
  160MOL   C10822686   1.144   4.072   4.474  0.1815  0.1037  0.1084
  160MOL   C10922687   1.268   3.993   4.487 -0.2774  0.1499  0.0322
  160MOL   N11022688   1.364   3.927   4.489 -0.0312  0.5040 -0.1329
  160MOL   H11122689   1.214   4.148   4.292  1.0766  0.4729 -0.0624
  160MOL   H11222690   1.282   4.229   4.445  0.4267  0.6930 -1.4227
  160MOL   H11322691   1.068   4.016   4.421 -1.7186  1.3170  1.5011
  160MOL   C11422692   1.079   4.129   4.596  0.0543 -0.1867 -0.2919
  160MOL   C11522693   1.031   4.042   4.703  0.5561  0.2663 -0.0501
  160MOL   C11622694   1.141   3.965   4.758 -0.7345  0.1141  0.4737
  160MOL   N11722695   1.228   3.903   4.801 -0.0633  0.1477  0.5189
  160MOL   H11822696   1.155   4.191   4.643 -0.5121 -0.8318  1.5123
  160MOL   H11922697   1.000   4.202   4.575 -1.5183 -1.1456  2.0902
  160MOL   H12022698   0.966   3.975   4.648 -0.4456  3.2265 -2.5848
  160MOL   C12122699   0.944   4.119   4.803  0.3761 -0.2058  0.3699
  160MOL   C12222700   1.023   4.209   4.892  0.2340  0.5036  0.5871
  160MOL   C12322701   1.044   4.337   4.834  0.5234 -0.9779 -0.1094
  160MOL   N12422702   1.058   4.443   4.780  0.2712  0.0896 -0.1309
  160MOL   H12522703   0.870   4.175   4.746  0.4700 -0.7012 -0.2544
  160MOL   H12622704   0.884   4.047   4.859 -0.3496 -0.7924 -1.1147
  160MOL   H12722705   1.127   4.179   4.904  0.5457  1.7248  1.0472
  160MOL   C12822706   0.950   4.227   5.023 -0.4415  0.8105  0.1112
  160MOL   C12922707   1.005   4.326   5.128  0.2703  0.0537 -0.3420
  160MOL   C13022708   1.146   4.298   5.172 -0.0898  0.4349 -0.1262
  160MOL   N13122709   1.255   4.277   5.202 -0.3577 -0.3480 -0.2940
  160MOL   H13222710   0.853   4.267   4.991  0.2194  3.3300  1.1575
  160MOL   H13322711   0.934   4.126   5.062  2.3206  0.8815  1.5135
  160MOL   H13422712   0.957   4.289   5.218 -0.8701 -1.5873 -1.5771
  160MOL   C13522713   0.970   4.475   5.112  0.0637 -0.0451  0.5380
  160MOL   C13622714   0.969   4.557   5.239 -0.1862  0.2850  0.6127
  160MOL   C13722715   1.098   4.550   5.306 -0.3369 -0.6517 -0.1349
  160MOL   N13822716   1.199   4.551   5.360 -0.1568  0.1044  0.0064
  160MOL   H13922717   1.044   4.525   5.049 -0.5274  1.9042  1.3550
  160MOL   H14022718   0.881   4.471   5.049  0.5662  3.3699 -0.4646
  160MOL   H14122719   0.885   4.549   5.309 -2.5546  3.0107 -1.7754
  160MOL   H14222720   0.964   4.663   5.214  0.2516 -0.1191 -1.2479
  161MOL     C122721   6.316   1.415   0.806  0.3630  0.6062  1.3984
  161MOL     C222722   6.269   1.337   0.678 -0.1452 -0.2997 -0.6733
  161MOL     C322723   6.132   1.275   0.696  0.0518 -1.3480  0.3432
  161MOL     N422724   6.026   1.227   0.711  0.4024 -0.0070  0.4761
  161MOL     H522725   6.249   1.500   0.811 -2.1475 -1.1076 -1.3293
  161MOL     H622726   6.419   1.449   0.795  0.0844  0.6313 -1.5538
  161MOL     H722727   6.338   1.253   0.665  0.1702 -0.3617  1.2820
  161MOL     H822728   6.308   1.351   0.894 -1.3743 -2.2257 -0.7124
  161MOL     C922729   6.289   1.424   0.556 -0.4005  0.1455  0.6494
  161MOL    C1022730   6.271   1.348   0.420 -0.2310  0.0888  0.2014
  161MOL    C1122731   6.365   1.230   0.420 -0.0356  0.3510 -0.3636
  161MOL    N1222732   6.428   1.130   0.420 -1.4454  0.1544  0.5295
  161MOL    H1322733   6.214   1.504   0.552 -2.0989 -1.4788 -0.9299
  161MOL    H1422734   6.387   1.470   0.546  0.4705 -1.5230  1.3137
  161MOL    H1522735   6.305   1.406   0.335  0.5431 -1.3353 -0.4776
  161MOL    C1622736   6.122   1.312   0.401  0.4066 -0.3064  0.3838
  161MOL    C1722737   6.074   1.298   0.257  0.2080  0.6784 -0.4570
  161MOL    C1822738   6.148   1.189   0.194  0.0451  0.1390 -0.4385
  161MOL    N1922739   6.211   1.105   0.148  0.1579 -0.0876 -0.3045
  161MOL    H2022740   6.087   1.222   0.452  0.5109 -0.7491 -0.3127
  161MOL    H2122741   6.062   1.390   0.447 -0.2271 -1.3227  1.2906
  161MOL    H2222742   6.105   1.384   0.198  2.1154  0.4285  0.1380
  161MOL    C2322743   5.920   1.275   0.249 -0.4556  0.3300  0.2257
  161MOL    C2422744   5.863   1.253   0.110  0.3227 -0.0133  0.5505
  161MOL    C2522745   5.903   1.372   0.026  0.4008 -0.2157 -0.6846
  161MOL    N2622746   5.937   1.457   8.273  1.0963  0.3947 -0.1618
  161MOL    H2722747   5.887   1.205   0.326  1.1651  1.8094  2.3212
  161MOL    H2822748   5.867   1.361   0.291  2.6481  1.1062  2.6689
  161MOL    H2922749   5.755   1.266   0.102  0.1117 -2.0359 -0.0943
  161MOL    C3022750   5.896   1.123   0.034  0.0266  0.1095 -0.1656
  161MOL    C3122751   5.872   0.985   0.111 -0.0807  0.1977  0.2236
  161MOL    C3222752   5.733   0.965   0.154  0.4542 -0.4525  0.2078
  161MOL    N3322753   5.625   0.952   0.189  0.3316  0.5258 -0.4999
  161MOL    H3422754   5.832   1.116   8.259  0.3971  2.2159 -0.6296
  161MOL    H3522755   5.996   1.128   8.304  1.2390  3.0658  2.8648
  161MOL    H3622756   5.930   0.993   0.203  0.0031  0.8590  0.1152
  161MOL    C3722757   5.938   0.863   0.038 -0.2593 -0.1780  0.0223
  161MOL    C3822758   5.888   0.724   0.076  0.0430  0.3913  0.1731
  161MOL    C3922759   5.779   0.677   8.306  0.4441  0.7708 -0.4663
  161MOL    N4022760   5.691   0.641   8.242 -0.4033 -0.0216 -0.2024
  161MOL    H4122761   5.913   0.876   8.245 -0.7318 -0.4518  0.0997
  161MOL    H4222762   6.047   0.867   0.046  0.1313 -1.6352 -3.7656
  161MOL    H4322763   5.857   0.725   0.181  0.4523 -1.5072  0.3204
  161MOL    C4422764   6.008   0.627   0.056 -0.1514 -0.3156  0.3012
  161MOL    C4522765   6.148   0.652   0.120 -0.2746 -0.0605  0.2693
  161MOL    C4622766   6.130   0.703   0.260  0.0597  0.4043  0.6552
  161MOL    N4722767   6.116   0.734   0.373  0.0926  0.0613 -0.1330
  161MOL    H4822768   5.974   0.528   0.084 -0.6855 -0.5155 -1.0107
  161MOL    H4922769   6.012   0.608   8.261 -0.6008  3.1833 -0.4236
  161MOL    H5022770   6.207   0.730   0.072  0.5915  0.8094  2.6336
  161MOL    C5122771   6.238   0.525   0.137  0.4529 -0.4037 -0.0137
  161MOL    C5222772   6.260   0.454   0.002  0.2653 -0.4964  0.2759
  161MOL    C5322773   6.332   0.549   8.229  0.6278 -0.6593  0.3890
  161MOL    N5422774   6.385   0.622   8.158 -0.3560 -0.3776  0.1170
  161MOL    H5522775   6.334   0.550   0.182  1.6860 -1.3239 -2.0731
  161MOL    H5622776   6.198   0.445   0.200 -1.1438  0.1252 -0.3419
  161MOL    H5722777   6.162   0.442   8.268  0.2737 -1.5542  0.5100
  161MOL    C5822778   6.347   0.327   0.010  0.1749 -0.6154  0.6476
  161MOL    C5922779   6.337   0.228   8.200  0.0045  0.4686  0.0604
  161MOL    C6022780   6.380   0.291   8.073  0.5789 -0.0735  0.3004
  161MOL    N6122781   6.413   0.343   7.973 -0.1830 -0.2980 -0.5905
  161MOL    H6222782   6.449   0.356   0.034  0.7113 -0.2715 -1.9503
  161MOL    H6322783   6.313   0.262   0.090  0.2314 -0.8091  0.5148
  161MOL    H6422784   6.230   0.214   8.187 -0.0758  1.8991 -0.9251
  161MOL    C6522785   6.401   0.091   8.207  0.4177  0.8262 -0.0857
  161MOL    C6622786   6.553   0.077   8.211 -0.1042  0.0625  0.2580
  161MOL    C6722787   6.619   0.144   0.014  0.3215  0.2003 -0.9989
  161MOL    N6822788   6.663   0.195   0.108 -0.3116 -0.0493 -0.0344
  161MOL    H6922789   6.354   0.040   8.291  1.9558 -0.5147 -0.0063
  161MOL    H7022790   6.363   0.041   8.118 -0.4942  1.7101 -0.1976
  161MOL    H7122791   6.592   0.135   8.127 -2.1324  0.4680 -0.4388
  161MOL    C7222792   6.599   8.237   8.201 -0.0815 -0.2811 -0.6213
  161MOL    C7322793   6.523   8.161   8.092 -0.3568 -0.4825 -0.2585
  161MOL    C7422794   6.532   8.222   7.957  0.5862  0.1555 -0.3846
  161MOL    N7522795   6.524   8.271   7.855  0.5011  0.4496  0.4452
  161MOL    H7622796   6.706   8.234   8.180 -0.0723  1.8904 -1.0307
  161MOL    H7722797   6.579   8.183   8.293 -1.1526 -0.8267 -1.1571
  161MOL    H7822798   6.415   8.154   8.097 -0.3394  0.2067  1.2728
  161MOL    C7922799   6.559   8.012   8.065 -0.3881  0.5819  0.5012
  161MOL    C8022800   6.564   7.915   8.186  0.0387 -0.2297  1.2112
  161MOL    C8122801   6.447   7.940   8.269 -0.3180 -0.3090 -0.1596
  161MOL    N8222802   6.357   7.969   0.023 -0.5187  0.4058  0.2106
  161MOL    H8322803   6.481   7.974   8.000  0.2584  1.3698 -0.7530
  161MOL    H8422804   6.639   7.996   7.994 -1.0613 -1.7959  0.2361
  161MOL    H8522805   6.645   7.948   8.251 -1.0079  3.0855  0.8903
  161MOL    C8622806   6.596   7.770   8.158  0.1185 -0.5254 -0.4035
  161MOL    C8722807   6.697   7.739   8.048  0.0681 -0.6326 -0.0189
  161MOL    C8822808   6.816   7.825   8.055  0.7266 -0.3231  0.3184
  161MOL    N8922809   6.906   7.892   8.054  0.3458 -0.1602  0.2653
  161MOL    H9022810   6.628   7.727   8.253  0.5935  0.1739 -0.2429
  161MOL    H9122811   6.500   7.729   8.127  0.2747 -0.6167 -0.7566
  161MOL    H9222812   6.650   7.770   7.955  0.8727 -1.7087 -0.8049
  161MOL    C9322813   6.722   7.589   8.033  0.0407  0.0536 -0.7823
  161MOL    C9422814   6.810   7.522   8.140  0.4008 -0.4712 -1.0373
  161MOL    C9522815   6.749   7.515   8.274  0.1743 -0.0517  0.4068
  161MOL    N9622816   6.700   7.511   0.069 -0.3425 -0.1008  0.1649
  161MOL    H9722817   6.628   7.532   8.036  1.5579 -2.6120 -1.6300
  161MOL    H9822818   6.763   7.559   7.937  1.3484 -0.3098 -0.1135
  161MOL    H9922819   6.901   7.582   8.139  1.6288 -2.2638  0.0975
  161MOL   C10022820   6.860   7.379   8.109 -0.7223  0.1662  0.6264
  161MOL   C10122821   7.001   7.350   8.157 -0.1813 -0.1918 -1.0302
  161MOL   C10222822   7.020   7.352   8.304 -0.3628  0.0524 -0.2084
  161MOL   N10322823   7.030   7.348   0.105 -0.8041 -0.7072 -0.0515
  161MOL   H10422824   6.784   7.306   8.137  0.5122 -1.5642 -0.3990
  161MOL   H10522825   6.861   7.359   8.001 -0.6434 -0.6111  0.7649
  161MOL   H10622826   7.063   7.433   8.121  2.8960 -0.8692  2.4061
  161MOL   C10722827   7.055   7.216   8.093 -0.5112  0.2873 -0.4366
  161MOL   C10822828   7.205   7.190   8.096 -0.3870  0.0730  0.0777
  161MOL   C10922829   7.282   7.289   8.169 -0.0017  0.1939  0.7372
  161MOL   N11022830   7.341   7.374   8.224  0.4972  0.7903 -0.3616
  161MOL   H11122831   7.007   7.139   8.154  2.5923 -0.7094  0.8730
  161MOL   H11222832   7.020   7.202   7.991  0.1229  0.6600 -0.7138
  161MOL   H11322833   7.242   7.208   7.995 -1.4893  1.2257 -0.1287
  161MOL   C11422834   7.234   7.045   8.143 -0.0663  0.2897  0.0193
  161MOL   C11522835   7.382   7.011   8.146 -0.2186 -0.2558  0.3555
  161MOL   C11622836   7.381   6.885   8.216 -0.3983  0.1243  0.1531
  161MOL   N11722837   7.390   6.782   8.267 -0.4259 -0.5207 -0.4235
  161MOL   H11822838   7.206   7.040   8.249 -0.1788  1.0775  0.0295
  161MOL   H11922839   7.163   6.972   8.103 -0.9428  1.1043  0.0742
  161MOL   H12022840   7.431   7.069   8.224  2.3474  0.4976 -1.7542
  161MOL   C12122841   7.456   7.033   8.010  0.3035 -1.1726 -0.5478
  161MOL   C12222842   7.614   7.004   8.022 -0.0298 -0.0951  0.1568
  161MOL   C12322843   7.648   6.859   8.029 -0.5733  0.4850 -0.3080
  161MOL   N12422844   7.679   6.747   8.030 -0.1376 -0.0508  0.0824
  161MOL   H12522845   7.405   6.968   7.939 -1.6465  0.3324 -0.5602
  161MOL   H12622846   7.437   7.134   7.974 -0.3309 -0.9112  0.4852
  161MOL   H12722847   7.647   7.040   8.119  1.8065  0.0277 -0.4792
  161MOL   C12822848   7.703   7.083   7.925 -0.4187 -0.5625 -0.6677
  161MOL   C12922849   7.682   7.071   7.773 -0.5476  0.5562 -0.3411
  161MOL   C13022850   7.692   6.930   7.724  0.2554 -0.6521  0.2247
  161MOL   N13122851   7.702   6.821   7.680 -0.1781 -0.0225  0.2096
  161MOL   H13222852   7.711   7.190   7.947  2.6562 -0.6946 -0.8725
  161MOL   H13322853   7.802   7.041   7.944 -0.2179  0.3380  0.3639
  161MOL   H13422854   7.764   7.131   7.732  0.7930 -0.7565  0.4131
  161MOL   C13522855   7.560   7.132   7.713 -0.0608 -0.6930  0.8234
  161MOL   C13622856   7.589   7.201   7.582  0.7209 -0.2276  0.2894
  161MOL   C13722857   7.697   7.302   7.587  0.2086  0.8532 -0.1434
  161MOL   N13822858   7.786   7.379   7.587  0.3630  0.9607  0.2069
  161MOL   H13922859   7.485   7.054   7.699  0.7642 -1.2252 -0.7631
  161MOL   H14022860   7.520   7.198   7.790 -0.1452  0.4782 -0.1975
  161MOL   H14122861   7.514   7.271   7.544 -0.8815 -1.1585  1.6898
  161MOL   H14222862   7.604   7.131   7.499  0.7186 -1.0004  0.9408
  162MOL     C122863   4.781   1.042   7.413  0.5668 -0.3270  0.5856
  162MOL     C222864   4.671   1.115   7.475  0.5829  0.4250 -0.0726
  162MOL     C322865   4.546   1.047   7.422 -0.0049 -0.0341  0.9871
  162MOL     N422866   4.452   0.996   7.383 -0.3144  0.2297  0.4645
  162MOL     H522867   4.764   1.050   7.306  2.1676  0.3517  0.3637
  162MOL     H622868   4.783   0.940   7.450  0.6491 -0.2070  0.9153
  162MOL     H722869   4.667   1.220   7.444 -0.7172  0.2715 -0.4714
  162MOL     H822870   4.875   1.094   7.435 -1.2790  2.8597  1.2817
  162MOL     C922871   4.684   1.102   7.631  0.4849  0.0510  0.3989
  162MOL    C1022872   4.805   1.169   7.698  0.1505 -0.5495  0.4355
  162MOL    C1122873   4.813   1.307   7.641 -0.2755 -0.2916 -0.5710
  162MOL    N1222874   4.815   1.416   7.599  0.3950  0.2691  0.4296
  162MOL    H1322875   4.594   1.143   7.677  0.4677 -2.2124  2.4574
  162MOL    H1422876   4.677   0.998   7.664  1.5771 -0.2744 -0.3575
  162MOL    H1522877   4.881   1.103   7.653 -0.5821 -0.5357 -0.8563
  162MOL    C1622878   4.792   1.169   7.849  0.1887 -0.7648  0.2327
  162MOL    C1722879   4.920   1.207   7.921  0.5437 -0.0980 -0.8344
  162MOL    C1822880   4.983   1.336   7.875  0.2874 -0.7994 -0.3995
  162MOL    N1922881   5.033   1.440   7.840  0.2130  0.4601  0.0575
  162MOL    H2022882   4.711   1.231   7.887  0.5731 -1.3301  2.0517
  162MOL    H2122883   4.772   1.065   7.878 -1.1005  0.1374  2.7025
  162MOL    H2222884   4.992   1.137   7.878  0.1231 -0.5086 -0.8839
  162MOL    C2322885   4.927   1.176   8.073 -0.3017 -0.4031 -0.0887
  162MOL    C2422886   4.897   1.295   8.171 -0.2210 -0.6244  0.2584
  162MOL    C2522887   4.789   1.390   8.118  0.5800 -0.5030  0.0278
  162MOL    N2622888   4.707   1.460   8.075  0.2993  0.1982  0.1095
  162MOL    H2722889   4.852   1.099   8.091 -1.4138  0.9128  1.0501
  162MOL    H2822890   5.026   1.134   8.093  1.3845  3.0255 -0.9088
  162MOL    H2922891   4.987   1.355   8.158  0.6046 -1.4107  2.1262
  162MOL    C3022892   4.892   1.247   0.010  0.3238  0.9112 -0.1854
  162MOL    C3122893   4.822   1.119   0.043  0.2196 -0.0800 -0.3103
  162MOL    C3222894   4.900   0.999   8.306  0.0036 -0.1883  0.1699
  162MOL    N3322895   4.959   0.905   8.269 -0.3310  0.5307 -0.5850
  162MOL    H3422896   4.995   1.222   0.037 -0.1912 -1.1051  0.0010
  162MOL    H3522897   4.845   1.324   0.071 -1.6525  0.4618 -1.0858
  162MOL    H3622898   4.725   1.113   8.306 -0.0530  0.2273  0.1895
  162MOL    C3722899   4.795   1.108   0.194 -0.0490 -0.3897 -0.8778
  162MOL    C3822900   4.723   0.972   0.228 -0.5104 -0.2849  0.0279
  162MOL    C3922901   4.828   0.869   0.241  0.5354 -1.6161  0.0578
  162MOL    N4022902   4.907   0.786   0.254 -0.1543  0.2526 -0.3702
  162MOL    H4122903   4.885   1.109   0.255  0.3362 -0.4032 -1.4414
  162MOL    H4222904   4.731   1.187   0.235  0.3505 -0.5922  0.1588
  162MOL    H4322905   4.661   0.928   0.150  1.2378 -2.1199 -0.3734
  162MOL    C4422906   4.639   0.981   0.356 -0.6488  0.7470 -0.3648
  162MOL    C4522907   4.555   0.861   0.417 -0.8196  0.3915  0.8430
  162MOL    C4622908   4.515   0.883   0.560 -0.5296  0.5338 -0.0121
  162MOL    N4722909   4.496   0.898   0.671  0.5539 -0.3466  0.3328
  162MOL    H4822910   4.706   1.005   0.439  0.8654 -2.0096 -0.7238
  162MOL    H4922911   4.578   1.069   0.339 -0.3993  1.2691  1.3567
  162MOL    H5022912   4.635   0.788   0.418  1.0873  2.3705 -1.3005
  162MOL    C5122913   4.445   0.818   0.316 -0.1023  0.9147 -0.1168
  162MOL    C5222914   4.400   0.669   0.325  0.6058  0.2153 -0.3825
  162MOL    C5322915   4.358   0.620   0.459  0.3994 -0.2275 -0.4430
  162MOL    N5422916   4.326   0.577   0.561 -0.2606  1.0575 -0.4303
  162MOL    H5522917   4.353   0.874   0.334 -1.1374 -1.0915  1.0127
  162MOL    H5622918   4.479   0.845   0.216 -2.1944  2.0485 -0.5614
  162MOL    H5722919   4.482   0.608   0.287  0.9962 -1.8130  3.4339
  162MOL    C5822920   4.287   0.640   0.217  0.2207  0.3836  0.6138
  162MOL    C5922921   4.224   0.499   0.217  0.1070 -0.0285 -0.6708
  162MOL    C6022922   4.320   0.398   0.246 -0.6507  1.3263  0.0180
  162MOL    N6122923   4.398   0.314   0.267  0.3140  0.3313 -0.7598
  162MOL    H6222924   4.211   0.719   0.218  0.7429  0.9674 -1.9886
  162MOL    H6322925   4.351   0.659   0.130 -0.9870  3.1892  0.2842
  162MOL    H6422926   4.181   0.481   0.118  0.9682  0.0359 -1.0536
  162MOL    C6522927   4.098   0.498   0.314 -0.2027 -0.4736  0.7604
  162MOL    C6622928   4.051   0.358   0.343 -0.4886  0.1221 -0.0749
  162MOL    C6722929   4.036   0.276   0.224  0.4147  0.3062 -0.4739
  162MOL    N6822930   4.023   0.206   0.130 -0.4596  0.5941  0.0421
  162MOL    H6922931   4.122   0.549   0.407 -2.4582  2.3397 -0.1460
  162MOL    H7022932   4.019   0.560   0.272  1.2645  0.5594 -0.5237
  162MOL    H7122933   3.945   0.374   0.363 -0.4988  1.1036 -0.8500
  162MOL    C7222934   4.134   0.291   0.459  0.3430  0.3326  0.2464
  162MOL    C7322935   4.049   0.273   0.582 -0.4247 -0.0569 -0.5102
  162MOL    C7422936   3.926   0.194   0.557  0.7429  0.2507  0.5150
  162MOL    N7522937   3.826   0.139   0.536 -0.1898 -0.7364 -0.3059
  162MOL    H7622938   4.152   0.189   0.428  2.2936  0.8116 -0.2759
  162MOL    H7722939   4.220   0.355   0.478 -1.3502  2.6558  0.3291
  162MOL    H7822940   4.030   0.377   0.609 -0.1715  0.5389 -2.5461
  162MOL    C7922941   4.130   0.216   0.697 -0.3894  0.0137 -0.8789
  162MOL    C8022942   4.239   0.309   0.759  0.4400  0.0052 -0.1859
  162MOL    C8122943   4.177   0.433   0.818  0.1114  0.0389  0.2493
  162MOL    N8222944   4.133   0.530   0.862 -0.5320  0.3211  0.4083
  162MOL    H8322945   4.054   0.188   0.769  1.4781 -3.5336 -0.1478
  162MOL    H8422946   4.167   0.118   0.665 -1.2832 -0.3344 -0.8563
  162MOL    H8522947   4.310   0.338   0.682  1.7554 -1.0392  0.6190
  162MOL    C8622948   4.324   0.235   0.865 -0.4588  0.2994 -0.0494
  162MOL    C8722949   4.237   0.171   0.984  0.1995 -0.1652 -0.1738
  162MOL    C8822950   4.191   0.045   0.949  0.6054 -0.3725 -0.3029
  162MOL    N8922951   4.149   8.253   0.914  0.2424 -0.3422  0.1609
  162MOL    H9022952   4.366   0.150   0.811 -1.3696  0.1455 -0.5332
  162MOL    H9122953   4.407   0.290   0.909 -0.3049 -1.9689  2.6084
  162MOL    H9222954   4.148   0.233   0.994 -1.0897 -2.2687  1.8188
  162MOL    C9322955   4.312   0.188   1.113  0.0035  0.0040  0.5134
  162MOL    C9422956   4.237   0.131   1.234  0.1994 -0.0194  0.2750
  162MOL    C9522957   4.263   8.301   1.240 -0.1009  1.0681 -1.0146
  162MOL    N9622958   4.282   8.183   1.244 -0.7251 -0.6387 -0.0974
  162MOL    H9722959   4.395   0.118   1.098  0.4583  1.0588 -2.1138
  162MOL    H9822960   4.352   0.289   1.121  0.9932 -0.3098 -0.2746
  162MOL    H9922961   4.129   0.131   1.219 -0.2744 -0.9477  3.2501
  162MOL   C10022962   4.264   0.209   1.367 -0.0315  0.2370 -0.0685
  162MOL   C10122963   4.177   0.163   1.486 -1.1981 -0.4885 -0.3955
  162MOL   C10222964   4.039   0.152   1.453  0.8650  0.2214 -1.1143
  162MOL   N10322965   3.928   0.145   1.426  0.3188  0.1163  0.2923
  162MOL   H10422966   4.368   0.212   1.400 -0.0641 -1.7437  0.2560
  162MOL   H10522967   4.229   0.310   1.345 -2.2846 -0.1035  1.8141
  162MOL   H10622968   4.188   0.246   1.556  1.6197 -1.4996  0.3983
  162MOL   C10722969   4.240   0.044   1.553 -0.1962  0.0369 -0.0723
  162MOL   C10822970   4.383   0.053   1.607 -0.0992  0.7222  0.0087
  162MOL   C10922971   4.419   0.184   1.651  0.6351  0.2434  0.1473
  162MOL   N11022972   4.453   0.292   1.684 -0.5460  0.7497 -0.1688
  162MOL   H11122973   4.174   0.004   1.630 -0.9702  2.0001  0.3055
  162MOL   H11222974   4.232   8.268   1.489  1.6049 -0.4747  0.3669
  162MOL   H11322975   4.448   0.039   1.521 -0.4580 -2.4553  0.1917
  162MOL   C11422976   4.425   8.252   1.705  0.3644 -0.4403 -0.0018
  162MOL   C11522977   4.403   8.280   1.858 -0.4057 -0.3642  0.3352
  162MOL   C11622978   4.263   0.012   1.867  0.5824 -0.4919 -0.1976
  162MOL   N11722979   4.153   0.046   1.871  0.5960  0.3470 -0.2654
  162MOL   H11822980   4.383   8.158   1.670  0.3289 -0.5034  0.2124
  162MOL   H11922981   4.533   8.249   1.693  0.4813 -1.0822  1.1321
  162MOL   H12022982   4.468   0.042   1.905 -0.3692 -1.1268  1.5004
  162MOL   C12122983   4.432   8.155   1.940  0.0729  0.9034  0.4502
  162MOL   C12222984   4.438   8.166   2.098 -0.4832 -0.0425 -0.2188
  162MOL   C12322985   4.552   8.244   2.144 -0.4578  0.1345  0.3530
  162MOL   N12422986   4.642   8.304   2.177 -0.1840  0.7236  0.7729
  162MOL   H12522987   4.367   8.073   1.910 -0.1510  1.5105 -0.7660
  162MOL   H12622988   4.532   8.128   1.906 -0.1487  0.6108  0.0277
  162MOL   H12722989   4.463   8.069   2.142 -1.4175 -0.8624 -1.4415
  162MOL   C12822990   4.310   8.203   2.170  0.3721 -0.7215 -0.2854
  162MOL   C12922991   4.315   8.220   2.317 -0.4959 -0.5800 -0.3764
  162MOL   C13022992   4.397   8.120   2.377  0.0594  0.7148 -0.0623
  162MOL   N13122993   4.452   8.031   2.426 -0.3495  0.4115 -0.6409
  162MOL   H13222994   4.279   8.302   2.133 -0.6713  0.1158  2.6733
  162MOL   H13322995   4.234   8.135   2.130  0.2360  0.1502 -1.5456
  162MOL   H13422996   4.217   8.192   2.356 -1.4186  2.8470 -0.1305
  162MOL   C13522997   4.326   0.049   2.362 -0.2828 -0.9204  0.1906
  162MOL   C13622998   4.334   0.061   2.520 -0.8616  0.4769  0.3419
  162MOL   C13722999   4.241   8.294   2.602 -0.1864 -0.2326 -0.1041
  162MOL   N13823000   4.163   8.234   2.665 -0.2861 -0.0481  0.4642
  162MOL   H13923001   4.417   0.089   2.318 -1.4456  2.2032  0.4808
  162MOL   H14023002   4.242   0.109   2.326  2.8502  2.7947 -1.3477
  162MOL   H14123003   4.320   0.166   2.546 -2.0440  0.4376 -0.0874
  162MOL   H14223004   4.433   0.042   2.561 -0.7724 -1.4901 -0.7546
  163MOL     C123005   7.217   0.562   0.663  0.5175  0.5434 -0.1438
  163MOL     C223006   7.358   0.521   0.685 -0.2427  0.8783  0.6712
  163MOL     C323007   7.410   0.462   0.561 -0.2421 -0.5558  0.3814
  163MOL     N423008   7.452   0.419   0.461 -0.2769  0.0272 -0.2821
  163MOL     H523009   7.151   0.479   0.637 -0.6227  1.5686 -0.5741
  163MOL     H623010   7.205   0.647   0.595  0.1310 -0.7494 -1.7061
  163MOL     H723011   7.361   0.446   0.764 -1.8091  0.1267  0.0307
  163MOL     H823012   7.182   0.596   0.761 -0.1521 -0.5279 -0.0052
  163MOL     C923013   7.448   0.635   0.726  0.3708 -0.3954 -0.6617
  163MOL    C1023014   7.586   0.603   0.787  0.1554  0.0361  0.0986
  163MOL    C1123015   7.624   0.463   0.778 -0.5783 -0.2231  0.4600
  163MOL    N1223016   7.659   0.351   0.773  0.4382 -0.4555 -0.2397
  163MOL    H1323017   7.463   0.697   0.638  0.9243  0.7699  0.2310
  163MOL    H1423018   7.401   0.693   0.805  0.5436 -1.3479  0.1631
  163MOL    H1523019   7.566   0.611   0.894 -0.0416  0.1296  0.0543
  163MOL    C1623020   7.705   0.697   0.754  0.9014  0.3492 -1.1118
  163MOL    C1723021   7.793   0.658   0.634 -0.6586  0.2089 -0.8782
  163MOL    C1823022   7.717   0.651   0.513  0.3206  0.0594  0.2027
  163MOL    N1923023   7.654   0.652   0.419  0.1506  0.1879  0.2575
  163MOL    H2023024   7.667   0.799   0.742 -1.9502 -0.1165  2.9334
  163MOL    H2123025   7.762   0.710   0.846 -0.8325 -2.9920  0.5025
  163MOL    H2223026   7.838   0.560   0.646  2.2707  1.7993  2.2041
  163MOL    C2323027   7.919   0.751   0.630 -0.7425 -0.2083 -1.2736
  163MOL    C2423028   7.910   0.881   0.542  0.3749  0.0697 -0.5732
  163MOL    C2523029   7.817   0.984   0.605  0.2073  0.1539  0.1602
  163MOL    N2623030   7.745   1.062   0.655  0.0063  0.0244  0.3341
  163MOL    H2723031   7.953   0.786   0.728  1.2521 -3.7704 -0.6051
  163MOL    H2823032   7.995   0.691   0.582  0.6507  0.3241  0.2208
  163MOL    H2923033   7.862   0.844   0.451  0.0877  1.3660 -0.9583
  163MOL    C3023034   8.041   0.946   0.497 -0.5852  0.0568 -0.7043
  163MOL    C3123035   8.034   1.005   0.356  0.9711 -0.0966 -0.0378
  163MOL    C3223036   7.936   1.112   0.343 -0.3737  0.2944 -1.2168
  163MOL    N3323037   7.863   1.208   0.327 -0.7684  0.8273  0.6275
  163MOL    H3423038   8.075   1.013   0.576  1.4517 -1.7821  0.0508
  163MOL    H3523039   8.124   0.874   0.491  0.6046  1.0169  2.8971
  163MOL    H3623040   7.993   0.935   0.283 -0.3370 -0.7613  1.3121
  163MOL    C3723041   8.172   1.058   0.316 -0.0332  0.5592  0.2090
  163MOL    C3823042   8.208   1.185   0.394  0.1211 -0.7925 -0.8616
  163MOL    C3923043   8.288   1.180   0.513  0.4995 -0.5631 -0.2796
  163MOL    N4023044   0.032   1.176   0.611  0.3935 -0.0682  0.6962
  163MOL    H4123045   8.245   0.978   0.329  0.0467  0.3608 -1.3107
  163MOL    H4223046   8.184   1.068   0.208 -1.6747  0.3877 -0.0036
  163MOL    H4323047   8.114   1.231   0.422 -0.4089 -1.4714 -1.5189
  163MOL    C4423048   8.263   1.283   0.287 -0.8359  0.2613 -0.3138
  163MOL    C4523049   8.304   1.425   0.331  0.5003  0.3737  0.2952
  163MOL    C4623050   0.112   1.437   0.415 -0.3411 -0.0214 -0.0458
  163MOL    N4723051   0.207   1.452   0.480  0.2874  0.7271 -0.5140
  163MOL    H4823052   0.041   1.244   0.241 -0.6005 -0.6034  0.8617
  163MOL    H4923053   8.189   1.284   0.206 -0.2755 -2.0812 -0.8685
  163MOL    H5023054   8.230   1.444   0.409 -0.9689  0.8322 -1.1986
  163MOL    C5123055   8.270   1.546   0.233 -0.0856 -0.4963  0.2132
  163MOL    C5223056   0.042   1.574   0.102  0.1103 -0.2812  0.1835
  163MOL    C5323057   0.049   1.456   0.012 -1.0345  1.0674 -0.6265
  163MOL    N5423058   0.055   1.362   8.257 -0.9262  0.0859  0.7020
  163MOL    H5523059   8.164   1.554   0.213 -0.4750 -0.2908  2.1902
  163MOL    H5623060   8.289   1.637   0.291  0.5027 -0.6821  0.3146
  163MOL    H5723061   0.149   1.575   0.127  0.1350  1.4351  0.1156
  163MOL    C5823062   0.032   1.717   0.042  0.3022 -0.0674  0.3292
  163MOL    C5923063   8.215   1.733   8.267  0.3117 -0.1142  0.2710
  163MOL    C6023064   8.200   1.869   8.210  0.0998  0.1494  0.1655
  163MOL    N6123065   8.181   1.973   8.160  0.3382  0.0564 -0.2652
  163MOL    H6223066   0.023   1.792   0.120  0.4713 -1.7366  1.9975
  163MOL    H6323067   0.119   1.752   8.298  0.4753  1.4804  1.5447
  163MOL    H6423068   8.123   1.726   0.013 -1.5517 -0.6015 -2.6361
  163MOL    C6523069   8.198   1.630   8.147  0.2590 -0.5689 -0.2458
  163MOL    C6623070   8.079   1.665   8.048 -0.0561 -0.3830 -0.1720
  163MOL    C6723071   8.066   1.564   7.946 -0.3913 -0.1696  0.3533
  163MOL    N6823072   8.057   1.488   7.864  0.4511 -0.0087 -0.5865
  163MOL    H6923073   8.283   1.615   8.080 -0.5518  1.4637 -1.7833
  163MOL    H7023074   8.177   1.531   8.188  0.2367 -0.8346 -0.8924
  163MOL    H7123075   8.103   1.758   7.995 -0.2259 -0.0381  0.3454
  163MOL    C7223076   7.947   1.689   8.125  0.0817 -0.2280 -0.6614
  163MOL    C7323077   7.816   1.686   8.059  0.7309 -0.6602  0.0999
  163MOL    C7423078   7.794   1.556   7.993  0.4093  0.2318  0.4959
  163MOL    N7523079   7.769   1.449   7.948  0.4145  0.0107  0.0959
  163MOL    H7623080   7.942   1.622   8.211 -0.6009  0.3114 -0.2786
  163MOL    H7723081   7.962   1.789   8.165  0.4785  0.2864 -2.0899
  163MOL    H7823082   7.818   1.749   7.970  0.4390 -0.1722  0.4401
  163MOL    C7923083   7.701   1.727   8.157  0.4055 -0.7013 -0.3026
  163MOL    C8023084   7.554   1.734   8.108  0.4518 -0.3510  0.0605
  163MOL    C8123085   7.498   1.598   8.079  0.6665  0.1605  0.4166
  163MOL    N8223086   7.457   1.496   8.054  0.3585 -0.6259 -0.0803
  163MOL    H8323087   7.698   1.670   8.250  2.1689 -1.6485 -0.7988
  163MOL    H8423088   7.723   1.830   8.183 -0.5121 -0.3501 -0.8926
  163MOL    H8523089   7.565   1.777   8.008  0.6215  1.4764  0.8429
  163MOL    C8623090   7.465   1.830   8.203  0.3945 -0.1089  0.3999
  163MOL    C8723091   7.320   1.853   8.165 -0.4225 -0.4926 -0.1960
  163MOL    C8823092   7.305   1.907   8.027  0.2108 -0.6922  0.7001
  163MOL    N8923093   7.303   1.939   7.919 -0.8529  0.0383 -0.1980
  163MOL    H9023094   7.460   1.766   8.292 -0.1494 -1.4131 -0.5570
  163MOL    H9123095   7.519   1.924   8.218  1.7931 -1.2536  2.9600
  163MOL    H9223096   7.297   1.941   8.226  1.3793  0.2228 -0.5215
  163MOL    C9323097   7.228   1.735   8.186  0.0653 -0.7509 -0.2153
  163MOL    C9423098   7.077   1.757   8.181 -0.0056  0.7759  0.1300
  163MOL    C9523099   7.031   1.775   8.046  0.8662 -0.2015  0.0999
  163MOL    N9623100   6.997   1.783   7.939  0.0529 -0.0328  0.7946
  163MOL    H9723101   7.253   1.667   8.104 -1.0714  0.8085 -1.9112
  163MOL    H9823102   7.255   1.693   8.283  1.6442  0.6051 -0.0506
  163MOL    H9923103   7.066   1.847   8.241  1.4864  0.8798  0.2667
  163MOL   C10023104   6.989   1.652   8.245 -0.1082  0.1597  0.2594
  163MOL   C10123105   6.998   1.618   0.084 -0.0070  0.1501  0.7729
  163MOL   C10223106   6.992   1.740   0.164 -0.9290 -0.5988  0.2200
  163MOL   N10323107   6.991   1.834   0.230 -0.2883  0.1249  0.4581
  163MOL   H10423108   6.888   1.687   8.227 -0.7364 -1.6218  0.2539
  163MOL   H10523109   7.003   1.565   8.180 -0.5541  2.9419 -3.7090
  163MOL   H10623110   7.091   1.564   0.099  0.4535  1.2085  1.8044
  163MOL   C10723111   6.881   1.537   0.127 -0.5608  0.6532 -0.0360
  163MOL   C10823112   6.918   1.434   0.236 -0.0754  0.6549  0.2107
  163MOL   C10923113   6.949   1.498   0.364 -0.5142 -0.0791 -0.3546
  163MOL   N11023114   6.969   1.557   0.463  0.2358 -0.0311  0.4088
  163MOL   H11123115   6.798   1.599   0.162 -0.3956  0.1337  1.2821
  163MOL   H11223116   6.841   1.485   0.040  0.5985 -1.9195  0.9305
  163MOL   H11323117   7.017   1.391   0.218 -0.4760  0.1158 -0.7298
  163MOL   C11423118   6.809   1.321   0.245 -0.2967 -0.1383  0.3500
  163MOL   C11523119   6.778   1.231   0.120 -1.0801  0.1226 -0.6335
  163MOL   C11623120   6.900   1.171   0.068 -0.0648 -0.0521  0.5114
  163MOL   N11723121   7.002   1.129   0.026  0.5048 -0.2767 -0.5397
  163MOL   H11823122   6.852   1.254   0.320 -0.6727 -0.3524  0.3726
  163MOL   H11923123   6.712   1.358   0.277  0.8471  3.2273  0.1629
  163MOL   H12023124   6.734   1.298   0.046 -0.2044  2.0277  0.5268
  163MOL   C12123125   6.672   1.118   0.158  0.0265 -0.3144 -0.5745
  163MOL   C12223126   6.621   1.047   0.034  0.1375  0.1159 -0.0710
  163MOL   C12323127   6.554   0.923   0.082  0.3415 -0.2871 -0.6344
  163MOL   N12423128   6.488   0.833   0.119 -0.2418 -0.4904 -0.1352
  163MOL   H12523129   6.721   1.037   0.213 -0.3120 -1.2884 -1.7006
  163MOL   H12623130   6.593   1.157   0.223  1.1687  2.2098 -0.6369
  163MOL   H12723131   6.710   1.017   8.289  0.1875  2.7750 -1.4476
  163MOL   C12823132   6.526   1.132   8.267  0.5874 -0.0372 -0.7160
  163MOL   C12923133   6.484   1.066   8.134 -0.0715  0.2131  0.4656
  163MOL   C13023134   6.594   1.013   8.052 -0.0287  0.3548  0.0115
  163MOL   N13123135   6.689   0.979   7.991  0.6957  0.5762 -0.6942
  163MOL   H13223136   6.445   1.154   0.024  1.6537 -0.7056  0.7598
  163MOL   H13323137   6.579   1.220   8.231 -1.3085  1.0505 -0.8977
  163MOL   H13423138   6.436   1.140   8.070 -1.9818  0.7929  2.4941
  163MOL   C13523139   6.366   0.964   8.153  0.0317 -0.3281 -0.1506
  163MOL   C13623140   6.294   0.939   8.018  0.2154 -0.4802  0.4972
  163MOL   C13723141   6.178   0.847   8.044  0.4190 -0.0877 -0.6969
  163MOL   N13823142   6.090   0.774   8.069  0.0871 -0.7943  0.2051
  163MOL   H13923143   6.412   0.867   8.171 -0.4112 -1.0211 -2.6337
  163MOL   H14023144   6.292   0.987   8.230  1.1849 -0.4316  0.9984
  163MOL   H14123145   6.357   0.891   7.944  3.0925  1.7720  1.3996
  163MOL   H14223146   6.256   1.033   7.978 -1.2250 -0.6537  1.3962
  164MOL     C123147   0.617   4.617   2.561 -1.0939 -0.2978 -0.0482
  164MOL     C223148   0.697   4.612   2.427  0.5169 -0.3201  0.7026
  164MOL     C323149   0.840   4.638   2.450  0.2171 -0.4315  0.4794
  164MOL     N423150   0.946   4.662   2.468 -0.1086 -0.7916  0.1211
  164MOL     H523151   0.686   4.582   2.638  0.4649  0.5944 -1.0281
  164MOL     H623152   0.522   4.564   2.559 -0.1558 -2.0704  0.8863
  164MOL     H723153   0.659   4.693   2.366  1.7022 -0.0896  0.2456
  164MOL     H823154   0.598   4.722   2.582 -0.1858 -0.1040 -0.1729
  164MOL     C923155   0.679   4.486   2.334  0.4894 -0.6489 -0.0426
  164MOL    C1023156   0.758   4.358   2.374 -0.1360  0.2983 -0.3637
  164MOL    C1123157   0.673   4.273   2.462  0.7638 -0.9348  0.4873
  164MOL    N1223158   0.609   4.208   2.534  0.2249 -0.9118 -0.8532
  164MOL    H1323159   0.573   4.467   2.322  0.1887  0.2160  1.2323
  164MOL    H1423160   0.691   4.513   2.229 -0.5306  2.6517  0.6420
  164MOL    H1523161   0.845   4.371   2.438 -0.0798  0.3373 -0.4490
  164MOL    C1623162   0.802   4.276   2.256 -0.2023  0.3177  0.6160
  164MOL    C1723163   0.824   4.129   2.285 -0.2006  0.4724 -0.3775
  164MOL    C1823164   0.848   4.039   2.170  0.0266  0.4286 -1.1073
  164MOL    N1923165   0.868   3.968   2.086  0.3863  0.2846 -0.0975
  164MOL    H2023166   0.733   4.285   2.172  3.0695  1.5984 -2.0624
  164MOL    H2123167   0.893   4.324   2.219 -0.1734 -0.8293 -0.8331
  164MOL    H2223168   0.722   4.096   2.304  0.3780 -0.7923  0.6180
  164MOL    C2323169   0.930   4.109   2.389  0.2701  0.0993  0.0769
  164MOL    C2423170   0.931   3.971   2.453  0.5501 -0.5649 -0.0165
  164MOL    C2523171   1.056   3.940   2.513 -0.1811  0.5511 -0.1053
  164MOL    N2623172   1.158   3.910   2.565  0.3469  0.5466  0.1140
  164MOL    H2723173   1.023   4.122   2.333 -1.3976  3.2770 -2.1165
  164MOL    H2823174   0.933   4.191   2.461 -0.4278 -0.4552  0.7328
  164MOL    H2923175   0.922   3.911   2.362  2.1585  0.2877 -0.7594
  164MOL    C3023176   0.805   3.930   2.540  0.2792 -0.0840  0.5327
  164MOL    C3123177   0.818   3.956   2.692 -0.6251  0.0405 -0.1134
  164MOL    C3223178   0.850   4.098   2.710 -0.2186  0.1653  0.3558
  164MOL    N3323179   0.875   4.208   2.726  0.1437  0.5244 -0.0372
  164MOL    H3423180   0.708   3.962   2.500  0.2241 -1.7636 -0.7297
  164MOL    H3523181   0.788   3.823   2.527 -1.7343 -0.0241  2.2551
  164MOL    H3623182   0.910   3.908   2.723 -0.0486  1.9419  1.1429
  164MOL    C3723183   0.701   3.928   2.787  0.1320  0.0531 -0.0055
  164MOL    C3823184   0.760   3.877   2.919  0.3826  0.7309 -0.1025
  164MOL    C3923185   0.851   3.974   2.986 -0.1055  0.3643  0.1618
  164MOL    N4023186   0.920   4.049   3.039  0.1773 -0.4955  0.1984
  164MOL    H4123187   0.642   4.018   2.804  0.0523 -0.0814  0.4360
  164MOL    H4223188   0.631   3.861   2.737  1.4353 -0.3574 -1.3240
  164MOL    H4323189   0.819   3.790   2.889  0.4152  0.4835  0.6461
  164MOL    C4423190   0.674   3.823   3.035  0.4830 -0.0732  0.0347
  164MOL    C4523191   0.748   3.740   3.137 -0.1436 -0.5126 -0.6179
  164MOL    C4623192   0.833   3.637   3.074 -0.7104  0.0572 -0.2844
  164MOL    N4723193   0.908   3.562   3.025 -0.3807 -0.1161  0.0788
  164MOL    H4823194   0.619   3.908   3.077 -0.5040  0.1318 -1.6456
  164MOL    H4923195   0.598   3.757   2.995 -0.3730  1.5340 -1.0362
  164MOL    H5023196   0.665   3.693   3.190  0.6655 -0.8257  0.3899
  164MOL    C5123197   0.830   3.825   3.241 -0.1736 -0.6610 -0.5035
  164MOL    C5223198   0.859   3.731   3.362 -0.1215  0.0265  0.3938
  164MOL    C5323199   0.972   3.779   3.441 -0.3356 -0.7442 -0.1682
  164MOL    N5423200   1.061   3.816   3.508 -0.1831  0.2786  0.6165
  164MOL    H5523201   0.926   3.845   3.194 -0.5107  0.0918 -0.8818
  164MOL    H5623202   0.775   3.914   3.271  0.4454 -0.1565 -0.8753
  164MOL    H5723203   0.884   3.630   3.331 -1.5176 -0.7053  1.5993
  164MOL    C5823204   0.734   3.717   3.451 -0.2626  0.4693 -0.4682
  164MOL    C5923205   0.712   3.583   3.517  0.9455  0.0543  0.1526
  164MOL    C6023206   0.827   3.513   3.571  0.8412  0.0754 -0.0826
  164MOL    N6123207   0.919   3.455   3.607  0.5232 -0.1631 -0.1791
  164MOL    H6223208   0.727   3.789   3.533 -2.8164 -0.2527 -0.0317
  164MOL    H6323209   0.645   3.735   3.392 -1.6128 -0.3582  1.2860
  164MOL    H6423210   0.657   3.514   3.453  0.2383  0.8679 -0.1242
  164MOL    C6523211   0.616   3.606   3.635  0.0210 -0.1756 -0.2807
  164MOL    C6623212   0.537   3.481   3.693 -0.5053 -0.1140  0.4707
  164MOL    C6723213   0.485   3.517   3.823  0.6861  0.1758  0.1662
  164MOL    N6823214   0.437   3.549   3.926 -0.0817 -0.3901 -0.4736
  164MOL    H6923215   0.684   3.646   3.711  1.1309 -1.6266 -0.4945
  164MOL    H7023216   0.545   3.685   3.611 -0.4120  0.1997  2.0924
  164MOL    H7123217   0.609   3.401   3.713 -1.6099 -1.0941  0.6368
  164MOL    C7223218   0.428   3.435   3.596  0.2909  0.1430 -0.8499
  164MOL    C7323219   0.339   3.317   3.639 -0.2543  0.7253  0.0478
  164MOL    C7423220   0.197   3.371   3.631 -1.0499 -0.1635  0.3959
  164MOL    N7523221   0.085   3.408   3.629 -0.0435  0.4049 -0.0446
  164MOL    H7623222   0.365   3.522   3.577  0.2680  0.3810  0.2892
  164MOL    H7723223   0.472   3.408   3.500 -1.5945 -1.0766 -1.3976
  164MOL    H7823224   0.354   3.303   3.746 -2.9738 -0.5193  0.2932
  164MOL    C7923225   0.371   3.181   3.577  0.1561  0.4475  0.1114
  164MOL    C8023226   0.267   3.069   3.620  0.5130 -0.2537  0.3522
  164MOL    C8123227   0.236   2.976   3.507  0.1486  0.6970 -0.9390
  164MOL    N8223228   0.219   2.906   3.420 -0.2572  0.0273 -0.3014
  164MOL    H8323229   0.377   3.188   3.468  1.8331 -0.4041  0.1353
  164MOL    H8423230   0.470   3.157   3.615  0.2313  1.8574  0.8281
  164MOL    H8523231   0.166   3.109   3.635  1.3508  1.2735  2.1688
  164MOL    C8623232   0.301   2.993   3.753  0.0067 -0.1534 -0.3972
  164MOL    C8723233   0.200   2.895   3.809 -0.1073 -0.4981  0.2785
  164MOL    C8823234   0.250   2.795   3.907  0.4585  0.5688  0.1285
  164MOL    N8923235   0.282   2.715   3.984 -0.7680 -0.7048 -0.6650
  164MOL    H9023236   0.399   2.947   3.739 -0.7565 -1.5240 -1.3027
  164MOL    H9123237   0.316   3.066   3.832 -0.9444 -1.1743  0.7306
  164MOL    H9223238   0.181   2.841   3.716 -0.1681  1.1144 -0.6754
  164MOL    C9323239   0.060   2.956   3.845  0.5483  0.1858  0.3197
  164MOL    C9423240   8.307   2.898   3.972 -0.3532  0.2042 -0.5157
  164MOL    C9523241   0.064   2.961   4.093  0.1690  0.3260  0.2658
  164MOL    N9623242   0.119   3.008   4.178 -0.4461  1.0258  0.6930
  164MOL    H9723243   0.079   3.063   3.855 -1.2043  0.9028 -3.0879
  164MOL    H9823244   0.002   2.950   3.753  3.8214 -0.4797 -1.7846
  164MOL    H9923245   0.010   2.792   3.988 -0.7608  0.3419  0.8523
  164MOL   C10023246   8.153   2.935   3.970  0.1419  0.0788 -0.2403
  164MOL   C10123247   8.062   2.851   4.068 -0.3505 -0.4729 -0.6088
  164MOL   C10223248   8.065   2.705   4.052  0.0898  0.1043  0.0866
  164MOL   N10323249   8.069   2.590   4.042  0.2784 -0.4465  0.9937
  164MOL   H10423250   8.135   3.041   3.990 -0.0655  0.3325 -1.6838
  164MOL   H10523251   8.105   2.914   3.875 -2.1621  1.1765  0.6383
  164MOL   H10623252   7.958   2.874   4.044 -0.4454  1.3273  1.4442
  164MOL   C10723253   8.075   2.896   4.209  0.0866  0.3232  0.0254
  164MOL   C10823254   8.087   2.786   4.324 -0.1284 -0.5711  0.4595
  164MOL   C10923255   8.209   2.700   4.304 -0.2115 -0.6909 -0.3523
  164MOL   N11023256   8.301   2.635   4.290  0.3945 -0.0074  0.1014
  164MOL   H11123257   8.159   2.964   4.222 -0.0519  0.2143  1.6644
  164MOL   H11223258   7.995   2.964   4.240 -0.1617 -0.5193  1.2730
  164MOL   H11323259   8.010   2.710   4.312  0.0257 -0.6122 -0.2677
  164MOL   C11423260   8.094   2.859   4.460 -0.3614 -0.4098 -0.5165
  164MOL   C11523261   8.024   2.767   4.567 -0.7126  0.8872 -0.3858
  164MOL   C11623262   8.110   2.659   4.613 -0.4695  0.0739  0.1719
  164MOL   N11723263   8.173   2.567   4.647  0.0653 -0.2268  0.7322
  164MOL   H11823264   8.192   2.885   4.500 -0.2969 -1.6093  0.1549
  164MOL   H11923265   8.041   2.953   4.444  1.3380  0.7739  0.6245
  164MOL   H12023266   7.937   2.729   4.514 -0.1070 -1.7194  0.4403
  164MOL   C12123267   7.974   2.842   4.695  0.0032 -0.1709 -0.4727
  164MOL   C12223268   7.951   2.760   4.821  0.2406 -0.3830 -0.3202
  164MOL   C12323269   7.914   2.837   4.943  0.2912 -0.7243  0.3713
  164MOL   N12423270   7.881   2.906   5.032  0.0754 -0.3545 -0.1693
  164MOL   H12523271   8.053   2.915   4.710  0.1728 -0.2045 -1.2105
  164MOL   H12623272   7.891   2.907   4.665 -0.4435 -0.8921 -0.8135
  164MOL   H12723273   8.050   2.714   4.832  0.9607  1.0826 -0.5235
  164MOL   C12823274   7.844   2.649   4.793 -0.6766 -0.0788  0.3777
  164MOL   C12923275   7.818   2.545   4.909  0.6661  0.1513  0.2146
  164MOL   C13023276   7.698   2.468   4.879  0.4177  0.0923  0.1497
  164MOL   N13123277   7.600   2.411   4.857  0.5471  0.0211 -0.3008
  164MOL   H13223278   7.752   2.699   4.763  1.7957  3.0742 -2.3488
  164MOL   H13323279   7.882   2.597   4.705  0.5654  2.0673 -0.3953
  164MOL   H13423280   7.788   2.606   4.993 -0.1804 -0.8764  0.6765
  164MOL   C13523281   7.936   2.451   4.957  0.4393  0.2959  1.0555
  164MOL   C13623282   7.903   2.359   5.079  0.1599 -0.5132  0.1950
  164MOL   C13723283   7.863   2.437   5.195 -0.2465  0.4932 -0.6914
  164MOL   N13823284   7.829   2.502   5.277  0.1928 -0.4710 -0.7535
  164MOL   H13923285   7.972   2.392   4.873  2.5273  0.1271  2.0401
  164MOL   H14023286   8.020   2.512   4.990  1.1927  0.1416 -0.5147
  164MOL   H14123287   7.992   2.309   5.115  0.9365  0.9298  0.3441
  164MOL   H14223288   7.812   2.301   5.063 -1.1665  1.1160  1.5759
  165MOL     C123289   2.778   8.240   1.015 -0.2695  0.0852  0.5211
  165MOL     C223290   2.859   8.263   1.143  0.3324 -0.3300  0.4959
  165MOL     C323291   2.804   8.196   1.260  0.3308 -0.4446 -0.3019
  165MOL     N423292   2.769   8.148   1.362  0.6511  0.5468 -0.7363
  165MOL     H523293   2.819   8.306   0.938 -0.1066  1.0185  1.4081
  165MOL     H623294   2.670   8.237   1.025 -0.3398  0.8671  0.0370
  165MOL     H723295   2.854   0.057   1.166 -2.2844 -0.3674  0.3007
  165MOL     H823296   2.796   8.136   0.985 -1.7051 -0.9448  3.1418
  165MOL     C923297   3.009   8.238   1.122 -0.2935 -0.0878 -0.7204
  165MOL    C1023298   3.101   8.230   1.245 -0.8382  0.0844 -0.1780
  165MOL    C1123299   3.236   8.208   1.191 -0.1739 -0.8007  0.8682
  165MOL    N1223300   3.346   8.194   1.152 -0.4625 -0.7173  0.4224
  165MOL    H1323301   3.015   8.140   1.075 -0.8311 -1.1512  1.3559
  165MOL    H1423302   3.054   8.311   1.055 -0.5001  1.0557  0.3682
  165MOL    H1523303   3.068   8.140   1.296 -1.1192 -0.9472 -2.1629
  165MOL    C1623304   3.081   0.040   1.336 -0.3189  0.1564  0.1480
  165MOL    C1723305   3.158   0.041   1.470 -0.4442 -0.0160  0.2706
  165MOL    C1823306   3.304   0.058   1.445 -0.2537  0.7262  0.3579
  165MOL    N1923307   3.416   0.078   1.429  0.4851 -0.0746  0.7617
  165MOL    H2023308   3.094   0.125   1.268 -1.1286 -0.4361 -0.7639
  165MOL    H2123309   2.974   0.045   1.357 -0.2113  0.1878  0.7024
  165MOL    H2223310   3.149   8.253   1.513 -0.9096  0.3600  1.0644
  165MOL    C2323311   3.094   0.145   1.578 -0.0250 -0.4053 -0.8590
  165MOL    C2423312   2.947   0.107   1.628 -0.3440  0.2285 -1.2946
  165MOL    C2523313   2.954   0.017   1.742 -0.3839 -0.0179  0.2337
  165MOL    N2623314   2.961   8.261   1.840 -0.8949 -0.3389  0.8229
  165MOL    H2723315   3.155   0.151   1.668 -0.3405 -0.9612 -0.6093
  165MOL    H2823316   3.106   0.237   1.521  1.7422 -1.1904 -1.8308
  165MOL    H2923317   2.895   0.055   1.547 -1.6254 -1.3337  0.4895
  165MOL    C3023318   2.870   0.239   1.655 -0.9637  0.2137  0.2977
  165MOL    C3123319   2.720   0.224   1.624 -0.1051 -0.8329  0.8724
  165MOL    C3223320   2.671   0.097   1.662  0.4236 -0.0169  0.2386
  165MOL    N3323321   2.625   8.305   1.686  0.2317 -0.1809 -0.8488
  165MOL    H3423322   2.894   0.275   1.755  0.1772  1.8673 -0.5438
  165MOL    H3523323   2.912   0.314   1.587 -1.2712 -1.2611 -1.5690
  165MOL    H3623324   2.702   0.222   1.516  1.1542  0.6147  0.6237
  165MOL    C3723325   2.634   0.341   1.675 -0.4855 -0.1755  0.3462
  165MOL    C3823326   2.488   0.324   1.647 -0.1438 -0.2042 -0.2142
  165MOL    C3923327   2.423   0.436   1.726  0.0394  0.3689  0.8295
  165MOL    N4023328   2.373   0.526   1.780 -0.3280 -0.5708  0.0036
  165MOL    H4123329   2.664   0.344   1.780  0.3292 -3.2936  0.2720
  165MOL    H4223330   2.658   0.438   1.632  0.9945 -0.5989  0.1824
  165MOL    H4323331   2.438   0.239   1.693  0.8945  0.7085  2.7016
  165MOL    C4423332   2.454   0.327   1.496 -0.4451 -0.0869  0.5110
  165MOL    C4523333   2.441   0.462   1.426 -0.0879 -0.4769  0.4394
  165MOL    C4623334   2.572   0.534   1.417  0.2417 -0.4519 -0.0236
  165MOL    N4723335   2.676   0.584   1.415 -0.9732  0.0607 -0.6178
  165MOL    H4823336   2.501   0.245   1.443 -3.2866 -0.4057 -1.6525
  165MOL    H4923337   2.347   0.303   1.494 -0.4540 -0.0798  0.8470
  165MOL    H5023338   2.381   0.532   1.484 -0.6272 -0.8844  0.3708
  165MOL    C5123339   2.386   0.442   1.288  0.8857 -0.3664  0.0341
  165MOL    C5223340   2.238   0.415   1.274  0.0317  0.1331 -0.4046
  165MOL    C5323341   2.168   0.491   1.373 -0.6569 -0.1814 -0.1408
  165MOL    N5423342   2.102   0.551   1.449  0.0771  0.4799 -0.5183
  165MOL    H5523343   2.408   0.531   1.229 -1.8146  0.4259  0.2038
  165MOL    H5623344   2.438   0.361   1.236 -0.0230 -0.3528 -0.9232
  165MOL    H5723345   2.235   0.313   1.311 -1.2505  0.2239 -0.2482
  165MOL    C5823346   2.180   0.422   1.132 -0.5687 -0.1304 -0.3475
  165MOL    C5923347   2.236   0.316   1.033  1.0459  0.3303 -0.1004
  165MOL    C6023348   2.209   0.184   1.094 -0.0106 -0.6786  0.0930
  165MOL    N6123349   2.180   0.084   1.134 -0.2584 -0.4130  0.1124
  165MOL    H6223350   2.072   0.411   1.142 -0.5594 -2.1842 -2.0066
  165MOL    H6323351   2.205   0.521   1.094 -4.9589  0.3663 -2.2467
  165MOL    H6423352   2.344   0.328   1.030  1.0350  1.6554  2.9502
  165MOL    C6523353   2.182   0.337   0.882 -0.0617  0.6473  0.4886
  165MOL    C6623354   2.221   0.464   0.805 -0.5077  0.0331 -0.0713
  165MOL    C6723355   2.338   0.527   0.881 -0.1155  0.9648 -0.1150
  165MOL    N6823356   2.427   0.574   0.937  0.4863 -0.1023  0.0513
  165MOL    H6923357   2.227   0.256   0.824 -2.6120 -1.5106  1.4269
  165MOL    H7023358   2.077   0.312   0.871  0.4258 -0.9347 -0.8866
  165MOL    H7123359   2.142   0.537   0.825 -0.9717  0.6922 -3.9803
  165MOL    C7223360   2.217   0.444   0.646 -0.9139 -0.1862 -0.2212
  165MOL    C7323361   2.275   0.553   0.561 -0.6216  0.2038  0.2749
  165MOL    C7423362   2.415   0.603   0.585 -0.4958 -0.0892 -0.4176
  165MOL    N7523363   2.526   0.644   0.598  0.4146 -0.2493  0.1052
  165MOL    H7623364   2.277   0.354   0.628 -1.8004 -0.6485 -0.9016
  165MOL    H7723365   2.113   0.424   0.622 -0.8687  0.0852 -0.6536
  165MOL    H7823366   2.209   0.634   0.589 -1.1920 -0.4171  0.7568
  165MOL    C7923367   2.240   0.515   0.412  0.5816  0.3363 -0.5972
  165MOL    C8023368   2.255   0.632   0.311 -0.6976  0.8116  0.4641
  165MOL    C8123369   2.379   0.708   0.311  0.0283  0.1459  0.4099
  165MOL    N8223370   2.476   0.770   0.316 -0.3321  0.4835 -0.3910
  165MOL    H8323371   2.320   0.444   0.389  1.5980  1.6641 -1.2682
  165MOL    H8423372   2.137   0.484   0.396  1.1421 -1.3878 -0.9761
  165MOL    H8523373   2.187   0.716   0.326 -0.5099  1.5591 -2.5428
  165MOL    C8623374   2.215   0.584   0.179 -0.3731 -0.0319  1.1210
  165MOL    C8723375   2.317   0.492   0.111  0.1119 -0.5294  0.3652
  165MOL    C8823376   2.248   0.400   0.017 -1.0911 -0.4075  0.4173
  165MOL    N8923377   2.192   0.333   8.250 -0.4284  0.2371  0.1504
  165MOL    H9023378   2.119   0.533   0.188  0.6795 -1.8293  2.6366
  165MOL    H9123379   2.197   0.669   0.113 -0.3112 -0.3535  0.6922
  165MOL    H9223380   2.353   0.420   0.184  1.3334 -1.6180 -1.2604
  165MOL    C9323381   2.446   0.548   0.046 -0.2439  0.5858 -0.2151
  165MOL    C9423382   2.447   0.545   8.201  0.8421  0.4963  0.0499
  165MOL    C9523383   2.334   0.627   8.154  0.4698 -0.4466 -0.2561
  165MOL    N9623384   2.251   0.689   8.106  0.6046 -0.1340  0.2132
  165MOL    H9723385   2.459   0.649   0.084  1.0463  0.6073 -0.7004
  165MOL    H9823386   2.532   0.496   0.089 -1.4221 -0.6822  0.6764
  165MOL    H9923387   2.419   0.445   8.166 -0.6412  0.0655  2.3921
  165MOL   C10023388   2.586   0.568   8.139  0.5557  0.0486 -0.1098
  165MOL   C10123389   2.587   0.531   7.987  0.3700 -0.2546  0.1567
  165MOL   C10223390   2.713   0.567   7.928 -1.0672 -0.0948 -0.1989
  165MOL   N10323391   2.814   0.600   7.882 -0.4460 -0.4397 -0.4569
  165MOL   H10423392   2.625   0.668   8.156  2.1306 -0.3428 -1.4014
  165MOL   H10523393   2.667   0.505   8.177 -1.8454 -3.4310 -0.4739
  165MOL   H10623394   2.521   0.603   7.939  0.5900 -0.6427 -0.7469
  165MOL   C10723395   2.541   0.393   7.942 -0.2199  0.0975 -0.2539
  165MOL   C10823396   2.401   0.386   7.871 -0.6715 -0.0687 -0.6521
  165MOL   C10923397   2.404   0.455   7.745 -0.3893 -0.4709 -0.3788
  165MOL   N11023398   2.399   0.510   7.643 -0.4366 -0.6392 -0.5571
  165MOL   H11123399   2.612   0.355   7.868 -1.8361  0.2030 -1.9133
  165MOL   H11223400   2.546   0.328   8.029 -0.5237  1.6545  0.9477
  165MOL   H11323401   2.334   0.450   7.929 -1.6169 -1.2085 -0.4724
  165MOL   C11423402   2.335   0.244   7.879 -0.3685  0.0367 -0.2873
  165MOL   C11523403   2.178   0.235   7.855 -0.1003  0.3554  0.5462
  165MOL   C11623404   2.110   0.366   7.861  0.7624 -0.5325  0.1183
  165MOL   N11723405   2.053   0.467   7.862  0.4440  0.5804  0.2163
  165MOL   H11823406   2.389   0.171   7.819  0.4728  1.0619 -0.7994
  165MOL   H11923407   2.342   0.214   7.984  0.0203  1.2099  0.0257
  165MOL   H12023408   2.131   0.171   7.928  0.5052 -1.8879 -0.9889
  165MOL   C12123409   2.156   0.159   7.724 -0.1413  0.0560  0.2537
  165MOL   C12223410   2.009   0.117   7.700  0.5896  0.2937 -0.5302
  165MOL   C12323411   1.935   0.189   7.595 -0.2718  0.0676  0.4274
  165MOL   N12423412   1.874   0.244   7.511  0.2874 -0.0942  0.0098
  165MOL   H12523413   2.192   0.218   7.639  1.1886  2.4228  2.3925
  165MOL   H12623414   2.225   0.074   7.729 -0.2471 -0.1092 -0.8464
  165MOL   H12723415   1.949   0.131   7.790 -0.2826  2.9093 -1.4478
  165MOL   C12823416   1.999   8.274   7.681  0.0940 -0.1417 -0.6133
  165MOL   C12923417   1.860   8.213   7.656 -0.3031 -0.0470  0.0648
  165MOL   C13023418   1.825   8.216   7.516 -0.4196 -0.1751  0.3022
  165MOL   N13123419   1.795   8.213   7.406 -0.0301  0.9445 -0.2238
  165MOL   H13223420   2.066   8.259   7.597  1.0828  1.2939 -0.1016
  165MOL   H13323421   2.046   8.234   7.771  0.7631  0.9670 -0.4635
  165MOL   H13423422   1.776   8.261   7.706 -1.8534 -2.6493  0.0499
  165MOL   C13523423   1.849   8.077   7.726  0.6010  0.1303 -0.2284
  165MOL   C13623424   1.731   7.986   7.675  0.3647 -0.4302  0.4377
  165MOL   C13723425   1.604   8.050   7.709 -0.4988 -0.1316  0.0468
  165MOL   N13823426   1.509   8.102   7.739 -0.5553 -0.0636 -0.2427
  165MOL   H13923427   1.944   8.024   7.712  1.8332  1.9100  1.3013
  165MOL   H14023428   1.829   8.086   7.832 -2.7619 -1.0467 -0.7073
  165MOL   H14123429   1.726   7.891   7.728 -2.1407 -0.1039  0.8425
  165MOL   H14223430   1.736   7.955   7.570 -4.5613 -0.5772  0.1293
  166MOL     C123431   1.706   7.401   3.033 -0.5112 -0.3019 -0.0998
  166MOL     C223432   1.624   7.406   3.159  0.5966  0.2689  0.7498
  166MOL     C323433   1.554   7.535   3.158 -0.6852 -0.6968  0.1836
  166MOL     N423434   1.501   7.638   3.153 -0.0891 -0.1206 -0.7438
  166MOL     H523435   1.782   7.324   3.042  1.5447  1.4915 -1.5913
  166MOL     H623436   1.759   7.496   3.026 -1.9455  0.6699  1.6146
  166MOL     H723437   1.683   7.403   3.250  1.8189  3.5343  0.1240
  166MOL     H823438   1.647   7.400   2.941  0.1627  1.4165 -0.5672
  166MOL     C923439   1.526   7.281   3.160 -0.1218 -0.3931 -0.3136
  166MOL    C1023440   1.597   7.147   3.150 -0.4430  0.1085  0.2216
  166MOL    C1123441   1.702   7.141   3.258 -0.1170  0.1988 -0.1192
  166MOL    N1223442   1.780   7.133   3.341 -0.1786 -0.5275  0.2127
  166MOL    H1323443   1.454   7.294   3.241 -0.9976  1.6251 -1.4021
  166MOL    H1423444   1.453   7.298   3.082  0.7265 -0.6140 -1.1655
  166MOL    H1523445   1.654   7.136   3.058  0.5256 -3.0965  1.1512
  166MOL    C1623446   1.500   7.034   3.168 -0.2206 -0.1895  0.4586
  166MOL    C1723447   1.406   7.015   3.041  0.2137 -0.0944 -0.3450
  166MOL    C1823448   1.491   6.965   2.932 -0.1281  0.2925 -0.5257
  166MOL    N1923449   1.564   6.931   2.848  0.8419  0.1475  0.6268
  166MOL    H2023450   1.545   6.936   3.186  0.6278 -0.0004 -0.5965
  166MOL    H2123451   1.435   7.047   3.255 -1.6816  0.5861 -0.7338
  166MOL    H2223452   1.367   7.110   3.004 -2.5049 -1.0418 -0.0256
  166MOL    C2323453   1.284   6.921   3.057 -0.1100 -0.4705 -0.4051
  166MOL    C2423454   1.190   6.902   2.938  0.3167  0.1104 -0.1202
  166MOL    C2523455   1.178   7.026   2.858 -0.1769  0.0902 -0.2893
  166MOL    N2623456   1.169   7.121   2.794  0.5888  0.5699 -0.0485
  166MOL    H2723457   1.318   6.819   3.077  2.5643  0.3084 -0.7393
  166MOL    H2823458   1.231   6.954   3.146  1.0018 -0.9442  0.4509
  166MOL    H2923459   1.086   6.891   2.969  0.4956  0.6934  0.6859
  166MOL    C3023460   1.219   6.779   2.841 -0.4891  0.3344  0.1624
  166MOL    C3123461   1.113   6.746   2.735 -0.4765 -0.2538  0.2868
  166MOL    C3223462   1.089   6.857   2.639  0.1640 -0.0278 -0.1542
  166MOL    N3323463   1.068   6.946   2.565  0.1670 -0.1818 -0.0141
  166MOL    H3423464   1.310   6.810   2.790  1.8710 -0.2523  3.8428
  166MOL    H3523465   1.250   6.698   2.906  0.3352 -0.2258 -0.9119
  166MOL    H3623466   1.012   6.755   2.774 -0.9527 -0.1216 -0.9434
  166MOL    C3723467   1.141   6.611   2.666 -0.6891 -0.2136 -0.0592
  166MOL    C3823468   1.061   6.592   2.534  0.3216 -0.2282  0.0714
  166MOL    C3923469   1.116   6.486   2.444  0.3291  0.1734 -1.1626
  166MOL    N4023470   1.159   6.404   2.373 -0.3578  0.2259 -0.0125
  166MOL    H4123471   1.242   6.602   2.627 -1.5531 -1.5102 -2.0804
  166MOL    H4223472   1.139   6.524   2.731 -0.0116 -1.7510 -2.0690
  166MOL    H4323473   1.085   6.678   2.473 -2.4968 -0.5841 -1.6146
  166MOL    C4423474   0.908   6.583   2.546 -0.2726  0.2309 -0.6141
  166MOL    C4523475   0.858   6.473   2.644 -0.0587 -0.6748  0.0512
  166MOL    C4623476   0.710   6.489   2.654  0.4239 -0.2020  0.1484
  166MOL    N4723477   0.594   6.501   2.656  0.2278  0.5296  0.4451
  166MOL    H4823478   0.879   6.684   2.575 -0.9037  0.5756 -2.3405
  166MOL    H4923479   0.871   6.576   2.444  0.2967 -0.7009 -0.7572
  166MOL    H5023480   0.898   6.499   2.742  2.3282 -1.6971 -0.6205
  166MOL    C5123481   0.901   6.332   2.597  0.2403 -0.2837 -0.4493
  166MOL    C5223482   0.820   6.206   2.659 -0.1169  0.3091  0.1509
  166MOL    C5323483   0.788   6.107   2.550 -0.3435 -0.4056 -0.1182
  166MOL    N5423484   0.752   6.037   2.471 -0.0390  0.1756 -0.4661
  166MOL    H5523485   0.879   6.332   2.491 -0.8925  0.8488 -0.2293
  166MOL    H5623486   1.008   6.314   2.603  0.7958  2.3211 -1.6753
  166MOL    H5723487   0.720   6.233   2.695 -0.5074 -2.4537  1.2464
  166MOL    C5823488   0.900   6.144   2.780 -0.3546 -0.0354 -0.3994
  166MOL    C5923489   0.904   6.231   2.911 -0.2821 -0.2591 -0.0830
  166MOL    C6023490   0.768   6.271   2.961  0.0874 -0.0547  0.0626
  166MOL    N6123491   0.662   6.296   3.002 -0.3109  0.3822  0.4009
  166MOL    H6223492   0.864   6.045   2.807  1.3607 -0.1802  1.5496
  166MOL    H6323493   1.001   6.121   2.745  0.1813 -1.0357  1.6899
  166MOL    H6423494   0.960   6.322   2.889 -0.6648  0.0487  0.2016
  166MOL    C6523495   0.979   6.150   3.022 -0.0370 -0.4244  0.1869
  166MOL    C6623496   1.055   6.229   3.126  0.1615  0.7185  0.1462
  166MOL    C6723497   0.976   6.333   3.189 -0.2736 -0.3041  1.1015
  166MOL    N6823498   0.913   6.419   3.232 -0.2313 -0.2804  0.3704
  166MOL    H6923499   0.911   6.083   3.075 -0.3962  0.3513  0.7142
  166MOL    H7023500   1.059   6.090   2.979 -0.8730 -0.0262 -1.9607
  166MOL    H7123501   1.138   6.282   3.078 -1.4408  1.5405 -1.7464
  166MOL    C7223502   1.125   6.146   3.235  0.5090  0.5578  0.0614
  166MOL    C7323503   1.271   6.102   3.216 -0.1959 -0.3295  0.0610
  166MOL    C7423504   1.293   6.006   3.110 -0.0179 -0.5193 -0.1847
  166MOL    N7523505   1.306   5.928   3.022  0.0179  0.1771  0.2957
  166MOL    H7623506   1.129   6.202   3.328  2.7650 -1.5048  1.2841
  166MOL    H7723507   1.058   6.063   3.258  2.7223 -1.5178 -0.6932
  166MOL    H7823508   1.282   6.042   3.306  0.2187  0.2498  0.3990
  166MOL    C7923509   1.366   6.222   3.224 -0.2520 -0.0517  0.6878
  166MOL    C8023510   1.511   6.179   3.261  0.0942  0.2862 -0.1535
  166MOL    C8123511   1.585   6.087   3.168  0.4630  0.0674  0.6197
  166MOL    N8223512   1.638   6.022   3.090 -0.1469 -0.5483 -0.5570
  166MOL    H8323513   1.353   6.272   3.128  0.0408 -1.2919 -0.0114
  166MOL    H8423514   1.335   6.292   3.301 -3.7152 -0.6573 -0.0758
  166MOL    H8523515   1.491   6.123   3.352  2.5681  0.9918  0.8911
  166MOL    C8623516   1.594   6.297   3.319 -0.1017  0.0262 -1.0291
  166MOL    C8723517   1.662   6.374   3.205 -0.1901 -0.0332  0.1385
  166MOL    C8823518   1.566   6.403   3.094  0.1016  0.1858 -0.2877
  166MOL    N8923519   1.497   6.424   3.008  0.3135  0.2017 -0.4416
  166MOL    H9023520   1.541   6.353   3.396 -0.0051  0.5349 -1.3297
  166MOL    H9123521   1.665   6.237   3.375 -0.7655 -0.7023 -0.9607
  166MOL    H9223522   1.733   6.299   3.168  0.5656  0.9885 -0.4906
  166MOL    C9323523   1.728   6.502   3.250 -0.0604 -0.3507  0.0448
  166MOL    C9423524   1.822   6.571   3.148  0.4250  0.2403 -0.0040
  166MOL    C9523525   1.895   6.484   3.061  0.2392  0.6536  0.8428
  166MOL    N9623526   1.952   6.405   2.994  0.2768  0.3822 -0.1078
  166MOL    H9723527   1.654   6.577   3.280  0.3798  0.2516 -0.3725
  166MOL    H9823528   1.785   6.488   3.342  1.5678 -0.3587 -0.9555
  166MOL    H9923529   1.890   6.626   3.213  0.0062 -1.0076  1.5336
  166MOL   C10023530   1.747   6.684   3.069 -0.0727  0.3185  0.1521
  166MOL   C10123531   1.844   6.764   2.974  0.4233 -0.2664 -0.8562
  166MOL   C10223532   1.973   6.787   3.033  0.0921 -0.1931  0.1791
  166MOL   N10323533   2.075   6.806   3.083 -0.2255  0.2168 -0.1066
  166MOL   H10423534   1.658   6.649   3.017  0.8714 -1.1566 -0.5051
  166MOL   H10523535   1.703   6.758   3.136  0.9194  2.1547 -1.1942
  166MOL   H10623536   1.798   6.863   2.974 -0.0446 -0.4784 -0.0867
  166MOL   C10723537   1.858   6.700   2.834 -0.4349 -0.0885 -0.5438
  166MOL   C10823538   1.861   6.804   2.719 -0.4585 -0.2061  0.1628
  166MOL   C10923539   1.990   6.878   2.717 -0.1299 -0.6257 -0.4965
  166MOL   N11023540   2.084   6.939   2.708 -0.4269 -0.3320  0.4475
  166MOL   H11123541   1.951   6.643   2.833  1.3697  2.6640  1.8601
  166MOL   H11223542   1.778   6.626   2.827 -1.5942  1.1494 -0.6391
  166MOL   H11323543   1.793   6.884   2.745 -1.4723 -1.0034 -0.0079
  166MOL   C11423544   1.822   6.741   2.583 -1.0619 -0.4217  0.6999
  166MOL   C11523545   1.810   6.843   2.469 -0.5839  0.0701  0.7798
  166MOL   C11623546   1.798   6.790   2.331 -0.0264  0.3174 -0.0540
  166MOL   N11723547   1.782   6.742   2.221 -0.3498 -0.7974 -0.5727
  166MOL   H11823548   1.915   6.689   2.557  0.3341  1.1403  2.4098
  166MOL   H11923549   1.735   6.676   2.587 -1.9615  0.6811 -0.6245
  166MOL   H12023550   1.906   6.893   2.457 -1.3478  1.7030  1.1906
  166MOL   C12123551   1.703   6.949   2.482 -0.2550 -0.0368  0.2738
  166MOL   C12223552   1.557   6.903   2.457 -0.3986  0.6196 -0.0535
  166MOL   C12323553   1.518   6.793   2.539  0.2301 -0.0536 -0.0387
  166MOL   N12423554   1.498   6.698   2.607  0.2093  0.3114  0.5276
  166MOL   H12523555   1.704   7.008   2.573 -2.6180 -0.5725  0.6847
  166MOL   H12623556   1.718   7.014   2.395  0.0395 -1.3635 -0.6903
  166MOL   H12723557   1.547   6.852   2.361  2.1902 -0.5643  0.2401
  166MOL   C12823558   1.460   7.019   2.473 -0.0333 -0.3152  0.0280
  166MOL   C12923559   1.466   7.136   2.374 -0.3229 -0.5556  0.2940
  166MOL   C13023560   1.462   7.094   2.236  0.2800 -0.2513 -0.4275
  166MOL   N13123561   1.459   7.060   2.123 -0.4355 -0.7073 -0.1523
  166MOL   H13223562   1.357   6.990   2.455 -0.1012  0.4560 -0.8653
  166MOL   H13323563   1.457   7.056   2.575  0.6907 -0.0293 -0.0504
  166MOL   H13423564   1.569   7.172   2.380  0.3224 -2.1274 -1.0314
  166MOL   C13523565   1.367   7.249   2.393 -0.1671  0.2162 -0.5969
  166MOL   C13623566   1.389   7.370   2.305 -0.0899 -0.1695 -0.5185
  166MOL   C13723567   1.528   7.415   2.302  0.8017  0.6406  0.3729
  166MOL   N13823568   1.637   7.451   2.305 -0.4053  0.8029 -0.0357
  166MOL   H13923569   1.274   7.200   2.364 -1.4008  2.7688 -1.1009
  166MOL   H14023570   1.370   7.263   2.501 -1.1405  3.2290 -0.9188
  166MOL   H14123571   1.328   7.458   2.329  2.6715  1.0674  2.3418
  166MOL   H14223572   1.362   7.350   2.202 -0.1769 -1.0146 -0.3360
  167MOL     C123573   2.851   6.315   6.038 -1.0530 -0.6693  1.1124
  167MOL     C223574   2.919   6.243   6.163  0.0105 -0.4878  0.4231
  167MOL     C323575   2.847   6.121   6.195  0.4922  0.2500 -0.1146
  167MOL     N423576   2.790   6.025   6.212 -0.4748 -0.1523 -0.6421
  167MOL     H523577   2.755   6.359   6.064 -1.1055  0.4660 -0.9007
  167MOL     H623578   2.849   6.254   5.947 -0.5148 -0.1844  0.7725
  167MOL     H723579   2.910   6.299   6.256  0.1512  0.1321  0.0631
  167MOL     H823580   2.915   6.401   6.019  0.5703 -1.6984  1.7885
  167MOL     C923581   3.066   6.218   6.147 -0.5526  0.0213  0.3566
  167MOL    C1023582   3.161   6.337   6.112  0.2308 -0.5089 -0.2661
  167MOL    C1123583   3.142   6.457   6.203  0.2136  0.2111 -0.0948
  167MOL    N1223584   3.125   6.550   6.269  0.5687 -0.0554  0.0507
  167MOL    H1323585   3.096   6.169   6.240  0.4717  2.3474  1.2807
  167MOL    H1423586   3.086   6.139   6.074  1.2165 -0.1208  0.9781
  167MOL    H1523587   3.137   6.371   6.012  1.2008  2.3069  0.4034
  167MOL    C1623588   3.312   6.303   6.095 -0.5669 -0.3077 -0.1200
  167MOL    C1723589   3.413   6.339   6.209  0.7235  0.2668 -0.3410
  167MOL    C1823590   3.377   6.268   6.331  0.8474 -0.2337 -0.1299
  167MOL    N1923591   3.347   6.212   6.429 -0.1726 -0.0109 -0.1986
  167MOL    H2023592   3.337   6.209   6.045  1.6033  0.3539 -0.3281
  167MOL    H2123593   3.346   6.359   6.007 -2.5749 -0.1225 -0.8237
  167MOL    H2223594   3.383   6.441   6.234 -1.6273 -0.4471 -0.1161
  167MOL    C2323595   3.561   6.328   6.178 -0.4694 -0.5676  0.2306
  167MOL    C2423596   3.656   6.427   6.258 -0.5253 -0.4417  0.3406
  167MOL    C2523597   3.616   6.451   6.402 -0.4258 -0.5791 -0.1660
  167MOL    N2623598   3.577   6.467   6.510  0.0080  0.1887 -0.4357
  167MOL    H2723599   3.606   6.230   6.197  0.7195  0.0215  0.4874
  167MOL    H2823600   3.570   6.347   6.071 -0.4810  1.6202  0.6007
  167MOL    H2923601   3.639   6.516   6.197 -0.3184 -1.4018 -1.1629
  167MOL    C3023602   3.809   6.392   6.246  0.2469 -0.3298  0.3930
  167MOL    C3123603   3.864   6.255   6.300 -0.8080  0.5013 -0.4142
  167MOL    C3223604   4.011   6.261   6.283 -0.0278  0.3282  0.8231
  167MOL    N3323605   4.127   6.268   6.269 -0.0124  0.1944 -0.0833
  167MOL    H3423606   3.838   6.398   6.142 -1.3020  0.2890 -0.0200
  167MOL    H3523607   3.858   6.481   6.287 -0.2180 -0.2607  0.8082
  167MOL    H3623608   3.817   6.176   6.242 -1.8954  1.0186 -0.2527
  167MOL    C3723609   3.817   6.223   6.448  0.2089 -0.0210  0.0449
  167MOL    C3823610   3.866   6.092   6.500 -0.1902 -1.1257  0.3639
  167MOL    C3923611   4.016   6.086   6.528  0.4561 -0.1297  0.3935
  167MOL    N4023612   4.127   6.095   6.544 -0.2500  0.0073 -0.0270
  167MOL    H4123613   3.842   6.308   6.511  1.8102 -1.9099  2.0222
  167MOL    H4223614   3.709   6.207   6.450  0.0207  1.0538 -0.7011
  167MOL    H4323615   3.847   6.012   6.428 -0.0740 -1.6959  0.9543
  167MOL    C4423616   3.780   6.035   6.612  0.1734 -1.1407 -0.4469
  167MOL    C4523617   3.799   6.073   6.757  0.7287 -0.3629  0.1261
  167MOL    C4623618   3.899   5.986   6.823  0.3430 -0.9413  1.1361
  167MOL    N4723619   3.989   5.930   6.866  0.5799  0.0022  0.1288
  167MOL    H4823620   3.675   6.051   6.587 -0.3974 -0.4761  2.1285
  167MOL    H4923621   3.779   5.926   6.602 -0.4810 -1.1651 -0.2043
  167MOL    H5023622   3.707   6.038   6.805  1.1140 -1.4654  0.0891
  167MOL    C5123623   3.816   6.221   6.787  0.6108 -0.4407  0.0100
  167MOL    C5223624   3.852   6.272   6.923  0.4925 -0.8845 -0.6685
  167MOL    C5323625   3.775   6.192   7.023 -0.6138  0.1887 -0.5243
  167MOL    N5423626   3.715   6.137   7.104 -0.0857  0.2205  0.4163
  167MOL    H5523627   3.888   6.261   6.715 -1.4420  0.1810 -1.7644
  167MOL    H5623628   3.718   6.259   6.757  1.2505  0.9066 -0.4142
  167MOL    H5723629   3.809   6.372   6.922  0.9724 -0.6716 -0.1192
  167MOL    C5823630   4.001   6.286   6.949 -0.2107 -0.0603  0.0234
  167MOL    C5923631   4.050   6.322   7.089 -0.1422 -0.3647 -0.6103
  167MOL    C6023632   3.949   6.390   7.169 -0.7738 -0.1938 -0.3693
  167MOL    N6123633   3.868   6.430   7.241 -0.2545  0.0339  0.6804
  167MOL    H6223634   4.054   6.201   6.906 -0.4322 -0.1765 -0.0201
  167MOL    H6323635   4.034   6.376   6.895  0.0259 -0.4295 -0.4489
  167MOL    H6423636   4.125   6.400   7.076  1.0028 -1.3379  0.1153
  167MOL    C6523637   4.102   6.206   7.173 -0.1608 -0.1257 -0.9124
  167MOL    C6623638   4.222   6.128   7.123 -0.4150  0.3631  0.0771
  167MOL    C6723639   4.338   6.216   7.102 -0.1145 -0.0663 -0.3827
  167MOL    N6823640   4.433   6.284   7.087  0.2360  0.0678  0.3818
  167MOL    H6923641   4.103   6.232   7.279  0.3451  0.1525 -0.9852
  167MOL    H7023642   4.027   6.127   7.172  1.9686 -2.1993 -0.7472
  167MOL    H7123643   4.200   6.080   7.028  0.4877 -0.1790  0.1286
  167MOL    C7223644   4.255   6.019   7.232  0.3930 -0.5085 -0.4712
  167MOL    C7323645   4.328   5.899   7.176 -0.6626 -0.0863  1.1436
  167MOL    C7423646   4.441   5.926   7.085  0.8471  0.9420  0.0616
  167MOL    N7523647   4.534   5.939   7.016 -0.3421  0.6220  0.7660
  167MOL    H7623648   4.303   6.065   7.318 -0.7626  1.1324 -0.6823
  167MOL    H7723649   4.157   5.979   7.258  0.4009  0.4255  1.0417
  167MOL    H7823650   4.260   5.848   7.106 -0.0613  1.5281 -0.6682
  167MOL    C7923651   4.379   5.806   7.284 -0.2913 -0.0713  0.2574
  167MOL    C8023652   4.284   5.719   7.360  0.6909 -0.3465  0.6946
  167MOL    C8123653   4.171   5.669   7.279  0.2607 -0.0544 -0.3577
  167MOL    N8223654   4.080   5.640   7.215 -0.6573 -0.4859  0.2192
  167MOL    H8323655   4.452   5.741   7.236  1.1909 -0.6138  3.1405
  167MOL    H8423656   4.434   5.864   7.359  1.3149  0.7896 -1.5582
  167MOL    H8523657   4.239   5.782   7.436  0.1332  1.4619 -1.0846
  167MOL    C8623658   4.356   5.605   7.440 -0.5701 -0.6800 -0.2503
  167MOL    C8723659   4.304   5.568   7.583  0.2297  1.2950 -0.4408
  167MOL    C8823660   4.312   5.692   7.663  0.1014  0.2031  0.6367
  167MOL    N8923661   4.317   5.787   7.728  0.2203 -0.1489 -0.2183
  167MOL    H9023662   4.364   5.514   7.380 -2.4314 -1.1665  0.1911
  167MOL    H9123663   4.459   5.640   7.447 -0.6018 -0.1300 -2.3042
  167MOL    H9223664   4.371   5.493   7.624 -2.0002  0.3158  1.5204
  167MOL    C9323665   4.162   5.518   7.578  0.9993 -0.4099  0.2890
  167MOL    C9423666   4.136   5.421   7.704  0.7293 -0.0486 -0.0403
  167MOL    C9523667   4.194   5.464   7.828 -0.6159  0.4271 -0.6022
  167MOL    N9623668   4.236   5.489   7.935  0.6314 -0.0129  0.4403
  167MOL    H9723669   4.090   5.596   7.602  2.1802  0.4343  1.2091
  167MOL    H9823670   4.147   5.468   7.482 -0.6577 -0.1301  0.3893
  167MOL    H9923671   4.180   5.326   7.674  0.6712 -0.2641  0.5392
  167MOL   C10023672   3.985   5.387   7.713 -0.2970 -0.0136  0.1724
  167MOL   C10123673   3.938   5.269   7.797 -0.4494 -0.6231  0.0741
  167MOL   C10223674   4.009   5.144   7.776  1.2392  0.1895  0.2623
  167MOL   N10323675   4.061   5.044   7.757 -0.7135  0.0530 -0.0102
  167MOL   H10423676   3.931   5.474   7.749  0.7373  0.7118 -0.0073
  167MOL   H10523677   3.953   5.366   7.611  0.4380  1.0460 -0.2860
  167MOL   H10623678   3.833   5.254   7.772 -0.9665  2.4583  0.2729
  167MOL   C10723679   3.954   5.294   7.947 -0.3506  0.5869 -0.4767
  167MOL   C10823680   3.848   5.213   8.023 -0.6129 -0.3584  0.2695
  167MOL   C10923681   3.852   5.065   7.989 -0.0297  0.1647 -0.2107
  167MOL   N11023682   3.855   4.952   7.976  0.0233 -0.5588 -0.7176
  167MOL   H11123683   4.053   5.266   7.982 -1.2138 -1.7379  0.1537
  167MOL   H11223684   3.944   5.401   7.970  0.6077  0.6815 -0.5022
  167MOL   H11323685   3.756   5.247   7.976 -1.3932 -1.9955  0.5555
  167MOL   C11423686   3.828   5.245   8.180 -0.3549  0.5191 -0.0435
  167MOL   C11523687   3.944   5.206   8.274  0.2346  0.1832 -0.3974
  167MOL   C11623688   4.068   5.283   8.261 -0.3306  0.2060 -0.4506
  167MOL   N11723689   4.164   5.346   8.248  0.7790  0.2505 -0.3475
  167MOL   H11823690   3.801   5.346   8.208 -0.2176  0.5761 -0.1173
  167MOL   H11923691   3.741   5.184   8.207 -0.5032  1.2082  1.0281
  167MOL   H12023692   3.971   5.103   8.250  2.2718  1.1392 -2.4105
  167MOL   C12123693   3.897   5.210   0.114 -0.0735  0.0443 -0.3549
  167MOL   C12223694   3.999   5.128   0.208 -0.0412 -0.9998  0.1806
  167MOL   C12323695   4.120   5.199   0.234  0.1969  0.0823 -0.4084
  167MOL   N12423696   4.210   5.266   0.258 -1.0565  0.3200  0.4252
  167MOL   H12523697   3.902   5.307   0.164 -2.3017  0.3042 -0.5927
  167MOL   H12623698   3.797   5.169   0.123 -0.7188  1.7411  0.3196
  167MOL   H12723699   4.031   5.042   0.148  0.3942 -1.7731  1.5111
  167MOL   C12823700   3.927   5.080   0.340  0.5087  0.6995  0.2422
  167MOL   C12923701   3.830   4.957   0.327  0.3952 -0.8818 -0.9607
  167MOL   C13023702   3.905   4.843   0.274  0.2387  0.2375  0.1166
  167MOL   N13123703   3.961   4.747   0.236 -0.0562 -0.3426 -0.6411
  167MOL   H13223704   4.011   5.040   0.398 -0.4535 -2.3048 -0.3321
  167MOL   H13323705   3.879   5.162   0.392 -3.0441 -0.5500 -0.9273
  167MOL   H13423706   3.756   4.986   0.252  0.3568 -0.2281 -0.6692
  167MOL   C13523707   3.745   4.926   0.454  0.6929 -0.2860 -0.4783
  167MOL   C13623708   3.616   4.843   0.422 -0.1845  0.1603 -0.5035
  167MOL   C13723709   3.530   4.799   0.537 -0.4040 -0.3837  0.7567
  167MOL   N13823710   3.459   4.763   0.621 -0.0487 -0.2371  0.3755
  167MOL   H13923711   3.802   4.881   0.535 -1.0465 -2.0845 -0.1945
  167MOL   H14023712   3.724   5.026   0.491 -1.9788 -1.6556  1.8774
  167MOL   H14123713   3.659   4.762   0.363 -2.8268 -0.3761 -1.8129
  167MOL   H14223714   3.548   4.893   0.353  0.4070  0.6935 -0.7069
  168MOL     C123715   8.089   7.576   7.615  0.0532 -0.1574 -0.2143
  168MOL     C223716   8.065   7.659   7.482  0.1318 -0.1004  0.7144
  168MOL     C323717   8.033   7.575   7.368  0.3470  0.3714 -0.0003
  168MOL     N423718   8.003   7.503   7.280  0.5917 -0.2350 -0.9551
  168MOL     H523719   7.989   7.535   7.630 -0.0098  0.1089  0.1058
  168MOL     H623720   8.115   7.641   7.699 -0.2856  1.3358 -1.2481
  168MOL     H723721   8.157   7.706   7.449 -0.5829  0.1226 -0.9896
  168MOL     H823722   8.157   7.492   7.608 -2.1946 -1.9160 -1.5697
  168MOL     C923723   7.962   7.776   7.496 -0.1276  0.0741 -0.0105
  168MOL    C1023724   8.000   7.894   7.593  0.6639  0.2122  0.1141
  168MOL    C1123725   8.108   7.962   7.520  0.3152 -0.5886  0.2770
  168MOL    N1223726   8.186   8.018   7.458 -0.1325 -0.3422  0.8991
  168MOL    H1323727   7.933   7.829   7.405 -1.3174 -0.2817  0.1468
  168MOL    H1423728   7.860   7.741   7.512 -0.6277  1.1131 -0.8599
  168MOL    H1523729   8.036   7.854   7.688  1.5308  1.4014  0.2862
  168MOL    C1623730   7.876   7.983   7.610 -0.1518  0.1230  0.3945
  168MOL    C1723731   7.880   8.076   7.729  0.9873 -0.3800 -0.1788
  168MOL    C1823732   8.000   8.164   7.743 -0.1363  1.0625  0.0945
  168MOL    N1923733   8.093   8.233   7.763  0.0506  0.2196  0.4993
  168MOL    H2023734   7.862   8.043   7.520  1.9832  1.0804  0.6596
  168MOL    H2123735   7.791   7.917   7.623 -0.0992  0.1166  0.7006
  168MOL    H2223736   7.879   8.005   7.812  0.1086 -0.2564 -0.0779
  168MOL    C2323737   7.754   8.162   7.721 -0.3800  0.4812 -0.8239
  168MOL    C2423738   7.713   8.241   7.854  0.6368  0.0299  0.5968
  168MOL    C2523739   7.660   8.151   7.964 -0.0994 -0.3178  0.5752
  168MOL    N2623740   7.620   8.084   8.047  0.4287  0.1740  0.2554
  168MOL    H2723741   7.745   8.223   7.631 -1.2364  0.0821 -1.0121
  168MOL    H2823742   7.667   8.101   7.695  1.0421 -1.1953 -1.7773
  168MOL    H2923743   7.622   8.286   7.815  0.5246 -1.6818 -1.2315
  168MOL    C3023744   7.806   0.040   7.909 -0.8244  0.4340 -0.5311
  168MOL    C3123745   7.756   0.113   8.035 -0.1932 -0.7370  0.0893
  168MOL    C3223746   7.843   0.221   8.072  0.6113  0.0816  0.2320
  168MOL    N3323747   7.919   0.309   8.096 -0.1406  0.2875 -0.2462
  168MOL    H3423748   7.904   0.001   7.934 -0.7944  0.7461 -0.1533
  168MOL    H3523749   7.807   0.120   7.834 -0.4417 -1.4745 -2.6220
  168MOL    H3623750   7.764   0.048   8.121 -0.3876 -2.3855 -1.1233
  168MOL    C3723751   7.609   0.166   8.015  0.3903 -0.3133  0.6618
  168MOL    C3823752   7.553   0.214   8.150  0.4085 -0.0823  0.2714
  168MOL    C3923753   7.434   0.308   8.133  0.0775  0.9204 -0.2141
  168MOL    N4023754   7.347   0.388   8.127 -0.7496  0.1159 -0.4681
  168MOL    H4123755   7.610   0.247   7.941 -1.5402 -0.9212 -0.0501
  168MOL    H4223756   7.536   0.096   7.976  1.2781 -1.6472  1.3426
  168MOL    H4323757   7.634   0.275   8.189 -0.2714  1.3697 -0.5585
  168MOL    C4423758   7.511   0.096   8.235  0.3821 -0.2700 -0.5844
  168MOL    C4523759   7.535   0.120   0.070  0.3899  0.3410  0.3245
  168MOL    C4623760   7.674   0.162   0.087  0.0068 -0.0893 -0.3800
  168MOL    N4723761   7.785   0.190   0.103  0.4537  0.0808  0.6025
  168MOL    H4823762   7.408   0.064   8.219 -0.7719  2.4044  1.2389
  168MOL    H4923763   7.574   0.007   8.227 -0.7176 -1.1416  0.2217
  168MOL    H5023764   7.533   0.026   0.125  1.1834  0.6305  0.8607
  168MOL    C5123765   7.457   0.239   0.127 -0.5208 -0.0417  0.6007
  168MOL    C5223766   7.305   0.220   0.141 -0.2905 -0.1443  0.1004
  168MOL    C5323767   7.277   0.120   0.251  0.2357 -0.3029 -0.3415
  168MOL    N5423768   7.254   0.044   0.334 -0.0078  0.0393  0.2715
  168MOL    H5523769   7.494   0.271   0.225  0.4762  1.1853 -0.1609
  168MOL    H5623770   7.467   0.330   0.068 -0.7331  0.5538  1.4685
  168MOL    H5723771   7.258   0.165   0.059 -1.5195  0.6036  0.2800
  168MOL    C5823772   7.229   0.353   0.159  0.2246 -0.1503  0.2952
  168MOL    C5923773   7.082   0.345   0.215 -1.4128  0.5968 -0.1434
  168MOL    C6023774   7.053   0.459   0.312 -0.3420 -0.0934  0.5621
  168MOL    N6123775   7.035   0.544   0.389 -0.4714  0.7601  0.3383
  168MOL    H6223776   7.294   0.403   0.231 -1.4119 -0.3853  1.9586
  168MOL    H6323777   7.234   0.409   0.065  2.8798 -0.0731  0.4481
  168MOL    H6423778   7.082   0.255   0.277 -1.6957  0.7327  0.0584
  168MOL    C6523779   6.974   0.334   0.105 -0.6986 -0.1053 -0.0941
  168MOL    C6623780   6.928   0.463   0.036  0.3716  1.1616  0.6181
  168MOL    C6723781   7.035   0.560   8.310  0.1711  0.0403  0.0176
  168MOL    N6823782   7.114   0.640   8.279 -0.4884  0.3020 -0.3984
  168MOL    H6923783   7.005   0.262   0.030  1.0758  0.6759 -0.1444
  168MOL    H7023784   6.895   0.286   0.161  1.2729 -0.5774  2.3944
  168MOL    H7123785   6.872   0.511   0.117 -1.4992  0.8966 -0.5095
  168MOL    C7223786   6.840   0.426   8.226  0.3726 -0.0630 -0.4647
  168MOL    C7323787   6.785   0.542   8.143 -0.0112 -0.2129  0.7862
  168MOL    C7423788   6.777   0.669   8.221 -0.4381 -0.2636  0.6546
  168MOL    N7523789   6.775   0.771   8.278 -0.8404  0.3023  0.8640
  168MOL    H7623790   6.900   0.358   8.166  1.3184 -1.1969  1.7115
  168MOL    H7723791   6.749   0.376   8.260 -0.3307  2.3713  1.4375
  168MOL    H7823792   6.687   0.513   8.106  0.1933 -0.6465  0.5868
  168MOL    C7923793   6.876   0.567   8.025  0.5509 -0.3440 -0.3437
  168MOL    C8023794   6.809   0.662   7.928 -0.2109  0.2388  1.0146
  168MOL    C8123795   6.907   0.702   7.827  0.1598  0.3010 -0.7665
  168MOL    N8223796   6.986   0.730   7.751  0.3701 -0.3237 -0.0108
  168MOL    H8323797   6.967   0.611   8.067  1.0169  0.1485 -1.8437
  168MOL    H8423798   6.912   0.473   7.983  0.2209 -0.1715 -1.0140
  168MOL    H8523799   6.790   0.751   7.987  0.2706  0.7929  0.3459
  168MOL    C8623800   6.677   0.600   7.860 -0.2717 -0.0981 -0.2649
  168MOL    C8723801   6.680   0.483   7.765 -0.2509 -0.2495  0.4514
  168MOL    C8823802   6.713   0.357   7.837 -0.6911  0.2481 -0.6753
  168MOL    N8923803   6.732   0.258   7.896  0.0307 -0.1893  0.0459
  168MOL    H9023804   6.597   0.573   7.929 -2.4693  3.5764 -1.2523
  168MOL    H9123805   6.634   0.690   7.816 -2.1543 -1.7389 -1.9000
  168MOL    H9223806   6.761   0.500   7.694 -1.1167  1.6137 -0.1348
  168MOL    C9323807   6.551   0.468   7.682  0.9004  0.1774  0.2989
  168MOL    C9423808   6.557   0.354   7.580 -0.1910  0.6248 -0.0782
  168MOL    C9523809   6.688   0.359   7.508 -0.3105  0.5774 -0.0419
  168MOL    N9623810   6.785   0.365   7.448 -0.1731  0.0720 -0.2858
  168MOL    H9723811   6.469   0.447   7.749 -1.4723  2.8582 -1.6255
  168MOL    H9823812   6.527   0.566   7.639  2.7398 -0.2959 -1.9524
  168MOL    H9923813   6.486   0.385   7.504 -0.7236  0.2168  0.2414
  168MOL   C10023814   6.502   0.206   7.622 -0.1847  0.5961 -0.0879
  168MOL   C10123815   6.357   0.199   7.668 -0.3724 -0.0328  0.3328
  168MOL   C10223816   6.274   0.317   7.635 -0.1858 -1.0196 -0.0324
  168MOL   N10323817   6.216   0.409   7.607  0.1579  0.6204 -0.5221
  168MOL   H10423818   6.518   0.153   7.528 -0.7133 -1.1838  0.7952
  168MOL   H10523819   6.568   0.149   7.687 -2.9043 -0.0547  2.2220
  168MOL   H10623820   6.355   0.207   7.777 -0.4594  2.9631  0.1389
  168MOL   C10723821   6.293   0.066   7.625  0.5008 -0.4833 -0.0024
  168MOL   C10823822   6.152   0.036   7.676  0.0865 -0.1139  0.0068
  168MOL   C10923823   6.154   0.035   7.826  0.9565 -0.1998  0.4249
  168MOL   N11023824   6.163   0.034   7.942 -0.0816 -0.7072  0.1748
  168MOL   H11123825   6.287   0.057   7.516 -1.8478  2.7455 -0.2068
  168MOL   H11223826   6.352   8.294   7.661  0.9489 -0.2637 -0.2196
  168MOL   H11323827   6.133   8.246   7.645  2.0487 -0.6308  0.4328
  168MOL   C11423828   6.044   0.130   7.614 -0.2463  0.4757  0.1463
  168MOL   C11523829   5.912   0.066   7.602  0.2077 -0.2409  1.0232
  168MOL   C11623830   5.844   0.040   7.732  0.3182  0.3602 -0.4393
  168MOL   N11723831   5.793   0.018   7.835 -0.1482 -0.6848 -0.8133
  168MOL   H11823832   6.034   0.211   7.686  0.1359  1.6248 -1.0840
  168MOL   H11923833   6.080   0.170   7.520  1.0970 -2.9691 -0.8769
  168MOL   H12023834   5.933   8.272   7.594 -1.6503 -0.6720  1.5678
  168MOL   C12123835   5.819   0.108   7.481  0.1949  0.0755 -0.0040
  168MOL   C12223836   5.750   0.239   7.515 -0.0812  0.1152 -0.2414
  168MOL   C12323837   5.846   0.355   7.523  0.1124 -0.2216 -0.3201
  168MOL   N12423838   5.922   0.447   7.529 -0.0316 -0.0849 -0.2603
  168MOL   H12523839   5.864   0.114   7.383  0.7594 -0.5482  0.2126
  168MOL   H12623840   5.751   0.026   7.459 -1.1549  0.9626  0.7884
  168MOL   H12723841   5.710   0.229   7.616 -1.8764  2.1390 -0.7180
  168MOL   C12823842   5.635   0.277   7.418  0.3773 -0.2179 -0.7029
  168MOL   C12923843   5.522   0.371   7.478  0.2578  0.1417  0.3250
  168MOL   C13023844   5.573   0.503   7.503  0.2183 -0.4329 -0.5031
  168MOL   N13123845   5.611   0.611   7.524 -0.1096 -0.2915 -0.1683
  168MOL   H13223846   5.671   0.323   7.326 -2.0297  2.9138 -0.1396
  168MOL   H13323847   5.581   0.185   7.395  1.7247 -1.2796  0.2879
  168MOL   H13423848   5.481   0.332   7.571  0.5411 -0.2989  0.2700
  168MOL   C13523849   5.410   0.373   7.376  0.0237  0.0821  0.7628
  168MOL   C13623850   5.336   0.237   7.372 -0.0386 -0.2174 -0.7481
  168MOL   C13723851   5.201   0.229   7.317 -0.2391  0.7107 -0.2516
  168MOL   N13823852   5.094   0.237   7.272 -0.1101 -0.1243  0.7147
  168MOL   H13923853   5.339   0.450   7.405 -1.0582 -0.1543 -1.1927
  168MOL   H14023854   5.435   0.405   7.275 -0.5815  0.6114  0.7792
  168MOL   H14123855   5.328   0.213   7.478  0.3983 -0.0542 -0.6744
  168MOL   H14223856   5.395   0.149   7.345  1.6370  0.0847  1.7238
  169MOL     C123857   6.028   5.326   6.511  0.3016  0.4014 -0.5626
  169MOL     C223858   6.182   5.323   6.513 -0.0100 -0.7124 -0.5251
  169MOL     C323859   6.231   5.271   6.379  0.0708 -0.0165 -0.0606
  169MOL     N423860   6.268   5.235   6.274  0.2070  0.0618  0.4029
  169MOL     H523861   5.997   5.394   6.431  0.1211 -1.8988 -2.4931
  169MOL     H623862   6.000   5.347   6.614 -2.0586  0.2509 -1.1553
  169MOL     H723863   6.217   5.252   6.587 -1.0524 -1.6129 -0.8744
  169MOL     H823864   5.995   5.225   6.487  1.1589 -0.4392  1.6906
  169MOL     C923865   6.247   5.462   6.532 -0.1720 -0.3955 -0.1275
  169MOL    C1023866   6.193   5.542   6.647  0.5222  0.2164  0.1112
  169MOL    C1123867   6.165   5.467   6.770 -0.7470 -0.2951 -0.0892
  169MOL    N1223868   6.144   5.408   6.870  0.0775 -0.0724  0.1807
  169MOL    H1323869   6.353   5.445   6.551  0.4141  1.9572 -1.0299
  169MOL    H1423870   6.237   5.530   6.447  1.1095  0.9379  0.7504
  169MOL    H1523871   6.095   5.576   6.615 -0.5107 -3.7468 -1.1504
  169MOL    C1623872   6.280   5.669   6.667  0.0511  0.0647 -0.2136
  169MOL    C1723873   6.385   5.675   6.785  0.1216 -0.1021 -0.3574
  169MOL    C1823874   6.495   5.583   6.761  0.1122  0.3608 -0.1227
  169MOL    N1923875   6.579   5.507   6.739 -0.1941  0.1861 -0.4963
  169MOL    H2023876   6.330   5.710   6.579 -1.2079  0.1735 -0.8951
  169MOL    H2123877   6.208   5.748   6.689  1.5084  1.1851  0.6226
  169MOL    H2223878   6.338   5.641   6.877  1.4700 -0.3012  0.2609
  169MOL    C2323879   6.439   5.819   6.812 -0.2930  0.4531  0.0144
  169MOL    C2423880   6.529   5.822   6.941 -0.1671 -0.2251  0.7301
  169MOL    C2523881   6.661   5.759   6.917  0.8094 -0.0838 -0.0073
  169MOL    N2623882   6.765   5.712   6.894 -0.7444  0.1429 -0.0890
  169MOL    H2723883   6.495   5.857   6.726  2.6740  1.2891  2.2037
  169MOL    H2823884   6.354   5.887   6.817  0.2948  1.2937 -1.0558
  169MOL    H2923885   6.477   5.758   7.013  0.0423 -2.3511 -0.9677
  169MOL    C3023886   6.539   5.964   6.996  0.3593  0.0125  0.3674
  169MOL    C3123887   6.547   5.967   7.149  0.2216  0.4533 -0.2900
  169MOL    C3223888   6.670   5.903   7.189  0.9548 -0.6525 -0.0996
  169MOL    N3323889   6.767   5.858   7.231  0.0409  0.3597  0.5316
  169MOL    H3423890   6.630   6.000   6.948  0.3117  0.0014  0.2697
  169MOL    H3523891   6.452   6.020   6.964 -0.3356 -1.5474 -0.5491
  169MOL    H3623892   6.471   5.904   7.194 -0.7106  0.6411 -1.5948
  169MOL    C3723893   6.520   6.109   7.201 -0.0434  0.2326  0.4872
  169MOL    C3823894   6.546   6.137   7.348 -0.0115 -0.9791  0.1812
  169MOL    C3923895   6.685   6.112   7.384  0.3748  0.0146 -0.6416
  169MOL    N4023896   6.798   6.105   7.412  0.0672 -0.0083 -0.5548
  169MOL    H4123897   6.588   6.166   7.138 -0.5159  1.7675  1.3303
  169MOL    H4223898   6.420   6.130   7.164  0.7954  2.3641 -0.6296
  169MOL    H4323899   6.484   6.080   7.418  0.3404 -0.7656  0.6682
  169MOL    C4423900   6.519   6.284   7.375 -0.4512 -0.1578 -0.0889
  169MOL    C4523901   6.514   6.330   7.525 -0.0497 -0.2169 -1.1862
  169MOL    C4623902   6.541   6.479   7.534 -0.1551  0.0975  0.4962
  169MOL    N4723903   6.558   6.594   7.533 -0.3687  0.3130  0.5731
  169MOL    H4823904   6.591   6.339   7.313 -0.1995  0.5041  0.7822
  169MOL    H4923905   6.415   6.299   7.345 -0.1203  0.4738 -0.9382
  169MOL    H5023906   6.600   6.287   7.577  0.8143  2.2945 -0.4653
  169MOL    C5123907   6.389   6.281   7.596  0.0105  0.5469 -0.7109
  169MOL    C5223908   6.385   6.312   7.748 -0.4032 -0.2024  0.5254
  169MOL    C5323909   6.386   6.457   7.780  0.1982 -0.4468  0.0561
  169MOL    N5423910   6.388   6.570   7.817  0.3506 -0.1812  0.4211
  169MOL    H5523911   6.305   6.327   7.544 -1.0349  0.9193  1.2591
  169MOL    H5623912   6.385   6.173   7.577  1.4195  0.4526 -0.4994
  169MOL    H5723913   6.472   6.262   7.792  0.1977 -0.3796 -0.8288
  169MOL    C5823914   6.259   6.242   7.824 -0.5836 -0.0677 -0.0784
  169MOL    C5923915   6.133   6.331   7.816 -0.1548 -0.5188  0.1301
  169MOL    C6023916   6.092   6.371   7.685  0.0922 -0.9589 -0.4591
  169MOL    N6123917   6.060   6.407   7.578  0.2458 -0.2207  0.3536
  169MOL    H6223918   6.226   6.147   7.783 -2.8907  1.4260 -1.7658
  169MOL    H6323919   6.287   6.220   7.928  1.2799  2.4574  0.0091
  169MOL    H6423920   6.154   6.422   7.871  0.3967 -0.7891  0.3695
  169MOL    C6523921   6.017   6.255   7.899 -0.2684  0.8140 -0.6052
  169MOL    C6623922   5.881   6.321   7.889 -0.4944  0.5522 -0.2385
  169MOL    C6723923   5.814   6.268   7.771  0.3980 -0.0067  0.5754
  169MOL    N6823924   5.761   6.223   7.683  1.0872 -0.6003  0.7619
  169MOL    H6923925   6.006   6.150   7.873 -0.7631  0.5424  0.6636
  169MOL    H7023926   6.059   6.232   7.997  0.2507  0.1225 -0.9830
  169MOL    H7123927   5.911   6.425   7.876  0.8690  0.0701 -1.0725
  169MOL    C7223928   5.802   6.289   8.012 -0.3568  0.4826 -0.5206
  169MOL    C7323929   5.654   6.336   8.006 -0.4349 -0.0409 -0.9612
  169MOL    C7423930   5.560   6.259   8.093  1.3192 -0.2359 -0.0805
  169MOL    N7523931   5.486   6.202   8.159  0.0572  0.1252 -0.2590
  169MOL    H7623932   5.815   6.183   8.035 -0.7863  0.5507  0.0522
  169MOL    H7723933   5.836   6.343   8.101 -0.3844  0.2245 -0.3520
  169MOL    H7823934   5.623   6.302   7.907 -0.9645 -0.3002 -0.7100
  169MOL    C7923935   5.636   6.489   8.017  1.0833 -0.5431  1.2373
  169MOL    C8023936   5.484   6.534   8.021 -0.0796 -0.6538 -0.3631
  169MOL    C8123937   5.428   6.527   8.157 -0.2765  0.3220 -0.2020
  169MOL    N8223938   5.384   6.518   8.265 -0.0210  0.0233 -0.2543
  169MOL    H8323939   5.693   6.539   8.095  0.9496  0.7652  0.4955
  169MOL    H8423940   5.688   6.531   7.931 -0.4853 -0.7019  0.1935
  169MOL    H8523941   5.433   6.459   7.961  0.3938 -0.5655 -0.8827
  169MOL    C8623942   5.486   6.680   7.976  0.1628 -0.2431 -1.0365
  169MOL    C8723943   5.349   6.759   7.959 -0.1772  0.2600  0.0895
  169MOL    C8823944   5.389   6.893   7.922  0.0834 -0.2230  0.0872
  169MOL    N8923945   5.418   7.000   7.903 -0.6763  0.7123  0.1654
  169MOL    H9023946   5.551   6.733   8.046 -0.2277 -0.9785 -0.1127
  169MOL    H9123947   5.544   6.692   7.884 -0.5916 -0.9077 -1.6023
  169MOL    H9223948   5.310   6.773   8.060  2.3399  2.2994  0.8497
  169MOL    C9323949   5.252   6.697   7.859 -0.4412 -0.4339 -0.5237
  169MOL    C9423950   5.107   6.754   7.871  0.0237  0.5868  0.5638
  169MOL    C9523951   5.080   6.893   7.841 -0.7067  0.0012 -0.1096
  169MOL    N9623952   5.062   7.004   7.815  0.0058 -0.2668 -0.2737
  169MOL    H9723953   5.289   6.721   7.759 -2.1635 -0.3541 -1.1587
  169MOL    H9823954   5.252   6.588   7.867  1.3965 -0.2780  2.1045
  169MOL    H9923955   5.095   6.750   7.979  0.9003  2.0299  0.7362
  169MOL   C10023956   5.004   6.659   7.807 -0.7316  0.0997 -0.0736
  169MOL   C10123957   5.002   6.666   7.653 -0.2979  0.4736  0.4237
  169MOL   C10223958   4.949   6.539   7.605 -0.4402  0.6697 -0.1547
  169MOL   N10323959   4.906   6.440   7.568  0.7255  0.5804 -0.8152
  169MOL   H10423960   5.021   6.556   7.840 -1.8048  0.0245  0.2697
  169MOL   H10523961   4.908   6.679   7.854 -0.7158  1.1658 -0.4920
  169MOL   H10623962   5.103   6.675   7.613 -0.1468 -0.3056  0.6400
  169MOL   C10723963   4.919   6.781   7.590 -0.2173  0.4334 -0.1493
  169MOL   C10823964   4.980   6.838   7.461 -0.1380  0.3335 -0.0294
  169MOL   C10923965   4.964   6.747   7.351 -0.9695 -0.2996  0.6160
  169MOL   N11023966   4.958   6.671   7.261 -0.2134  0.0599 -0.1221
  169MOL   H11123967   4.816   6.750   7.569 -0.7109  0.8626  1.5131
  169MOL   H11223968   4.913   6.858   7.667  1.7761  0.6020 -0.1581
  169MOL   H11323969   5.087   6.831   7.479  0.0113 -3.6928 -1.8954
  169MOL   C11423970   4.942   6.982   7.434  0.5508  0.7431 -0.6119
  169MOL   C11523971   4.800   7.010   7.373  0.3129 -0.4898  0.1073
  169MOL   C11623972   4.686   6.979   7.457  0.1308  0.3797  0.0955
  169MOL   N11723973   4.594   6.946   7.519 -0.2712 -0.0636  0.0537
  169MOL   H11823974   4.945   7.041   7.526  0.7854 -0.8588  0.4246
  169MOL   H11923975   5.019   7.017   7.365  1.0769 -0.0856 -0.4534
  169MOL   H12023976   4.793   6.939   7.291  0.4666  0.1676 -0.4769
  169MOL   C12123977   4.799   7.158   7.331  0.2705 -0.3480  0.0663
  169MOL   C12223978   4.672   7.207   7.259  0.3100 -0.4722 -0.1814
  169MOL   C12323979   4.638   7.113   7.156  0.5190 -0.3504  0.2806
  169MOL   N12423980   4.606   7.041   7.073  0.3703 -0.2621 -0.5873
  169MOL   H12523981   4.805   7.217   7.422 -3.9997 -1.3713  1.1230
  169MOL   H12623982   4.876   7.191   7.262 -0.1192  1.4513  0.4633
  169MOL   H12723983   4.697   7.290   7.193 -0.7890 -0.2303 -0.3011
  169MOL   C12823984   4.561   7.266   7.341  0.4393 -0.0929 -0.2739
  169MOL   C12923985   4.438   7.318   7.264  0.3747 -0.0817  0.9484
  169MOL   C13023986   4.349   7.207   7.220  0.3581 -0.5599  0.0040
  169MOL   N13123987   4.287   7.117   7.188  0.2258 -0.0720 -0.2778
  169MOL   H13223988   4.538   7.176   7.399  1.4895 -1.0546 -1.3143
  169MOL   H13323989   4.586   7.338   7.419  1.3473 -0.2178 -0.4448
  169MOL   H13423990   4.471   7.374   7.177  1.1493  1.0523  1.9453
  169MOL   C13523991   4.358   7.399   7.368 -0.1811  0.3499  0.7228
  169MOL   C13623992   4.404   7.549   7.367  0.5621 -0.2633 -0.1573
  169MOL   C13723993   4.377   7.620   7.244 -0.2462 -0.0068  0.2169
  169MOL   N13823994   4.351   7.671   7.143  0.4425 -0.2857 -0.3372
  169MOL   H13923995   4.251   7.407   7.348 -0.4020 -1.1831  1.2551
  169MOL   H14023996   4.368   7.364   7.470  1.8979 -0.6800  0.2031
  169MOL   H14123997   4.507   7.564   7.401  0.0341 -2.4530  2.6184
  169MOL   H14223998   4.343   7.610   7.434 -0.8041 -1.7442 -0.0469
  170MOL     C123999   6.576   5.941   1.048 -0.0873 -0.4901  0.1531
  170MOL     C224000   6.588   6.084   0.991 -0.6734  0.6159 -0.1727
  170MOL     C324001   6.463   6.160   1.029 -0.3776 -0.5379 -0.0416
  170MOL     N424002   6.372   6.227   1.052  0.3476  0.4717  0.1976
  170MOL     H524003   6.544   5.926   1.151  2.6488 -0.2402  1.0633
  170MOL     H624004   6.664   5.879   1.034 -0.4872 -1.0988  0.2982
  170MOL     H724005   6.595   6.084   0.882  2.0133 -0.5136 -0.0465
  170MOL     H824006   6.494   5.902   0.986 -1.0071  1.6088 -0.0039
  170MOL     C924007   6.726   6.145   1.048 -0.1477  0.0856  0.3196
  170MOL    C1024008   6.803   6.232   0.948  0.5327 -0.3049 -0.6530
  170MOL    C1124009   6.726   6.336   0.884  0.2829 -0.2778 -0.2699
  170MOL    N1224010   6.658   6.412   0.825 -0.1407 -0.1714  0.8753
  170MOL    H1324011   6.703   6.187   1.146 -1.5888  1.4864 -0.6092
  170MOL    H1424012   6.787   6.056   1.068 -0.4923 -0.0857  0.6260
  170MOL    H1524013   6.817   6.177   0.855  1.2459 -0.5546 -0.3932
  170MOL    C1624014   6.938   6.300   1.001 -0.0627 -0.0641  0.4085
  170MOL    C1724015   7.019   6.386   0.899 -0.7021  0.3586  0.1519
  170MOL    C1824016   6.999   6.351   0.761  0.0541 -0.1433  0.2027
  170MOL    N1924017   6.980   6.330   0.651  0.0270 -0.2663  0.1683
  170MOL    H2024018   6.908   6.370   1.079  0.5419 -0.6104  1.1490
  170MOL    H2124019   6.997   6.221   1.048 -2.7953 -2.5907 -0.2483
  170MOL    H2224020   7.122   6.360   0.923 -0.7389  2.1546  2.4209
  170MOL    C2324021   6.986   6.536   0.918 -0.7741  0.4975 -0.3350
  170MOL    C2424022   7.082   6.630   0.834  0.1448 -0.7276  0.3347
  170MOL    C2524023   7.034   6.769   0.831  0.3978 -0.1655 -0.7213
  170MOL    N2624024   7.001   6.876   0.822  0.6613 -0.1019  0.3311
  170MOL    H2724025   6.880   6.549   0.901 -0.6119  3.6367  0.7469
  170MOL    H2824026   7.007   6.562   1.022  2.4728  1.7337 -1.2260
  170MOL    H2924027   7.064   6.593   0.733  0.8115  1.2113 -0.5055
  170MOL    C3024028   7.238   6.609   0.851  0.2075 -0.0584 -0.1170
  170MOL    C3124029   7.300   6.675   0.976 -0.4246 -0.4456  0.1059
  170MOL    C3224030   7.268   6.587   1.093  0.4905  0.5844  0.3950
  170MOL    N3324031   7.239   6.518   1.179 -0.4932  1.0129 -0.6201
  170MOL    H3424032   7.258   6.502   0.858 -1.6605 -0.4014  0.1214
  170MOL    H3524033   7.294   6.647   0.766  1.3920 -2.7316 -0.6031
  170MOL    H3624034   7.241   6.766   0.990  0.1194 -0.5079  3.0971
  170MOL    C3724035   7.453   6.706   0.974  0.0625 -0.3296  0.3383
  170MOL    C3824036   7.482   6.847   0.923  0.9420  0.4769  0.2474
  170MOL    C3924037   7.394   6.939   1.003  1.2318  0.3317 -0.0481
  170MOL    N4024038   7.331   7.015   1.059  0.1164 -0.0227 -0.3271
  170MOL    H4124039   7.484   6.689   1.078 -2.0464  3.2822  1.6563
  170MOL    H4224040   7.501   6.623   0.921 -3.5922 -0.7178 -2.5035
  170MOL    H4324041   7.449   6.853   0.819 -1.8618 -2.0179  0.9073
  170MOL    C4424042   7.627   6.891   0.917 -0.0718 -0.0428 -0.6686
  170MOL    C4524043   7.641   7.042   0.923  0.0019  0.5439 -0.0231
  170MOL    C4624044   7.662   7.084   1.057 -0.0383 -0.2206 -0.3696
  170MOL    N4724045   7.683   7.111   1.170  0.3879  0.4928 -0.5167
  170MOL    H4824046   7.690   6.856   0.999  0.8500 -2.6205 -2.4258
  170MOL    H4924047   7.671   6.840   0.831  0.3642  0.3343 -0.6665
  170MOL    H5024048   7.542   7.076   0.893 -0.8334 -3.0332 -1.5936
  170MOL    C5124049   7.739   7.107   0.823  0.2090 -0.9397  0.3122
  170MOL    C5224050   7.888   7.115   0.858 -0.4807 -0.0726 -0.3505
  170MOL    C5324051   7.949   6.982   0.870 -0.3728  0.1233  0.1156
  170MOL    N5424052   7.996   6.875   0.879  0.8211  0.2726  0.2962
  170MOL    H5524053   7.726   7.061   0.725 -0.4681 -0.9193  0.3967
  170MOL    H5624054   7.712   7.211   0.805  0.6173 -0.7776  0.6290
  170MOL    H5724055   7.895   7.156   0.959 -1.7206 -3.5239  1.2410
  170MOL    C5824056   7.976   7.192   0.750 -0.5983  0.5420  0.0387
  170MOL    C5924057   7.932   7.335   0.717  0.3680 -0.4988  0.5477
  170MOL    C6024058   7.924   7.422   0.835  0.5543 -0.4445 -0.3928
  170MOL    N6124059   7.910   7.489   0.926 -0.3070 -0.3870 -0.1556
  170MOL    H6224060   8.077   7.196   0.791  0.1755 -0.4068 -1.6936
  170MOL    H6324061   7.989   7.136   0.658  2.8067 -0.3701  1.0085
  170MOL    H6424062   7.829   7.332   0.681 -0.0479 -0.0614  1.6850
  170MOL    C6524063   8.014   7.389   0.598 -0.0701  0.2116 -0.5005
  170MOL    C6624064   8.166   7.428   0.622 -0.2725  0.1965  0.1958
  170MOL    C6724065   8.260   7.312   0.640 -1.5343  0.1168 -0.3647
  170MOL    N6824066   0.023   7.224   0.657 -0.3192  0.4695 -0.0777
  170MOL    H6924067   8.021   7.311   0.522 -0.9839 -0.4122  0.0579
  170MOL    H7024068   7.959   7.469   0.548  0.8507  2.0186  1.3028
  170MOL    H7124069   8.173   7.497   0.706 -0.7139  0.1389  0.2854
  170MOL    C7224070   8.207   7.511   0.510 -0.3929 -0.0806 -0.0702
  170MOL    C7324071   0.029   7.587   0.526 -0.2037  0.4051  0.2803
  170MOL    C7424072   0.152   7.510   0.525 -0.9717  0.2021  0.0737
  170MOL    N7524073   0.255   7.453   0.535 -0.4084  0.8864 -0.1741
  170MOL    H7624074   8.223   7.439   0.429 -0.2432  1.3159 -1.3124
  170MOL    H7724075   8.123   7.576   0.483  0.4508  1.5834  1.2560
  170MOL    H7824076   0.026   7.640   0.620  1.7325 -1.1581  1.2705
  170MOL    C7924077   0.038   7.700   0.420  0.2974  0.1202  0.4534
  170MOL    C8024078   0.170   7.777   0.399 -0.1250 -0.7787 -0.4152
  170MOL    C8124079   0.153   7.901   0.319 -0.2623  0.1424 -0.5593
  170MOL    N8224080   0.131   7.996   0.253  0.2142  0.1587  0.3699
  170MOL    H8324081   0.009   7.655   0.325  1.8465 -0.0061  0.0209
  170MOL    H8424082   8.276   7.776   0.443 -1.1939 -0.9165 -0.8413
  170MOL    H8524083   0.246   7.716   0.349 -1.1344 -1.6073 -0.9567
  170MOL    C8624084   0.243   7.814   0.528  0.0454  0.2144  0.6670
  170MOL    C8724085   0.382   7.876   0.522 -0.1404 -0.2100  0.3898
  170MOL    C8824086   0.428   7.908   0.658  0.0799 -0.0452  0.0579
  170MOL    N8924087   0.463   7.943   0.765 -0.1705  0.0808  0.7240
  170MOL    H9024088   0.183   7.890   0.579 -0.5441  0.7659 -0.8246
  170MOL    H9124089   0.237   7.731   0.598  0.8470 -0.8026 -0.4579
  170MOL    H9224090   0.371   7.977   0.483 -0.9247 -0.2807  0.4194
  170MOL    C9324091   0.487   7.783   0.447  0.2151  0.2672 -0.0464
  170MOL    C9424092   0.635   7.836   0.450 -0.1183 -0.3448 -0.5626
  170MOL    C9524093   0.634   7.982   0.426  0.2174  0.4170 -0.1779
  170MOL    N9624094   0.630   8.098   0.406 -0.1655 -0.4229 -0.1910
  170MOL    H9724095   0.485   7.680   0.482 -0.3209  0.1990 -0.2684
  170MOL    H9824096   0.455   7.778   0.342  1.7422 -0.9260 -0.4779
  170MOL    H9924097   0.671   7.788   0.359 -0.9840  0.5996 -1.4235
  170MOL   C10024098   0.724   7.785   0.562  0.2372 -0.0822  0.7252
  170MOL   C10124099   0.870   7.849   0.563  0.3527  0.3406  0.1810
  170MOL   C10224100   0.943   7.813   0.684  0.3636  0.3926 -0.4488
  170MOL   N10324101   1.000   7.774   0.777 -0.3723  0.0012  0.3158
  170MOL   H10424102   0.687   7.825   0.657 -0.6319  2.2911 -0.5673
  170MOL   H10524103   0.721   7.677   0.563 -1.4207 -0.0662 -1.0195
  170MOL   H10624104   0.842   7.953   0.576 -2.1241 -0.2182 -0.4029
  170MOL   C10724105   0.956   7.831   0.429 -0.0992  0.1969 -0.0820
  170MOL   C10824106   1.068   7.934   0.425  0.3310  0.5919 -1.0454
  170MOL   C10924107   1.165   7.912   0.539  0.9843  0.0154  0.1096
  170MOL   N11024108   1.241   7.898   0.625 -0.3093 -0.2651  0.3352
  170MOL   H11124109   1.004   7.734   0.419  0.8467  0.2805  3.1392
  170MOL   H11224110   0.900   7.853   0.339 -0.2151 -0.7082 -0.2314
  170MOL   H11324111   1.029   8.035   0.436  2.8204  1.5989 -1.2452
  170MOL   C11424112   1.145   7.921   0.295 -0.0592  0.9202 -0.8391
  170MOL   C11524113   1.255   8.031   0.266  0.2721  0.1987  0.1456
  170MOL   C11624114   1.374   7.969   0.206 -0.7878  0.5277  0.6969
  170MOL   N11724115   1.468   7.920   0.160 -0.1595 -0.3869 -0.6859
  170MOL   H11824116   1.194   7.823   0.301  0.7202  1.4142  1.1775
  170MOL   H11924117   1.074   7.924   0.213 -0.7880  0.3923 -0.2308
  170MOL   H12024118   1.276   8.071   0.365 -0.6112 -2.4469  1.4410
  170MOL   C12124119   1.196   8.146   0.181  0.5735 -0.1379  0.0674
  170MOL   C12224120   1.257   8.283   0.226  0.3311  0.2520  0.0080
  170MOL   C12324121   1.401   8.259   0.249 -0.1214 -0.6791 -0.2467
  170MOL   N12424122   1.511   8.238   0.271  0.2754  0.1844  0.0283
  170MOL   H12524123   1.212   8.126   0.076  0.0133 -0.9779  0.1456
  170MOL   H12624124   1.088   8.141   0.195  0.4059 -2.5094 -1.8545
  170MOL   H12724125   1.227   8.305   0.328  1.3718  1.0410  0.1577
  170MOL   C12824126   1.220   0.084   0.126 -0.2303  0.3035  0.4315
  170MOL   C12924127   1.066   0.089   0.111  0.3946  0.2346 -0.3174
  170MOL   C13024128   1.004   0.101   0.240  0.5422  0.3460 -0.5883
  170MOL   N13124129   0.958   0.108   0.348 -0.5990 -0.0548 -0.3055
  170MOL   H13224130   1.261   0.183   0.145 -0.3429  0.4007  0.1718
  170MOL   H13324131   1.255   0.059   0.025 -1.8515 -3.0618  0.6382
  170MOL   H13424132   1.021   0.009   0.052 -0.6680  0.8160 -0.3136
  170MOL   C13524133   1.030   0.221   0.040 -0.2919  0.3833  0.2676
  170MOL   C13624134   1.081   0.224   8.202  0.6510  0.1668  0.3484
  170MOL   C13724135   1.020   0.114   8.120 -0.1495  0.8602 -0.8361
  170MOL   N13824136   0.968   0.032   8.062  0.0997 -0.0661  0.1643
  170MOL   H13924137   0.924   0.244   0.050 -1.0082 -3.6302  3.0017
  170MOL   H14024138   1.073   0.309   0.089 -1.5961  1.8274 -1.1380
  170MOL   H14124139   1.187   0.197   8.201  0.0413 -2.3618  1.0500
  170MOL   H14224140   1.062   0.320   8.153 -0.8081  0.3252  1.1858
  171MOL     C124141   1.965   1.298   1.336  0.4149 -0.5448 -0.6629
  171MOL     C224142   1.989   1.327   1.181  0.7885 -0.3406  0.2686
  171MOL     C324143   1.943   1.456   1.130  0.1205  0.2342  0.3917
  171MOL     N424144   1.902   1.553   1.089  0.2972  0.5114 -0.5235
  171MOL     H524145   1.877   1.236   1.352  1.0327 -1.4119 -0.5560
  171MOL     H624146   1.938   1.397   1.372 -0.5747 -0.7602 -0.7894
  171MOL     H724147   1.930   1.252   1.129  0.5762 -0.7941  1.1560
  171MOL     H824148   2.041   1.247   1.396  0.9487 -1.1822 -1.8630
  171MOL     C924149   2.141   1.299   1.148  0.9408 -0.5515 -0.4310
  171MOL    C1024150   2.180   1.323   0.999 -0.5355 -0.2068 -0.0255
  171MOL    C1124151   2.327   1.329   0.983 -0.4629  0.6895  0.2365
  171MOL    N1224152   2.444   1.336   0.974  0.8795  0.2776 -0.2025
  171MOL    H1324153   2.200   1.347   1.226  0.8776 -0.8331 -0.2078
  171MOL    H1424154   2.154   1.192   1.166  0.4966 -0.1564  2.5076
  171MOL    H1524155   2.156   1.428   0.979  2.4090  0.1281 -2.2295
  171MOL    C1624156   2.113   1.222   0.907 -0.1713 -0.0522 -0.0838
  171MOL    C1724157   2.158   1.224   0.755 -0.3383 -0.9620  0.4405
  171MOL    C1824158   2.116   1.102   0.685  0.2063  0.1185  0.5626
  171MOL    N1924159   2.083   1.009   0.627  0.3270  0.1831  0.0878
  171MOL    H2024160   2.145   1.124   0.943 -0.7811  1.1829  4.0350
  171MOL    H2124161   2.004   1.223   0.917 -0.1208  2.2928  0.4590
  171MOL    H2224162   2.266   1.211   0.758 -0.3995 -1.4273  0.8844
  171MOL    C2324163   2.125   1.356   0.678 -0.2668  0.4759  0.2055
  171MOL    C2424164   1.986   1.378   0.609 -0.0243  0.7194 -0.2959
  171MOL    C2524165   1.877   1.347   0.702  0.4382 -0.0126 -0.3259
  171MOL    N2624166   1.794   1.313   0.781  0.3205 -0.0475  0.3052
  171MOL    H2724167   2.128   1.434   0.755 -0.2045  1.6703 -0.9967
  171MOL    H2824168   2.199   1.372   0.600 -1.9428 -0.2852 -1.5697
  171MOL    H2924169   1.982   1.310   0.524  0.9748 -0.2751  0.4406
  171MOL    C3024170   1.960   1.520   0.568 -0.5496 -0.1308 -0.2096
  171MOL    C3124171   2.016   1.560   0.433  0.8418  0.4927  0.3219
  171MOL    C3224172   1.978   1.467   0.324  0.4562  0.5809  0.3518
  171MOL    N3324173   1.943   1.394   0.245 -0.3326  0.2438 -0.4255
  171MOL    H3424174   1.852   1.538   0.563 -0.5842 -0.6809 -2.1680
  171MOL    H3524175   1.987   1.589   0.648 -1.2755  0.9620 -0.8889
  171MOL    H3624176   2.125   1.561   0.431  0.8889  1.7680  2.6124
  171MOL    C3724177   1.983   1.711   0.399 -0.1825  0.0219  0.5840
  171MOL    C3824178   2.047   1.758   0.265 -0.3401  0.3956  0.0559
  171MOL    C3924179   1.973   1.850   0.182 -0.3273 -0.2970 -0.1821
  171MOL    N4024180   1.921   1.923   0.114  0.3888 -0.0621  0.2705
  171MOL    H4124181   1.875   1.726   0.388 -0.1345  1.9183  2.3576
  171MOL    H4224182   2.015   1.776   0.480 -2.3154 -0.7460  2.0939
  171MOL    H4324183   2.051   1.666   0.206 -1.1297 -0.4408  1.2787
  171MOL    C4424184   2.189   1.800   0.264  0.0296 -0.6871 -0.5716
  171MOL    C4524185   2.219   1.951   0.307  0.3532 -0.2695  0.6174
  171MOL    C4624186   2.165   1.993   0.435  0.0507 -0.5080 -0.1046
  171MOL    N4724187   2.120   2.025   0.534 -0.5797  0.4676 -0.1408
  171MOL    H4824188   2.242   1.731   0.330  0.4724  1.4231  1.3354
  171MOL    H4924189   2.226   1.774   0.165 -0.4228  2.4230 -1.6180
  171MOL    H5024190   2.173   2.015   0.231 -0.8530 -1.4314  0.3456
  171MOL    C5124191   2.362   1.983   0.300 -0.3029  0.0734  0.5443
  171MOL    C5224192   2.448   1.922   0.189  0.2907 -0.3481 -0.0630
  171MOL    C5324193   2.497   1.787   0.209  0.6852 -0.3204  0.5026
  171MOL    N5424194   2.530   1.675   0.224  0.1392 -0.6846  0.4816
  171MOL    H5524195   2.368   2.091   0.286 -2.3261  0.4726  2.3970
  171MOL    H5624196   2.405   1.974   0.400 -0.2642  1.2537  0.6368
  171MOL    H5724197   2.540   1.980   0.185  1.1414 -1.6004  0.9017
  171MOL    C5824198   2.390   1.949   0.043  0.1287 -0.1178 -0.0731
  171MOL    C5924199   2.461   1.894   8.236 -0.0429  0.7312 -0.0096
  171MOL    C6024200   2.606   1.913   8.247 -0.4640 -0.4424 -0.3782
  171MOL    N6124201   2.716   1.925   8.262  0.0231  0.3121  0.1443
  171MOL    H6224202   2.284   1.928   0.036  0.2757 -1.6084  1.5948
  171MOL    H6324203   2.394   2.056   0.026 -3.2082  0.1691  0.5966
  171MOL    H6424204   2.431   1.938   8.140 -0.9099  2.3244  0.9720
  171MOL    C6524205   2.428   1.739   8.209  0.1851 -0.5486  0.0187
  171MOL    C6624206   2.448   1.685   8.063 -0.6605  0.3887 -0.3213
  171MOL    C6724207   2.371   1.771   7.967  0.3614  0.5422 -0.2479
  171MOL    N6824208   2.307   1.837   7.895  0.1662  0.1122 -0.2023
  171MOL    H6924209   2.477   1.670   8.278 -0.8983 -0.2484  1.1038
  171MOL    H7024210   2.320   1.730   8.225  0.3305 -0.9964  0.7814
  171MOL    H7124211   2.405   1.586   8.046  1.0744 -0.5180  0.4752
  171MOL    C7224212   2.591   1.684   8.014  0.2421  0.0368  0.1270
  171MOL    C7324213   2.624   1.617   7.881  0.6766  0.8409 -0.2336
  171MOL    C7424214   2.752   1.668   7.829  0.0497  0.6825  0.1444
  171MOL    N7524215   2.856   1.711   7.796  0.5160 -0.2407 -0.3610
  171MOL    H7624216   2.635   1.784   8.014 -2.0268  1.0873 -2.0170
  171MOL    H7724217   2.646   1.630   8.091 -1.3001 -0.5334  0.8490
  171MOL    H7824218   2.542   1.647   7.816  1.7981  1.1608 -1.5015
  171MOL    C7924219   2.608   1.459   7.868 -0.5610  0.4236  0.7191
  171MOL    C8024220   2.709   1.371   7.936 -0.1159 -0.4560 -0.0523
  171MOL    C8124221   2.683   1.373   8.081 -0.2588 -0.1895  0.0770
  171MOL    N8224222   2.664   1.367   8.192  0.7284 -0.0082  0.7353
  171MOL    H8324223   2.511   1.429   7.907 -1.1519  0.0969 -0.9200
  171MOL    H8424224   2.601   1.440   7.760  1.0296  0.1734  0.6625
  171MOL    H8524225   2.801   1.417   7.902  0.9143 -1.9938  0.6116
  171MOL    C8624226   2.715   1.222   7.881 -1.0869  0.1226  0.6174
  171MOL    C8724227   2.814   1.124   7.936 -0.2940  0.0703 -0.3986
  171MOL    C8824228   2.763   1.055   8.050 -0.2287  0.6480 -0.4760
  171MOL    N8924229   2.714   1.006   8.143 -0.1276  0.2133 -0.6753
  171MOL    H9024230   2.617   1.182   7.907 -0.9637  0.7859  2.1531
  171MOL    H9124231   2.726   1.233   7.773  0.6207 -1.9939  0.5454
  171MOL    H9224232   2.896   1.187   7.970 -1.5165  1.0785  0.7628
  171MOL    C9324233   2.870   1.016   7.841 -0.6127  0.2260  0.2350
  171MOL    C9424234   2.780   0.938   7.741  0.1049  0.4119 -0.0832
  171MOL    C9524235   2.660   0.883   7.801 -0.1966 -0.0197 -0.0512
  171MOL    N9624236   2.565   0.844   7.852 -0.2966 -0.1402 -0.1566
  171MOL    H9724237   2.939   1.068   7.774 -0.3200  0.6710  0.8737
  171MOL    H9824238   2.939   0.953   7.896 -0.5879 -0.4744 -0.5978
  171MOL    H9924239   2.829   0.844   7.716 -0.5438 -0.3164  1.3264
  171MOL   C10024240   2.747   1.011   7.605  0.0569  0.3008  0.1578
  171MOL   C10124241   2.878   1.044   7.521 -0.4223 -0.1962  0.2899
  171MOL   C10224242   2.962   0.925   7.503  0.0060  1.1670 -0.2777
  171MOL   N10324243   3.029   0.833   7.492  0.3672  0.0753 -0.3672
  171MOL   H10424244   2.695   0.927   7.557 -0.2196  0.0376  0.9177
  171MOL   H10524245   2.678   1.095   7.600  1.9309  1.7924 -1.2656
  171MOL   H10624246   2.931   1.117   7.583 -0.6528  0.2888 -0.0856
  171MOL   C10724247   2.840   1.110   7.385  0.7975 -0.0271 -0.1378
  171MOL   C10824248   2.791   1.018   7.272 -0.4748 -0.8795  0.4721
  171MOL   C10924249   2.664   0.955   7.297 -0.4717  0.2355 -0.4455
  171MOL   N11024250   2.558   0.911   7.314 -0.1898  0.6238  0.2459
  171MOL   H11124251   2.765   1.188   7.395  0.3479 -0.6322  1.3523
  171MOL   H11224252   2.929   1.164   7.353  0.4519  1.2723  1.0767
  171MOL   H11324253   2.868   0.945   7.246  2.2355  1.8902  0.3915
  171MOL   C11424254   2.790   1.084   7.128  0.1288 -0.4454 -0.3904
  171MOL   C11524255   2.691   1.206   7.124  0.0521  0.3802 -0.2325
  171MOL   C11624256   2.756   1.335   7.087 -0.1107  0.1376 -0.3424
  171MOL   N11724257   2.810   1.430   7.052 -0.0213 -0.0498 -1.0880
  171MOL   H11824258   2.886   1.119   7.090 -1.1727  0.5959 -2.8128
  171MOL   H11924259   2.763   1.014   7.050 -0.5975 -0.0448 -0.4971
  171MOL   H12024260   2.653   1.227   7.224 -3.7035  1.4688 -1.7849
  171MOL   C12124261   2.562   1.174   7.044  0.4238 -0.0587 -0.1963
  171MOL   C12224262   2.442   1.253   7.086 -0.6395 -0.1529 -0.1840
  171MOL   C12324263   2.343   1.252   6.979 -0.2381 -0.3133  0.0227
  171MOL   N12424264   2.258   1.256   6.902 -0.2572  0.2202 -0.0913
  171MOL   H12524265   2.585   1.180   6.937 -0.4529 -0.0359 -0.3862
  171MOL   H12624266   2.533   1.070   7.061 -1.1037  0.3442 -0.2458
  171MOL   H12724267   2.481   1.355   7.081 -0.4039  0.0300  3.8984
  171MOL   C12824268   2.387   1.213   7.220  0.6498  0.0151 -0.6563
  171MOL   C12924269   2.271   1.305   7.286 -0.0235  0.6820  0.2317
  171MOL   C13024270   2.218   1.252   7.413 -0.3473 -1.0605 -0.5468
  171MOL   N13124271   2.170   1.207   7.501  0.5599 -0.4915 -0.3152
  171MOL   H13224272   2.339   1.116   7.210 -1.6643  1.1934 -1.5914
  171MOL   H13324273   2.462   1.193   7.297  0.4946 -2.7311 -1.1826
  171MOL   H13424274   2.187   1.297   7.217 -1.1519 -2.2955  1.8569
  171MOL   C13524275   2.333   1.445   7.300 -0.4071  0.6236 -0.1470
  171MOL   C13624276   2.410   1.477   7.433  0.7849  0.1545  0.5619
  171MOL   C13724277   2.551   1.450   7.409 -0.6289  0.2661 -0.3115
  171MOL   N13824278   2.662   1.423   7.388  0.2014  0.1496  0.7871
  171MOL   H13924279   2.400   1.463   7.215  0.9439 -0.6014  0.6433
  171MOL   H14024280   2.252   1.518   7.295 -0.9876  0.2785  3.2180
  171MOL   H14124281   2.372   1.423   7.520 -1.6887 -1.2819 -1.3574
  171MOL   H14224282   2.416   1.584   7.454 -1.3124  0.2169  0.9056
  172MOL     C124283   5.063   4.596   0.048  0.9483 -0.1017  0.4542
  172MOL     C224284   5.065   4.468   0.127 -0.1765  0.5195 -0.2379
  172MOL     C324285   5.010   4.356   0.052 -1.1638 -0.2367  1.0674
  172MOL     N424286   4.967   4.260   8.312  0.0662 -0.2792 -0.1965
  172MOL     H524287   5.032   4.684   0.105  1.5268 -0.3852  1.2161
  172MOL     H624288   4.983   4.599   8.286  1.3184 -2.6923 -0.1085
  172MOL     H724289   4.996   4.481   0.210  1.4386  0.7009  1.0962
  172MOL     H824290   5.150   4.608   8.295 -0.7274 -0.1147 -1.8332
  172MOL     C924291   5.202   4.437   0.186  0.4140  0.1799 -0.5924
  172MOL    C1024292   5.216   4.498   0.332  0.4445  0.0437 -0.2719
  172MOL    C1124293   5.347   4.460   0.402  0.8767  0.8942 -0.1718
  172MOL    N1224294   5.446   4.432   0.454 -0.2399 -0.7194 -0.1790
  172MOL    H1324295   5.204   4.329   0.200  0.7654  0.4508  1.5754
  172MOL    H1424296   5.287   4.457   0.120  0.7521  1.1177  0.1255
  172MOL    H1524297   5.138   4.453   0.393 -1.2892  0.0068 -2.4549
  172MOL    C1624298   5.195   4.645   0.357  0.3487  0.2721  0.9682
  172MOL    C1724299   5.302   4.751   0.307 -0.0088  0.9192  0.1796
  172MOL    C1824300   5.350   4.744   0.166 -0.9045 -0.6175  0.7742
  172MOL    N1924301   5.385   4.740   0.054 -0.0451  0.3001  0.9529
  172MOL    H2024302   5.103   4.690   0.320  1.0534 -0.3986 -1.7309
  172MOL    H2124303   5.186   4.658   0.464  1.8064 -0.7922  1.2337
  172MOL    H2224304   5.394   4.724   0.360  1.4007  1.4348 -1.9467
  172MOL    C2324305   5.268   4.891   0.365  0.4557 -0.0287  0.0839
  172MOL    C2424306   5.386   4.975   0.405 -0.3835 -0.1847  0.3839
  172MOL    C2524307   5.483   4.999   0.302  0.3756 -0.5920  0.7470
  172MOL    N2624308   5.562   5.020   0.219  0.2410 -0.0705  0.1568
  172MOL    H2724309   5.210   4.943   0.289 -0.0372 -0.7452 -0.0332
  172MOL    H2824310   5.208   4.877   0.455 -0.5730  1.6403 -0.3189
  172MOL    H2924311   5.436   4.935   0.493  0.7060 -0.1773 -0.2234
  172MOL    C3024312   5.336   5.102   0.468  0.3512  0.6709 -0.2596
  172MOL    C3124313   5.449   5.214   0.494 -0.2826  0.1083 -0.3345
  172MOL    C3224314   5.392   5.330   0.555 -0.0300  0.7422  0.1397
  172MOL    N3324315   5.340   5.418   0.606  0.4222 -0.6990  0.4540
  172MOL    H3424316   5.255   5.141   0.406 -0.2853 -1.1396 -0.5927
  172MOL    H3524317   5.280   5.081   0.559 -1.5851  0.8872 -1.3705
  172MOL    H3624318   5.479   5.237   0.392 -0.1138  0.8778 -0.1131
  172MOL    C3724319   5.580   5.175   0.562 -0.0537  0.8257 -0.6904
  172MOL    C3824320   5.584   5.165   0.723  0.1235 -0.0097 -0.0546
  172MOL    C3924321   5.497   5.055   0.759  0.7608 -0.2892  0.3129
  172MOL    N4024322   5.432   4.967   0.796  0.3607 -0.1254  0.5143
  172MOL    H4124323   5.609   5.076   0.528 -1.2971  1.2746 -3.1131
  172MOL    H4224324   5.655   5.244   0.523 -1.2387  2.0677 -0.7991
  172MOL    H4324325   5.538   5.253   0.768  1.7578  0.5649  0.5388
  172MOL    C4424326   5.725   5.161   0.782 -0.1503  0.0919  0.5615
  172MOL    C4524327   5.777   5.297   0.839  0.3124 -0.3960  0.0940
  172MOL    C4624328   5.767   5.407   0.742 -0.7064 -0.0028  0.1298
  172MOL    N4724329   5.759   5.491   0.661  0.9068  0.5981  0.6923
  172MOL    H4824330   5.727   5.084   0.859  0.1267 -0.3145  0.1419
  172MOL    H4924331   5.789   5.129   0.701 -0.3789 -2.0076  1.1870
  172MOL    H5024332   5.884   5.295   0.863  0.3365  0.5743  0.1055
  172MOL    C5124333   5.708   5.326   0.974 -0.3306  0.2258  0.1891
  172MOL    C5224334   5.781   5.439   1.054  0.4435 -0.0911 -0.3561
  172MOL    C5324335   5.777   5.571   0.995  0.5223  0.4178  0.0282
  172MOL    N5424336   5.776   5.678   0.955 -0.0832 -0.2584 -0.3840
  172MOL    H5524337   5.607   5.361   0.952  1.0605  2.8141 -2.4683
  172MOL    H5624338   5.681   5.230   1.017  0.0476  0.1173  0.1905
  172MOL    H5724339   5.886   5.419   1.074  0.1546 -0.7312  0.5555
  172MOL    C5824340   5.712   5.450   1.194  0.2461 -0.1606  0.9141
  172MOL    C5924341   5.738   5.333   1.287 -0.2012  0.2619  0.2292
  172MOL    C6024342   5.884   5.319   1.326  0.0958  0.6309  0.0265
  172MOL    N6124343   5.997   5.310   1.351 -0.1521  0.1208  0.0870
  172MOL    H6224344   5.737   5.545   1.239  0.5953  0.0215  0.3402
  172MOL    H6324345   5.604   5.439   1.181  0.4598 -2.4940  0.8316
  172MOL    H6424346   5.716   5.247   1.223  2.6015  0.4892 -1.1093
  172MOL    C6524347   5.643   5.340   1.405 -0.2173  0.6323 -0.5972
  172MOL    C6624348   5.679   5.249   1.530 -0.3150 -0.1579  0.2520
  172MOL    C6724349   5.573   5.263   1.628  1.2403  0.0703  0.6962
  172MOL    N6824350   5.483   5.276   1.707 -0.4925 -0.7028  0.1047
  172MOL    H6924351   5.626   5.442   1.440 -4.0858  0.0665 -0.6419
  172MOL    H7024352   5.541   5.313   1.378 -0.0202 -0.5347 -0.2248
  172MOL    H7124353   5.764   5.293   1.582 -0.0964 -0.3952  0.0982
  172MOL    C7224354   5.712   5.102   1.517  0.5982 -0.4210  0.6173
  172MOL    C7324355   5.810   5.062   1.630  0.3455  0.3937 -0.1301
  172MOL    C7424356   5.786   4.921   1.653 -0.1531 -0.5720  1.0127
  172MOL    N7524357   5.759   4.807   1.668 -0.8413  0.4964 -1.0394
  172MOL    H7624358   5.626   5.036   1.530 -0.6378  1.2881  1.2385
  172MOL    H7724359   5.765   5.079   1.424  0.8646 -1.5146  1.0288
  172MOL    H7824360   5.777   5.109   1.722  2.9161  0.5158  0.7668
  172MOL    C7924361   5.960   5.095   1.601  0.6682 -0.6416 -0.0628
  172MOL    C8024362   6.059   5.079   1.718 -0.5558 -0.2091 -0.4127
  172MOL    C8124363   6.058   4.947   1.788  0.6788  0.4041  0.1677
  172MOL    N8224364   6.057   4.839   1.839 -0.0865 -0.7838 -0.2075
  172MOL    H8324365   5.987   5.046   1.507  1.3242 -0.5117  0.0537
  172MOL    H8424366   5.953   5.203   1.585  0.8463 -0.7044 -0.5703
  172MOL    H8524367   6.039   5.152   1.796  0.6920 -1.7170  1.3778
  172MOL    C8624368   6.201   5.106   1.673 -0.7263 -0.2439 -0.0882
  172MOL    C8724369   6.237   5.242   1.598  0.3611  0.2177  0.2335
  172MOL    C8824370   6.214   5.365   1.682 -0.3010 -0.4988  0.1295
  172MOL    N8924371   6.195   5.461   1.742 -0.3379 -0.0137  0.0013
  172MOL    H9024372   6.267   5.102   1.760 -0.9437  2.5312  0.2536
  172MOL    H9124373   6.237   5.021   1.614  0.5810 -0.4232  0.9273
  172MOL    H9224374   6.166   5.245   1.515 -1.1665  0.1404  1.5179
  172MOL    C9324375   6.380   5.237   1.534  0.0424 -0.4846  0.0511
  172MOL    C9424376   6.441   5.366   1.479  0.0354  0.4054 -0.4617
  172MOL    C9524377   6.580   5.338   1.429  0.6769 -0.5339  0.2933
  172MOL    N9624378   6.680   5.314   1.383 -0.0683  0.0300 -0.9236
  172MOL    H9724379   6.452   5.202   1.609  0.6446 -0.9500 -0.7264
  172MOL    H9824380   6.382   5.156   1.461  0.5587 -0.4580  0.0343
  172MOL    H9924381   6.461   5.434   1.562  0.9283 -1.4847  0.9277
  172MOL   C10024382   6.343   5.426   1.378  0.6853  0.4070 -0.1453
  172MOL   C10124383   6.401   5.556   1.320 -0.3266 -0.3982  0.5663
  172MOL   C10224384   6.506   5.637   1.396  0.0439 -0.2334  0.2621
  172MOL   N10324385   6.578   5.706   1.454  0.1686  0.5288 -0.0331
  172MOL   H10424386   6.333   5.360   1.291  0.2922 -1.3511  1.2143
  172MOL   H10524387   6.243   5.436   1.418  0.2314 -0.7829 -0.9500
  172MOL   H10624388   6.323   5.631   1.332  1.1908  1.6564 -1.9999
  172MOL   C10724389   6.426   5.557   1.166  1.2550  0.5100  0.3666
  172MOL   C10824390   6.302   5.544   1.078  0.0609  0.2637 -0.5413
  172MOL   C10924391   6.167   5.579   1.131  0.1932 -0.1048  0.7951
  172MOL   N11024392   6.058   5.604   1.171  0.0341 -0.0906 -0.2054
  172MOL   H11124393   6.465   5.657   1.150  1.4658  0.1336 -1.6618
  172MOL   H11224394   6.507   5.489   1.139 -1.5494 -2.4391 -0.9905
  172MOL   H11324395   6.284   5.437   1.061 -2.4694  1.0055 -2.7766
  172MOL   C11424396   6.327   5.604   0.937 -0.2054  0.0754 -0.7774
  172MOL   C11524397   6.231   5.574   0.818  0.3327 -0.3572  0.1683
  172MOL   C11624398   6.208   5.427   0.810 -0.6976  0.5532 -0.6042
  172MOL   N11724399   6.190   5.314   0.813  0.0338 -0.3998 -0.0880
  172MOL   H11824400   6.328   5.713   0.948  0.6549  0.0594 -0.6650
  172MOL   H11924401   6.427   5.571   0.912  0.6553  0.5772  1.8350
  172MOL   H12024402   6.285   5.593   0.726 -2.0884 -0.9024 -1.4104
  172MOL   C12124403   6.094   5.659   0.837 -0.1226 -0.1848 -0.3134
  172MOL   C12224404   6.066   5.760   0.725 -0.5827  1.0238 -0.7201
  172MOL   C12324405   6.075   5.691   0.601 -0.1604  0.3814 -0.2343
  172MOL   N12424406   6.084   5.635   0.499  0.0390 -0.7586 -0.0272
  172MOL   H12524407   6.012   5.587   0.844  1.0514 -1.4369  0.7206
  172MOL   H12624408   6.091   5.715   0.930 -0.4265 -2.6210  1.1770
  172MOL   H12724409   6.142   5.838   0.724  0.5310 -0.0208  1.0851
  172MOL   C12824410   5.933   5.845   0.731 -0.5577  0.6467 -0.1083
  172MOL   C12924411   5.923   5.961   0.637 -0.6647  0.7460 -0.7540
  172MOL   C13024412   5.953   5.932   0.496 -0.7563 -0.2635  0.3196
  172MOL   N13124413   5.974   5.909   0.379  0.8846  0.3282  0.2967
  172MOL   H13224414   5.851   5.776   0.711  0.7951 -1.1861  0.5341
  172MOL   H13324415   5.925   5.880   0.834  0.1093  2.6859 -0.7240
  172MOL   H13424416   5.985   6.044   0.671 -2.0212  1.0941  0.9918
  172MOL   C13524417   5.766   6.004   0.655  1.3099 -0.3340 -0.3020
  172MOL   C13624418   5.724   6.146   0.602 -0.9223  0.4440 -0.5143
  172MOL   C13724419   5.721   6.169   0.459 -0.1857  0.5456  0.2953
  172MOL   N13824420   5.713   6.184   0.344  0.0074  0.5439 -0.0369
  172MOL   H13924421   5.710   5.928   0.601  2.6100 -1.8491  0.4696
  172MOL   H14024422   5.742   6.000   0.761 -0.7378  0.2860 -0.7147
  172MOL   H14124423   5.784   6.229   0.639  1.9477 -1.8717  0.1689
  172MOL   H14224424   5.624   6.172   0.638 -0.7115 -0.7159  0.9594
  173MOL     C124425   3.300   5.825   0.568  0.3660  0.0759  0.6304
  173MOL     C224426   3.192   5.935   0.583 -0.5867  0.4489 -0.0124
  173MOL     C324427   3.054   5.884   0.566 -0.6968  0.3159  0.7294
  173MOL     N424428   2.943   5.842   0.554 -0.2513 -0.6523  0.1152
  173MOL     H524429   3.270   5.741   0.631 -1.1167  0.2305  0.1523
  173MOL     H624430   3.400   5.862   0.587 -0.0635  0.5505  2.0431
  173MOL     H724431   3.210   5.995   0.494  0.1973  0.3816  0.1004
  173MOL     H824432   3.305   5.781   0.469  4.5778  0.0253  0.7875
  173MOL     C924433   3.205   6.037   0.704 -1.0256 -0.0465  0.7751
  173MOL    C1024434   3.343   6.102   0.722 -0.7481 -0.3671  0.5054
  173MOL    C1124435   3.393   6.145   0.591 -0.3828  0.7100 -0.3800
  173MOL    N1224436   3.433   6.176   0.490  0.4848 -0.3873  0.6363
  173MOL    H1324437   3.128   6.115   0.703 -0.2013  0.7742  0.6382
  173MOL    H1424438   3.193   5.977   0.795  1.0635 -0.9325  0.4903
  173MOL    H1524439   3.412   6.025   0.755 -0.7321  0.2670  1.9563
  173MOL    C1624440   3.351   6.222   0.815  0.6475 -0.2891 -0.1081
  173MOL    C1724441   3.486   6.301   0.831 -0.1821  0.0086  0.5104
  173MOL    C1824442   3.462   6.423   0.913  0.5341  0.4970  0.2838
  173MOL    N1924443   3.444   6.517   0.974  0.6686  0.0027  0.1436
  173MOL    H2024444   3.271   6.291   0.787  0.4902  0.0069  1.0543
  173MOL    H2124445   3.320   6.197   0.917 -0.0430 -0.0361 -0.2509
  173MOL    H2224446   3.516   6.334   0.732  1.5355 -2.2384  0.2245
  173MOL    C2324447   3.609   6.222   0.891 -1.0958  0.2109  0.4246
  173MOL    C2424448   3.741   6.290   0.878 -0.7948 -0.1415 -0.7051
  173MOL    C2524449   3.757   6.399   0.976 -0.2090 -0.4991  0.0407
  173MOL    N2624450   3.769   6.484   1.051 -0.2292 -0.1691  0.2253
  173MOL    H2724451   3.580   6.194   0.992 -0.1906  0.8236  0.8650
  173MOL    H2824452   3.619   6.136   0.825 -2.7216  0.2813  0.0800
  173MOL    H2924453   3.761   6.327   0.777 -2.5127  0.2742 -0.9094
  173MOL    C3024454   3.855   6.202   0.926 -0.4985 -0.0562 -0.1952
  173MOL    C3124455   3.903   6.077   0.837 -0.2970  0.2686  0.7000
  173MOL    C3224456   3.965   6.126   0.711 -0.3542 -0.0921 -0.0741
  173MOL    N3324457   4.013   6.168   0.609 -0.4715  0.0596 -0.3746
  173MOL    H3424458   3.945   6.263   0.929  0.5490 -1.3319 -3.2774
  173MOL    H3524459   3.829   6.190   1.031  2.0744  2.0459  0.7284
  173MOL    H3624460   3.823   6.010   0.807  2.7820 -3.0084 -0.5076
  173MOL    C3724461   3.990   5.977   0.927  0.7947  0.3781  0.6563
  173MOL    C3824462   4.144   6.003   0.938 -0.2429  0.5373  0.7683
  173MOL    C3924463   4.190   6.138   0.965 -0.5961 -0.7842  0.1761
  173MOL    N4024464   4.221   6.246   0.982 -0.2142 -0.5220  0.0423
  173MOL    H4124465   3.947   5.987   1.027  0.7686 -0.5606  0.7373
  173MOL    H4224466   3.967   5.876   0.894 -2.1194  0.9622  0.7660
  173MOL    H4324467   4.189   5.988   0.840 -1.9048  0.9762 -0.0744
  173MOL    C4424468   4.206   5.899   1.031 -0.4463  0.3724  0.2901
  173MOL    C4524469   4.351   5.870   0.990  0.3010  0.6365 -0.1216
  173MOL    C4624470   4.439   5.980   1.036  0.2232 -0.0503 -0.0698
  173MOL    N4724471   4.503   6.068   1.074  0.0604  0.3280  0.1598
  173MOL    H4824472   4.204   5.926   1.137  1.2439  1.8463 -0.0264
  173MOL    H4924473   4.156   5.804   1.018 -1.2996  0.8880 -0.2305
  173MOL    H5024474   4.366   5.851   0.884  2.8436 -2.9799  0.8046
  173MOL    C5124475   4.403   5.745   1.063  0.1119 -0.0379  1.2189
  173MOL    C5224476   4.536   5.682   1.019  0.7336  0.3251 -0.0600
  173MOL    C5324477   4.546   5.678   0.868  0.7318 -0.2175 -1.2873
  173MOL    N5424478   4.546   5.684   0.750 -0.2589  0.6166  0.8290
  173MOL    H5524479   4.401   5.764   1.170  0.3027  0.1031  1.1978
  173MOL    H5624480   4.326   5.670   1.044 -0.3686  0.7082  0.1609
  173MOL    H5724481   4.550   5.578   1.048 -0.8196  0.0617 -0.2085
  173MOL    C5824482   4.655   5.756   1.079  0.4175  0.0337  0.1788
  173MOL    C5924483   4.783   5.670   1.061  0.3855  0.1732  0.1124
  173MOL    C6024484   4.892   5.760   1.056 -0.3391 -0.5576  0.6968
  173MOL    N6124485   4.984   5.833   1.055 -0.2938 -0.5082  0.4350
  173MOL    H6224486   4.660   5.854   1.031 -0.7292 -0.3094 -0.6587
  173MOL    H6324487   4.631   5.765   1.185  0.9916  0.1578  0.3007
  173MOL    H6424488   4.791   5.643   0.955 -0.6443 -0.5420  0.2148
  173MOL    C6524489   4.797   5.558   1.162  0.0283 -0.2233 -0.4056
  173MOL    C6624490   4.880   5.586   1.287 -0.5770 -0.3518 -0.0922
  173MOL    C6724491   4.852   5.713   1.353 -0.6261 -0.1186 -0.3395
  173MOL    N6824492   4.834   5.812   1.413  0.1054  0.5173  0.1302
  173MOL    H6924493   4.696   5.527   1.191 -0.1092 -0.7728 -1.4630
  173MOL    H7024494   4.837   5.467   1.118  0.0913 -0.2007 -0.3930
  173MOL    H7124495   4.978   5.597   1.239 -1.5088 -1.9404 -2.4478
  173MOL    C7224496   4.905   5.474   1.385  0.2172  0.0841 -0.1705
  173MOL    C7324497   4.802   5.446   1.501 -0.0136 -0.3031 -0.1005
  173MOL    C7424498   4.657   5.465   1.463 -0.0838 -0.6566 -0.1620
  173MOL    N7524499   4.549   5.487   1.427  0.4053  0.7057  0.0541
  173MOL    H7624500   4.915   5.386   1.321 -0.1501  0.0656 -0.2056
  173MOL    H7724501   4.998   5.490   1.438 -0.0525  0.8850  0.0679
  173MOL    H7824502   4.810   5.505   1.592 -1.9591 -1.5019  0.8870
  173MOL    C7924503   4.821   5.305   1.548 -0.7605  0.8088 -0.2294
  173MOL    C8024504   4.747   5.255   1.673 -0.1430  0.4882  0.4590
  173MOL    C8124505   4.637   5.175   1.620 -0.6711  0.0916  0.5566
  173MOL    N8224506   4.555   5.108   1.580  0.0907  0.1969 -0.2805
  173MOL    H8324507   4.804   5.238   1.464 -0.9235  0.9647 -0.3207
  173MOL    H8424508   4.929   5.289   1.553 -0.4787  2.2270 -1.3079
  173MOL    H8524509   4.699   5.340   1.722 -0.1763  0.6391  0.1635
  173MOL    C8624510   4.812   5.155   1.777 -0.0078 -0.4213  0.2438
  173MOL    C8724511   4.946   5.200   1.838 -0.4743 -0.5267  0.2787
  173MOL    C8824512   4.953   5.346   1.856 -0.2761 -0.2585 -0.0024
  173MOL    N8924513   4.951   5.461   1.865  0.4419  0.3660 -0.1699
  173MOL    H9024514   4.743   5.140   1.860 -2.1660 -1.9028 -1.7667
  173MOL    H9124515   4.827   5.060   1.726 -0.8961  0.5600 -1.8898
  173MOL    H9224516   5.021   5.181   1.761 -2.0163 -2.0635 -0.8671
  173MOL    C9324517   4.980   5.115   1.963  0.1134  0.2220 -0.4599
  173MOL    C9424518   5.128   5.082   1.983 -0.1624  0.3543  0.5111
  173MOL    C9524519   5.171   4.988   1.882 -0.4647  0.7623  0.6357
  173MOL    N9624520   5.205   4.918   1.795 -0.7012 -0.4233  0.2694
  173MOL    H9724521   4.945   5.159   2.057  0.9511 -0.7408  0.3070
  173MOL    H9824522   4.930   5.019   1.954 -0.1013  0.1255  1.5093
  173MOL    H9924523   5.138   5.050   2.087 -0.7722 -0.1364  0.4220
  173MOL   C10024524   5.210   5.218   1.984 -0.1634 -0.1961 -0.5583
  173MOL   C10124525   5.317   5.219   2.097  0.1229 -0.9403 -0.1304
  173MOL   C10224526   5.412   5.104   2.091  0.0027 -0.6778 -0.4165
  173MOL   N10324527   5.480   5.014   2.088  0.0178  0.4030 -0.2957
  173MOL   H10424528   5.263   5.224   1.889  0.3834 -0.2422 -0.2587
  173MOL   H10524529   5.154   5.310   1.997  2.2977  1.0429  1.8637
  173MOL   H10624530   5.262   5.194   2.187  0.0128  0.1849  0.1276
  173MOL   C10724531   5.364   5.363   2.130 -0.2663  0.3667  0.3827
  173MOL   C10824532   5.506   5.386   2.160  0.3553 -0.3476  0.1947
  173MOL   C10924533   5.555   5.318   2.282  0.1846 -0.0704  0.1126
  173MOL   N11024534   5.602   5.263   2.374  0.3912  0.0740 -0.0431
  173MOL   H11124535   5.327   5.420   2.045  1.1979 -0.4297 -0.8201
  173MOL   H11224536   5.308   5.396   2.217  2.3100  1.3767  1.7348
  173MOL   H11324537   5.514   5.488   2.196  3.1277  0.5250 -2.7243
  173MOL   C11424538   5.598   5.394   2.033 -0.0531 -0.2428 -0.4489
  173MOL   C11524539   5.754   5.413   2.047 -0.4657 -0.7356 -0.0894
  173MOL   C11624540   5.813   5.385   1.911 -0.1003 -0.1101 -0.6346
  173MOL   N11724541   5.860   5.365   1.806  0.2500  0.0519 -0.3336
  173MOL   H11824542   5.578   5.303   1.977 -1.8562 -1.8022  2.6358
  173MOL   H11924543   5.564   5.468   1.961 -0.0142  1.6043  1.3919
  173MOL   H12024544   5.790   5.336   2.116  0.7922 -0.1402 -0.0676
  173MOL   C12124545   5.778   5.557   2.102  0.3327 -0.9344 -0.1342
  173MOL   C12224546   5.899   5.583   2.197  0.1646 -0.3719 -0.5450
  173MOL   C12324547   6.019   5.517   2.144 -0.8255 -0.0028 -0.3886
  173MOL   N12424548   6.114   5.465   2.102  1.0253  0.0376 -0.1681
  173MOL   H12524549   5.789   5.632   2.024 -0.1135  0.4496  1.1057
  173MOL   H12624550   5.689   5.598   2.148 -0.4247 -0.9612 -1.5459
  173MOL   H12724551   5.881   5.524   2.287  0.2818  1.6121  0.7995
  173MOL   C12824552   5.930   5.736   2.218  0.0722 -0.4175  0.1992
  173MOL   C12924553   5.812   5.825   2.263 -0.2525 -0.5361 -0.1543
  173MOL   C13024554   5.743   5.779   2.387  0.0137 -0.5162  0.6057
  173MOL   N13124555   5.678   5.744   2.478  0.0541 -0.1698  1.2734
  173MOL   H13224556   5.997   5.741   2.304 -0.9032  1.1518  0.8858
  173MOL   H13324557   5.975   5.773   2.125  0.7954 -1.8406 -0.0404
  173MOL   H13424558   5.724   5.827   2.200  0.2044  1.2874 -0.7560
  173MOL   C13524559   5.863   5.971   2.271  0.4183  0.0638  0.1327
  173MOL   C13624560   5.766   6.068   2.346 -0.0529  0.8046  0.3909
  173MOL   C13724561   5.788   6.206   2.328  0.2058 -0.4014  0.2564
  173MOL   N13824562   5.804   6.321   2.311 -0.2516  0.4387 -0.4189
  173MOL   H13924563   5.959   5.959   2.321 -0.6501 -0.0455  2.2005
  173MOL   H14024564   5.874   6.012   2.171  0.6643  1.7055  0.8292
  173MOL   H14124565   5.765   6.052   2.454  0.2403  0.3147  0.3221
  173MOL   H14224566   5.661   6.058   2.319 -0.4282  2.6976  1.1474
  174MOL     C124567   2.327   3.336   7.868 -0.1701  0.4783 -0.4845
  174MOL     C224568   2.230   3.295   7.987 -0.3174  0.4832  0.2090
  174MOL     C324569   2.114   3.218   7.939  0.2075 -0.3249 -0.0345
  174MOL     N424570   2.024   3.161   7.901  0.3777  0.9127  0.6020
  174MOL     H524571   2.338   3.256   7.795 -0.9776 -1.0903  1.0732
  174MOL     H624572   2.429   3.366   7.895 -1.3531  2.0916  2.5667
  174MOL     H724573   2.183   3.383   8.030 -0.7676  0.2726  0.1549
  174MOL     H824574   2.284   3.402   7.793  0.2052 -0.2446 -1.3389
  174MOL     C924575   2.305   3.218   8.099  0.4730  0.0001  0.1164
  174MOL    C1024576   2.345   3.076   8.066  0.2491 -0.1382 -0.5170
  174MOL    C1124577   2.429   3.059   7.951 -0.3160 -0.5650  0.0692
  174MOL    N1224578   2.496   3.048   7.858 -0.0725  0.1625 -0.6419
  174MOL    H1324579   2.390   3.280   8.126 -1.3767  1.5062  2.6936
  174MOL    H1424580   2.243   3.227   8.188 -0.6911  0.1128 -0.6902
  174MOL    H1524581   2.258   3.017   8.037  0.1534 -0.7861  1.0550
  174MOL    C1624582   2.400   3.010   8.191 -0.2282  0.0102 -0.8481
  174MOL    C1724583   2.300   2.990   0.002 -0.1775 -0.4065  0.2983
  174MOL    C1824584   2.317   3.115   0.084 -0.3297 -0.2577  0.5804
  174MOL    N1924585   2.327   3.210   0.154 -0.3376  0.5953  0.4629
  174MOL    H2024586   2.437   2.914   8.156  0.8991  0.4598 -0.9086
  174MOL    H2124587   2.488   3.067   8.223  0.3906 -0.6030 -1.4494
  174MOL    H2224588   2.334   2.902   0.057 -0.0093 -0.3806  0.2345
  174MOL    C2324589   2.156   2.953   8.275 -0.9243 -0.0525 -0.4727
  174MOL    C2424590   2.065   2.921   0.075 -0.7068 -0.3222 -0.3678
  174MOL    C2524591   2.096   2.786   0.117 -0.4420 -0.1146  0.3508
  174MOL    N2624592   2.118   2.674   0.143 -0.6190  0.2644  0.7948
  174MOL    H2724593   2.110   3.038   8.223  0.5083  0.5757 -0.7318
  174MOL    H2824594   2.159   2.871   8.204  2.0138 -0.2875 -0.1342
  174MOL    H2924595   1.966   2.907   0.031 -1.0723  0.5760  0.1389
  174MOL    C3024596   2.051   3.029   0.189  0.3421 -0.1275 -0.4629
  174MOL    C3124597   1.911   3.027   0.252  0.2966 -0.5530 -0.7966
  174MOL    C3224598   1.872   2.893   0.306 -0.4564  0.3308 -0.1441
  174MOL    N3324599   1.846   2.791   0.354 -0.4287  0.3098 -0.0762
  174MOL    H3424600   2.116   3.005   0.273 -2.2140 -2.3330  0.9876
  174MOL    H3524601   2.075   3.128   0.152  0.3376  1.1067  2.7009
  174MOL    H3624602   1.838   3.039   0.171 -1.1050 -1.4556  0.3062
  174MOL    C3724603   1.896   3.145   0.347 -0.1807  0.0013 -0.4454
  174MOL    C3824604   1.756   3.205   0.366  0.4235  0.2548 -0.0954
  174MOL    C3924605   1.693   3.256   0.244 -0.1596 -0.4905  0.2630
  174MOL    N4024606   1.643   3.301   0.152  0.2786 -0.2041 -0.8339
  174MOL    H4124607   1.929   3.118   0.447  0.1584  0.9190 -0.2955
  174MOL    H4224608   1.965   3.225   0.319 -0.0876 -0.2244 -0.8609
  174MOL    H4324609   1.752   3.292   0.432  1.0000  0.7419 -0.6924
  174MOL    C4424610   1.656   3.105   0.438  0.0385  0.0286  0.9657
  174MOL    C4524611   1.697   3.046   0.572  0.4378  0.0060  0.2150
  174MOL    C4624612   1.741   3.158   0.655  0.8526  0.4213  0.0949
  174MOL    N4724613   1.779   3.247   0.712  0.0012  0.1269  0.4329
  174MOL    H4824614   1.567   3.164   0.454  2.0396  3.5753 -0.3552
  174MOL    H4924615   1.628   3.024   0.370  1.0931  1.3179 -1.0724
  174MOL    H5024616   1.781   2.977   0.564  0.7902  0.6544 -1.9509
  174MOL    C5124617   1.574   2.986   0.649 -0.3078 -0.3156 -0.3790
  174MOL    C5224618   1.546   2.834   0.632 -0.0996 -0.4993  0.1094
  174MOL    C5324619   1.616   2.760   0.736  0.3372  0.4713 -0.5528
  174MOL    N5424620   1.676   2.698   0.813 -0.5455 -0.1183  0.3763
  174MOL    H5524621   1.597   2.999   0.755  0.1414 -0.8004 -0.4133
  174MOL    H5624622   1.484   3.047   0.639 -0.2592 -0.4512 -1.6934
  174MOL    H5724623   1.598   2.803   0.542  1.1623  1.6650  0.0764
  174MOL    C5824624   1.388   2.814   0.624  0.0505  0.7192 -0.5637
  174MOL    C5924625   1.357   2.663   0.598  0.7174 -0.8435  0.6005
  174MOL    C6024626   1.242   2.640   0.686 -0.1290  0.3762 -0.0835
  174MOL    N6124627   1.151   2.625   0.762  0.0054  0.2350  0.4014
  174MOL    H6224628   1.364   2.831   0.729 -2.1443  2.9776 -1.3540
  174MOL    H6324629   1.340   2.888   0.559 -1.1816  1.6153  1.2962
  174MOL    H6424630   1.444   2.609   0.636  0.1229 -0.7914  2.0667
  174MOL    C6524631   1.316   2.628   0.448 -0.1835  0.1554 -0.3439
  174MOL    C6624632   1.448   2.637   0.368  0.1198  0.3215 -0.2769
  174MOL    C6724633   1.551   2.561   0.435 -0.9064  0.0450  0.5986
  174MOL    N6824634   1.630   2.500   0.490  0.3695 -0.8459 -0.4925
  174MOL    H6924635   1.260   2.536   0.437  1.3179 -1.1338  2.4094
  174MOL    H7024636   1.239   2.697   0.413  0.5114  1.9920  1.6393
  174MOL    H7124637   1.479   2.740   0.379 -2.7822  1.5781 -3.1127
  174MOL    C7224638   1.424   2.603   0.220 -0.2674 -0.1123 -0.3745
  174MOL    C7324639   1.549   2.639   0.130 -0.2723  0.0519 -0.0923
  174MOL    C7424640   1.592   2.775   0.126 -0.8523  0.0615 -0.1025
  174MOL    N7524641   1.626   2.884   0.123 -0.0782  0.6204 -0.5770
  174MOL    H7624642   1.393   2.501   0.199  1.6155 -0.7135 -0.3618
  174MOL    H7724643   1.353   2.678   0.185 -0.3385 -0.7338 -1.6013
  174MOL    H7824644   1.513   2.623   0.028 -0.7433 -0.6479  0.1820
  174MOL    C7924645   1.667   2.536   0.146  0.0326  0.4079  0.5889
  174MOL    C8024646   1.761   2.510   0.030  0.7222  0.2020  0.4053
  174MOL    C8124647   1.819   2.627   8.274 -0.7682  0.0862  0.2068
  174MOL    N8224648   1.863   2.714   8.210 -0.5666 -0.1750 -0.2910
  174MOL    H8324649   1.729   2.564   0.232  1.4493  0.8473 -0.5488
  174MOL    H8424650   1.626   2.439   0.171  2.6179 -0.8221  0.2536
  174MOL    H8524651   1.692   2.461   8.274  0.4142  2.5895 -1.0496
  174MOL    C8624652   1.858   2.405   0.068 -0.4179 -0.4206  0.2601
  174MOL    C8724653   1.985   2.393   8.289 -0.0074  0.5547 -0.1604
  174MOL    C8824654   2.084   2.307   0.040 -0.2378  0.3335  0.0918
  174MOL    N8924655   2.160   2.239   0.093 -0.7722  0.3472  0.4225
  174MOL    H9024656   1.892   2.438   0.166 -0.1505  0.3669 -0.0907
  174MOL    H9124657   1.814   2.306   0.077  0.0114 -0.5497  0.9578
  174MOL    H9224658   2.035   2.490   8.291  0.0251  0.5200  3.6897
  174MOL    C9324659   1.954   2.346   8.147 -0.4417  0.9568 -0.0505
  174MOL    C9424660   2.060   2.378   8.037  0.4197 -0.1182  0.9848
  174MOL    C9524661   2.136   2.501   8.057 -0.7967 -1.0947  0.2495
  174MOL    N9624662   2.194   2.597   8.073 -0.3793 -0.1355 -0.1631
  174MOL    H9724663   1.922   2.244   8.124  0.3866  0.8205 -0.6318
  174MOL    H9824664   1.863   2.396   8.115 -1.5866  0.3221  2.1256
  174MOL    H9924665   2.006   2.395   7.945 -1.6577 -0.1637  2.1678
  174MOL   C10024666   2.154   2.261   8.003 -0.6932 -0.1818  0.2742
  174MOL   C10124667   2.223   2.269   7.867 -0.6952  0.3183 -0.0782
  174MOL   C10224668   2.351   2.341   7.885 -0.0168  0.2784 -0.7834
  174MOL   N10324669   2.447   2.399   7.903 -0.1134 -0.1511 -0.4807
  174MOL   H10424670   2.223   2.248   8.086  0.0353  2.5221  0.1430
  174MOL   H10524671   2.094   2.170   8.014  3.1972 -2.8528  0.5862
  174MOL   H10624672   2.160   2.341   7.814 -0.9981 -1.6449 -2.5153
  174MOL   C10724673   2.230   2.142   7.782 -0.3235  0.1829 -0.0094
  174MOL   C10824674   2.263   2.153   7.630 -0.8803  0.0085 -0.1901
  174MOL   C10924675   2.397   2.198   7.603 -0.0831  0.2233 -0.0588
  174MOL   N11024676   2.503   2.238   7.582 -0.0223  0.1744  0.5086
  174MOL   H11124677   2.305   2.077   7.827 -0.4441  0.9267  1.3153
  174MOL   H11224678   2.145   2.077   7.799 -0.8272  0.6237 -0.8514
  174MOL   H11324679   2.196   2.231   7.595 -0.4406  1.1050  1.3581
  174MOL   C11424680   2.248   2.020   7.555 -0.3278 -0.1820  0.1392
  174MOL   C11524681   2.265   2.028   7.396  0.5725  0.0584  0.2328
  174MOL   C11624682   2.294   1.894   7.344 -0.4660  1.1206  0.4858
  174MOL   N11724683   2.317   1.786   7.307  0.9378 -0.5705  0.5012
  174MOL   H11824684   2.326   1.954   7.594 -0.0762  0.5999  0.9803
  174MOL   H11924685   2.148   1.985   7.580 -0.9151  0.2853 -1.5289
  174MOL   H12024686   2.346   2.089   7.357  2.5659 -2.9850 -0.5729
  174MOL   C12124687   2.143   2.098   7.336  0.6889  0.6385  0.3260
  174MOL   C12224688   2.101   2.061   7.188 -0.8123 -0.0692  0.0346
  174MOL   C12324689   1.964   2.090   7.164 -0.2435 -0.3843  0.0783
  174MOL   N12424690   1.853   2.110   7.154 -0.3029 -0.1919  0.8571
  174MOL   H12524691   2.055   2.072   7.394 -0.0755  0.4699 -0.8984
  174MOL   H12624692   2.170   2.201   7.357  0.2144  0.3552  2.4716
  174MOL   H12724693   2.099   1.953   7.173  2.6487 -0.1836  0.0666
  174MOL   C12824694   2.192   2.141   7.095 -0.1765  0.4372 -0.2462
  174MOL   C12924695   2.219   2.076   6.957 -0.5005  0.7063  0.4108
  174MOL   C13024696   2.268   1.936   6.965  0.1272 -0.4215 -0.0768
  174MOL   N13124697   2.301   1.827   6.970  0.3244  0.6386  0.0132
  174MOL   H13224698   2.147   2.240   7.081 -1.1027 -0.0334 -0.6173
  174MOL   H13324699   2.290   2.165   7.137  0.6085  1.1497 -2.4365
  174MOL   H13424700   2.316   2.111   6.923 -0.0590 -1.9247 -1.1822
  174MOL   C13524701   2.112   2.108   6.857  0.3011 -0.0821  0.7670
  174MOL   C13624702   2.140   2.070   6.709 -0.4029 -0.7122 -0.4711
  174MOL   C13724703   2.261   2.136   6.661 -0.3160  0.3174  0.2194
  174MOL   N13824704   2.363   2.189   6.626  0.8065 -0.7315  0.1436
  174MOL   H13924705   2.023   2.056   6.891  0.6324 -0.8502  0.4746
  174MOL   H14024706   2.093   2.215   6.861 -3.0471 -0.6680  2.1160
  174MOL   H14124707   2.058   2.123   6.661  0.9755  2.9110  0.9798
  174MOL   H14224708   2.142   1.963   6.689 -0.6715 -0.7410 -0.3442
  175MOL     C124709   4.667   4.009   2.370 -0.5749 -0.3808  0.5406
  175MOL     C224710   4.546   3.996   2.457 -0.3517  0.9274 -0.6402
  175MOL     C324711   4.547   3.866   2.528  0.3598 -0.4042 -0.4332
  175MOL     N424712   4.543   3.763   2.584  0.3288  0.2258 -0.4426
  175MOL     H524713   4.657   4.106   2.321  0.1053  0.3013  1.7231
  175MOL     H624714   4.671   3.933   2.292 -0.3891 -0.0319  0.2068
  175MOL     H724715   4.458   3.994   2.392 -0.3223  3.6429 -0.8005
  175MOL     H824716   4.764   4.001   2.418 -0.6909 -1.1913  0.6417
  175MOL     C924717   4.512   4.118   2.545  0.3048  0.1162  0.7911
  175MOL    C1024718   4.377   4.113   2.613  0.3300 -0.1989  0.7129
  175MOL    C1124719   4.374   4.016   2.730  0.0107  0.0385  0.5608
  175MOL    N1224720   4.361   3.939   2.819 -0.4284 -0.3021 -0.1626
  175MOL    H1324721   4.587   4.125   2.624  0.7862  1.9233  0.1995
  175MOL    H1424722   4.518   4.203   2.477  1.4148 -0.4035  0.2127
  175MOL    H1524723   4.317   4.061   2.538  1.2848 -0.7963  0.3486
  175MOL    C1624724   4.313   4.248   2.647  0.5119 -0.1879 -0.1413
  175MOL    C1724725   4.165   4.255   2.673  0.3637  0.7058  0.2217
  175MOL    C1824726   4.114   4.390   2.688  0.2276 -0.0058 -0.5233
  175MOL    N1924727   4.080   4.500   2.704 -0.0793 -0.5895  1.1891
  175MOL    H2024728   4.353   4.305   2.731 -1.8673  0.0853  0.8367
  175MOL    H2124729   4.342   4.310   2.562 -0.1946 -0.0025 -0.2445
  175MOL    H2224730   4.144   4.217   2.773 -1.4698  0.9554 -0.0613
  175MOL    C2324731   4.071   4.176   2.581 -0.1539 -0.0859 -0.3236
  175MOL    C2424732   4.066   4.214   2.431  0.5608  0.0840  0.1586
  175MOL    C2524733   4.191   4.244   2.357 -0.1106 -0.5008 -0.8828
  175MOL    N2624734   4.286   4.269   2.300  0.3791  0.1522  0.5496
  175MOL    H2724735   4.082   4.067   2.583 -1.7532 -0.3000 -1.7649
  175MOL    H2824736   3.974   4.203   2.623 -0.0482 -1.1800  0.6674
  175MOL    H2924737   4.009   4.307   2.424 -0.1702 -0.3877 -0.2423
  175MOL    C3024738   3.973   4.114   2.350 -0.0935 -0.7540 -0.4226
  175MOL    C3124739   4.039   3.984   2.298  0.2017  0.2423  0.1982
  175MOL    C3224740   4.124   3.911   2.386  0.0927  0.1310 -0.4211
  175MOL    N3324741   4.196   3.861   2.459 -0.3536 -0.1819 -0.3828
  175MOL    H3424742   3.886   4.091   2.411 -0.3828  2.0100  0.2435
  175MOL    H3524743   3.929   4.165   2.265  0.9111  1.9998  0.6665
  175MOL    H3624744   4.110   4.016   2.222  1.6290 -2.3173  0.4116
  175MOL    C3724745   3.936   3.894   2.225 -0.9104 -0.1691 -0.0142
  175MOL    C3824746   3.975   3.751   2.188  0.3063  0.1738  0.3369
  175MOL    C3924747   4.107   3.750   2.129  0.2523 -0.2695 -0.0200
  175MOL    N4024748   4.214   3.754   2.089  0.4707 -0.4372  0.0807
  175MOL    H4124749   3.849   3.874   2.288 -2.1253 -0.4867 -1.7511
  175MOL    H4224750   3.907   3.948   2.135  1.2368  1.5928  0.3379
  175MOL    H4324751   3.919   3.719   2.100  0.3779 -1.3641  0.8383
  175MOL    C4424752   3.960   3.652   2.298 -0.1377  0.0167  0.0114
  175MOL    C4524753   3.966   3.506   2.259  0.1615  0.2676 -0.2876
  175MOL    C4624754   4.087   3.462   2.194  0.9876  0.0153 -0.9452
  175MOL    N4724755   4.178   3.426   2.140 -0.3524  0.0755  0.8471
  175MOL    H4824756   4.027   3.667   2.382  0.5021  2.7132 -0.9306
  175MOL    H4924757   3.859   3.666   2.338 -0.4651 -0.3360 -0.6786
  175MOL    H5024758   3.889   3.502   2.182 -1.8026  1.1106  1.5892
  175MOL    C5124759   3.919   3.413   2.372 -0.2745 -0.0434  0.5138
  175MOL    C5224760   3.898   3.269   2.327 -0.2186  0.2339  0.1632
  175MOL    C5324761   4.010   3.190   2.374  0.5727  0.6505 -0.8632
  175MOL    N5424762   4.093   3.121   2.414 -0.1873  0.1110 -0.5390
  175MOL    H5524763   3.986   3.418   2.458  0.4650  0.1849 -0.0763
  175MOL    H5624764   3.825   3.446   2.415 -1.0208  1.2373 -2.0281
  175MOL    H5724765   3.921   3.266   2.220  0.6862  1.2365  0.3261
  175MOL    C5824766   3.764   3.196   2.355  0.5186 -0.1257  0.5633
  175MOL    C5924767   3.646   3.256   2.283 -0.2255  0.4504 -0.2194
  175MOL    C6024768   3.675   3.271   2.143  0.0824 -0.0107 -0.1733
  175MOL    N6124769   3.699   3.287   2.034 -0.2492  0.0242  0.0975
  175MOL    H6224770   3.753   3.090   2.332  0.6896 -0.1412  0.5499
  175MOL    H6324771   3.730   3.208   2.457 -0.7149 -0.7399  0.2234
  175MOL    H6424772   3.637   3.358   2.320 -5.0423  0.2603 -0.4809
  175MOL    C6524773   3.511   3.175   2.306  0.5051  0.9041  0.0718
  175MOL    C6624774   3.378   3.258   2.270  0.6244 -0.3627  0.4678
  175MOL    C6724775   3.363   3.273   2.127  0.7395 -0.0422 -0.1472
  175MOL    N6824776   3.350   3.283   2.011  0.4107  0.2922  0.1304
  175MOL    H6924777   3.504   3.082   2.250 -2.4491  0.8569  0.4158
  175MOL    H7024778   3.506   3.140   2.409 -1.1319 -0.0165 -0.2985
  175MOL    H7124779   3.400   3.358   2.307  0.2909 -0.8587  2.0348
  175MOL    C7224780   3.250   3.213   2.348 -0.1600  0.8406 -0.1588
  175MOL    C7324781   3.127   3.309   2.358  0.5444  0.6424 -0.0596
  175MOL    C7424782   3.163   3.437   2.417  0.5596 -1.1466  0.0327
  175MOL    N7524783   3.192   3.542   2.463 -0.1485  0.9675  0.4571
  175MOL    H7624784   3.222   3.111   2.324  1.4203  0.5773 -1.0121
  175MOL    H7724785   3.275   3.209   2.454  0.9001  1.4790 -0.3663
  175MOL    H7824786   3.075   3.252   2.435  1.5527  0.3337  0.4102
  175MOL    C7924787   3.058   3.321   2.224 -0.1483  0.0536 -0.6823
  175MOL    C8024788   2.912   3.356   2.220  0.3159  0.2820 -0.1467
  175MOL    C8124789   2.876   3.408   2.086 -0.1827 -0.6652  0.3559
  175MOL    N8224790   2.858   3.448   1.977  0.1810  0.5104 -0.4361
  175MOL    H8324791   3.099   3.409   2.175 -0.4664  0.3672 -0.3876
  175MOL    H8424792   3.080   3.235   2.161  0.1377  0.2477 -0.8466
  175MOL    H8524793   2.899   3.444   2.284  0.1730 -1.9151  2.9485
  175MOL    C8624794   2.824   3.235   2.263  0.2193  0.9103 -0.8610
  175MOL    C8724795   2.687   3.272   2.324 -0.4822  0.4900  0.3175
  175MOL    C8824796   2.592   3.173   2.281 -0.5857  0.7675 -0.2192
  175MOL    N8924797   2.518   3.091   2.244  0.0362  0.1767  0.5754
  175MOL    H9024798   2.822   3.171   2.175 -1.5435  0.5349 -0.5728
  175MOL    H9124799   2.880   3.165   2.325 -3.2790 -0.2695  1.1342
  175MOL    H9224800   2.654   3.369   2.287 -2.1325  0.3254  1.2761
  175MOL    C9324801   2.670   3.276   2.475  0.1462  0.4818  0.6608
  175MOL    C9424802   2.771   3.354   2.560 -0.4033 -0.1775 -0.2054
  175MOL    C9524803   2.741   3.501   2.548  0.0393 -0.2129  0.2306
  175MOL    N9624804   2.720   3.616   2.545  0.3676  0.1362  0.5705
  175MOL    H9724805   2.568   3.307   2.499 -0.5830 -1.3924  0.0485
  175MOL    H9824806   2.670   3.174   2.513 -1.0395  0.1430 -0.2208
  175MOL    H9924807   2.867   3.335   2.514 -1.0139 -0.9612 -1.1630
  175MOL   C10024808   2.773   3.314   2.707 -0.0833  0.3962  0.5273
  175MOL   C10124809   2.853   3.185   2.734 -0.5615  0.8755  0.4629
  175MOL   C10224810   2.992   3.199   2.694  0.4004  0.5820 -0.5822
  175MOL   N10324811   3.097   3.210   2.661  0.0382  0.3085  0.1862
  175MOL   H10424812   2.823   3.390   2.768 -0.9944  1.1454  0.3472
  175MOL   H10524813   2.667   3.302   2.726 -0.3768  1.5184 -0.3478
  175MOL   H10624814   2.813   3.107   2.670 -0.4829  2.7369 -1.9336
  175MOL   C10724815   2.827   3.127   2.871  0.4874  0.1854  0.2544
  175MOL   C10824816   2.888   3.205   2.985 -0.4609  0.0089 -0.6134
  175MOL   C10924817   2.823   3.335   3.011  0.0274  0.8552 -0.0749
  175MOL   N11024818   2.772   3.433   3.033 -0.6227 -0.2526  0.0046
  175MOL   H11124819   2.720   3.121   2.889  0.3064  3.3685  0.6021
  175MOL   H11224820   2.850   3.021   2.882 -1.1034 -0.0946  1.0212
  175MOL   H11324821   2.993   3.213   2.957  0.7848 -2.4874  2.9240
  175MOL   C11424822   2.881   3.109   3.107  0.1945  0.1063 -0.5364
  175MOL   C11524823   2.921   3.158   3.243 -0.1539 -0.0091 -0.2822
  175MOL   C11624824   2.882   3.065   3.354 -0.0142 -0.2366  1.2530
  175MOL   N11724825   2.846   2.996   3.436 -0.2676  0.4642 -0.8234
  175MOL   H11824826   2.782   3.062   3.103  0.6711 -0.8596 -1.1733
  175MOL   H11924827   2.944   3.022   3.094  1.8412  0.9482  1.5061
  175MOL   H12024828   2.850   3.241   3.252  1.0209  1.0354 -0.5315
  175MOL   C12124829   3.064   3.199   3.249 -0.2594 -0.5755 -0.6113
  175MOL   C12224830   3.090   3.295   3.373 -0.7258  0.4361  0.1626
  175MOL   C12324831   3.231   3.288   3.420 -0.4603 -0.2143  0.2116
  175MOL   N12424832   3.337   3.275   3.463  0.0433 -0.2777 -0.4025
  175MOL   H12524833   3.136   3.118   3.248  0.1884 -0.1931 -0.0210
  175MOL   H12624834   3.089   3.258   3.161 -0.1149  0.8975  0.3920
  175MOL   H12724835   3.025   3.265   3.455 -2.1720  1.5959 -0.5422
  175MOL   C12824836   3.043   3.434   3.341 -0.1304 -0.1301  0.2425
  175MOL   C12924837   2.997   3.519   3.464  0.6888  0.1307  0.1316
  175MOL   C13024838   3.087   3.506   3.583 -0.4243  0.6255  0.5964
  175MOL   N13124839   3.159   3.496   3.675  0.2623  0.3173 -0.4559
  175MOL   H13224840   3.123   3.486   3.288 -0.7139  1.6734  1.1171
  175MOL   H13324841   2.958   3.431   3.273  1.1944 -0.6457 -1.4348
  175MOL   H13424842   2.907   3.471   3.503  1.6187 -1.5713  0.2300
  175MOL   C13524843   2.976   3.662   3.414 -0.1790  0.3786 -0.3805
  175MOL   C13624844   3.102   3.742   3.371 -0.5128 -0.1601 -0.0314
  175MOL   C13724845   3.072   3.881   3.338 -0.1652 -0.7696 -0.3654
  175MOL   N13824846   3.046   3.990   3.315  0.3603  0.9156 -0.0638
  175MOL   H13924847   2.901   3.670   3.336 -1.1799 -1.3751  0.3833
  175MOL   H14024848   2.927   3.708   3.500  0.2680  0.5233 -0.1985
  175MOL   H14124849   3.149   3.691   3.287  2.7560 -0.5598  1.9592
  175MOL   H14224850   3.173   3.748   3.454 -0.5458 -2.8228  0.2108
  176MOL     C124851   0.035   5.519   3.930  0.1542  0.3259  0.5346
  176MOL     C224852   8.253   5.633   3.919  0.6483 -0.1171 -0.7258
  176MOL     C324853   8.184   5.640   3.790 -0.6216  0.6448  0.5692
  176MOL     N424854   8.142   5.645   3.684  0.2320  0.1621  0.0682
  176MOL     H524855   0.102   5.507   3.844 -0.1372 -1.0967  0.4887
  176MOL     H624856   8.284   5.430   3.929 -1.4340  1.4295  1.2135
  176MOL     H724857   8.298   5.733   3.920 -3.0963  1.7610 -3.8420
  176MOL     H824858   0.086   5.521   4.026  1.1170 -1.2860  0.0832
  176MOL     C924859   8.149   5.641   4.028 -0.6038  0.2744  0.0491
  176MOL    C1024860   8.054   5.762   4.013  0.5765  1.5132 -0.7924
  176MOL    C1124861   7.946   5.749   3.909 -0.3624 -0.2297  0.7805
  176MOL    N1224862   7.864   5.740   3.835 -0.2836  0.3985  0.5005
  176MOL    H1324863   8.101   5.544   4.034 -0.2793 -0.0377 -2.0506
  176MOL    H1424864   8.194   5.652   4.127  2.8244 -1.8252 -1.1871
  176MOL    H1524865   8.121   5.841   3.980  0.9470  0.9430 -1.4004
  176MOL    C1624866   7.995   5.815   4.142  0.2428  0.0936  0.4429
  176MOL    C1724867   7.895   5.734   4.228 -0.7068 -0.0052  0.3101
  176MOL    C1824868   7.771   5.706   4.156 -0.1473 -0.4902 -0.3061
  176MOL    N1924869   7.668   5.687   4.105 -0.5530  0.9594 -0.6003
  176MOL    H2024870   8.079   5.834   4.208  0.8802  3.2026 -1.1794
  176MOL    H2124871   7.953   5.913   4.120  1.9828  0.1826 -2.8235
  176MOL    H2224872   7.869   5.802   4.309 -2.1073  0.2407 -0.3299
  176MOL    C2324873   7.962   5.609   4.284 -0.2564  0.5206  0.4998
  176MOL    C2424874   7.880   5.555   4.415  0.1570  0.1306 -0.0252
  176MOL    C2524875   7.879   5.661   4.512  0.4173 -0.5046  0.6484
  176MOL    N2624876   7.878   5.751   4.582  0.0878 -0.3081  0.3041
  176MOL    H2724877   7.957   5.535   4.204  2.3765 -0.1320  0.9017
  176MOL    H2824878   8.065   5.628   4.311 -0.4892 -0.8264  2.4155
  176MOL    H2924879   7.950   5.476   4.445  1.2722  0.4441 -1.7475
  176MOL    C3024880   7.744   5.482   4.392 -1.3321 -0.3543  0.2832
  176MOL    C3124881   7.674   5.432   4.522 -0.8060 -0.5972  0.2498
  176MOL    C3224882   7.768   5.403   4.630  0.0357  0.7322 -0.2944
  176MOL    N3324883   7.846   5.377   4.709  0.7201 -0.6115  0.1304
  176MOL    H3424884   7.675   5.552   4.345  2.1570  1.7236 -2.0065
  176MOL    H3524885   7.757   5.406   4.314 -0.5766 -1.4824  1.4869
  176MOL    H3624886   7.643   5.330   4.499  0.0725 -0.6168 -0.8925
  176MOL    C3724887   7.547   5.500   4.586 -0.6122 -0.1716  0.0902
  176MOL    C3824888   7.558   5.646   4.635  0.4985 -0.4202 -0.2857
  176MOL    C3924889   7.584   5.734   4.521 -0.2884  0.3784  0.3334
  176MOL    N4024890   7.610   5.804   4.435  0.5212 -0.0820  0.2133
  176MOL    H4124891   7.474   5.498   4.505 -1.6585  1.1684  0.9554
  176MOL    H4224892   7.503   5.433   4.659 -1.2538 -2.2061 -2.0985
  176MOL    H4324893   7.649   5.661   4.693 -0.0647 -0.1350  0.5308
  176MOL    C4424894   7.435   5.682   4.727 -0.4633  0.7249  0.6036
  176MOL    C4524895   7.448   5.809   4.808 -0.1009  0.2934 -0.2106
  176MOL    C4624896   7.581   5.814   4.870  0.8089  0.3690 -0.0895
  176MOL    N4724897   7.693   5.816   4.903 -1.0792  0.5586 -0.2826
  176MOL    H4824898   7.352   5.683   4.656  0.4811 -1.4006 -0.5719
  176MOL    H4924899   7.428   5.594   4.792  1.3775  0.6959  0.7898
  176MOL    H5024900   7.383   5.810   4.895  0.7628 -0.2572  0.4434
  176MOL    C5124901   7.409   5.941   4.732 -0.1787  0.8470  0.5196
  176MOL    C5224902   7.417   6.074   4.824  0.4735 -0.2239  0.4196
  176MOL    C5324903   7.449   6.189   4.738  0.0221 -0.2560  0.6147
  176MOL    N5424904   7.471   6.276   4.671  0.1088 -0.9235 -0.4648
  176MOL    H5524905   7.485   5.944   4.654  0.7469  0.7513  1.4092
  176MOL    H5624906   7.318   5.931   4.672 -0.4457  1.3497  0.8404
  176MOL    H5724907   7.503   6.066   4.891  0.3060  2.4723  1.0501
  176MOL    C5824908   7.292   6.097   4.912  0.4483 -0.7786 -0.0783
  176MOL    C5924909   7.314   6.195   5.030 -0.2913  0.3550 -0.3924
  176MOL    C6024910   7.326   6.333   4.992 -0.1636 -0.4428 -0.4077
  176MOL    N6124911   7.348   6.445   4.971 -0.2820 -0.4829  0.1999
  176MOL    H6224912   7.199   6.112   4.858 -0.0305  0.8694  1.1416
  176MOL    H6324913   7.269   6.005   4.966 -1.7916 -1.0655 -1.4909
  176MOL    H6424914   7.409   6.169   5.078  0.1071  1.8504 -0.3738
  176MOL    C6524915   7.214   6.176   5.151  0.5742  0.2673  0.3983
  176MOL    C6624916   7.238   6.278   5.270 -0.0552  0.6575 -0.1808
  176MOL    C6724917   7.160   6.401   5.250 -0.6024 -0.7084  0.6167
  176MOL    N6824918   7.105   6.498   5.228  0.0266  0.0713  0.4356
  176MOL    H6924919   7.111   6.189   5.115  0.3800 -1.0210  0.4449
  176MOL    H7024920   7.222   6.072   5.183  0.0399 -0.1044 -0.6208
  176MOL    H7124921   7.341   6.305   5.249 -0.1634  1.3113  0.1292
  176MOL    C7224922   7.218   6.214   5.405  0.1295  0.3625 -0.7595
  176MOL    C7324923   7.298   6.274   5.514  0.0098 -0.7566  0.1487
  176MOL    C7424924   7.446   6.258   5.487  0.0693 -0.3524  0.0412
  176MOL    N7524925   7.555   6.246   5.458  0.3658 -0.0874 -0.0566
  176MOL    H7624926   7.111   6.206   5.427  0.5618  1.3450  1.8443
  176MOL    H7724927   7.241   6.108   5.400 -0.2909  0.1682  1.2810
  176MOL    H7824928   7.285   6.208   5.599  1.3367  0.4741  1.3460
  176MOL    C7924929   7.258   6.412   5.558  0.6051  0.3511 -0.0191
  176MOL    C8024930   7.353   6.534   5.530 -0.6387 -0.5394  0.7413
  176MOL    C8124931   7.394   6.543   5.388  0.3324  1.1961 -0.1246
  176MOL    N8224932   7.423   6.549   5.279 -0.7215  0.0771  0.3205
  176MOL    H8324933   7.164   6.433   5.507  0.5736 -0.4417 -0.3031
  176MOL    H8424934   7.228   6.412   5.663  0.4625 -1.4586 -0.0409
  176MOL    H8524935   7.443   6.523   5.591  0.5094 -0.0268 -0.8252
  176MOL    C8624936   7.285   6.666   5.572 -0.5611  0.7423  0.0682
  176MOL    C8724937   7.372   6.790   5.547 -0.0768 -0.7866 -0.1609
  176MOL    C8824938   7.285   6.901   5.524  0.0593 -0.2175 -0.3217
  176MOL    N8924939   7.214   6.989   5.508  1.2625  0.2907  0.2825
  176MOL    H9024940   7.201   6.672   5.503  0.0032 -1.4599 -0.8662
  176MOL    H9124941   7.238   6.657   5.670  0.2675 -1.4880  0.3016
  176MOL    H9224942   7.427   6.787   5.453 -2.1239  0.6921 -1.4464
  176MOL    C9324943   7.460   6.823   5.672 -0.9342 -0.1485 -1.2215
  176MOL    C9424944   7.579   6.925   5.646  0.1957  0.1831 -0.4780
  176MOL    C9524945   7.534   7.052   5.589 -0.4688 -0.2606  0.5354
  176MOL    N9624946   7.501   7.152   5.550 -0.0716 -0.0910  0.1629
  176MOL    H9724947   7.401   6.860   5.755  0.9645  3.9876 -1.5794
  176MOL    H9824948   7.513   6.731   5.697 -1.0035  0.0242 -0.4414
  176MOL    H9924949   7.639   6.884   5.565  1.6865 -0.9839  1.1670
  176MOL   C10024950   7.675   6.945   5.768  0.3605 -0.0307 -0.3183
  176MOL   C10124951   7.795   7.047   5.752 -0.1804  0.5671  0.1218
  176MOL   C10224952   7.847   7.039   5.615 -0.6282  0.1018  0.6839
  176MOL   N10324953   7.887   7.033   5.505 -0.0133 -0.4260 -0.1622
  176MOL   H10424954   7.621   6.958   5.862  2.0673  1.7464  0.4637
  176MOL   H10524955   7.736   6.855   5.774  0.8639  0.3288  0.0236
  176MOL   H10624956   7.868   7.009   5.824 -0.7672  1.5206  1.2473
  176MOL   C10724957   7.747   7.192   5.777 -0.9048  0.9074 -0.1529
  176MOL   C10824958   7.809   7.273   5.897 -0.5295  0.7019 -0.4980
  176MOL   C10924959   7.957   7.269   5.897 -0.0565  0.7308  0.0278
  176MOL   N11024960   8.072   7.269   5.898  0.4166 -0.2692 -0.1252
  176MOL   H11124961   7.742   7.251   5.686  2.0781 -0.0125 -0.9838
  176MOL   H11224962   7.646   7.187   5.817 -0.8270  0.9595  0.0521
  176MOL   H11324963   7.789   7.225   5.993  1.7205 -2.2070 -1.4130
  176MOL   C11424964   7.749   7.414   5.909 -0.1324  0.9263  0.1899
  176MOL   C11524965   7.788   7.489   6.040 -0.1895  0.5174  0.7568
  176MOL   C11624966   7.794   7.406   6.158 -0.2039 -0.4491 -0.7618
  176MOL   N11724967   7.802   7.338   6.251 -0.3036 -0.4136 -0.3154
  176MOL   H11824968   7.786   7.476   5.828  1.9283 -2.2359 -1.3997
  176MOL   H11924969   7.640   7.414   5.905 -0.2349 -0.1198  2.0810
  176MOL   H12024970   7.717   7.571   6.042  0.2590  1.1007 -3.0614
  176MOL   C12124971   7.927   7.566   6.024  0.6014  0.6115 -0.7297
  176MOL   C12224972   7.934   7.678   5.912  0.1516  0.6263 -0.3488
  176MOL   C12324973   7.806   7.737   5.873 -0.2555  0.2170  0.0935
  176MOL   N12424974   7.704   7.777   5.843 -0.1544  0.5483 -0.2015
  176MOL   H12524975   7.950   7.610   6.121 -0.8004 -2.8297  1.2619
  176MOL   H12624976   8.003   7.489   6.008 -0.8039 -1.0249  0.2638
  176MOL   H12724977   7.972   7.628   5.823 -0.2678 -2.6169  1.2467
  176MOL   C12824978   8.034   7.790   5.938  0.4606 -0.1471 -0.3757
  176MOL   C12924979   8.181   7.746   5.975  0.0723  0.4398  0.3670
  176MOL   C13024980   8.229   7.641   5.884 -0.8933  0.0487  0.6084
  176MOL   N13124981   8.274   7.558   5.813  0.0913 -0.9963  0.3930
  176MOL   H13224982   8.036   7.862   5.855  3.0966  0.4424  0.1639
  176MOL   H13324983   7.998   7.844   6.026  0.5350 -1.5285  0.5123
  176MOL   H13424984   8.183   7.698   6.073  1.8992 -1.2962 -0.4717
  176MOL   C13524985   8.286   7.859   5.997  0.2202 -0.2955  0.4745
  176MOL   C13624986   8.247   7.963   6.106 -0.5326 -0.5285 -0.6145
  176MOL   C13724987   0.029   8.071   6.119 -0.2195  0.1215  0.1450
  176MOL   N13824988   0.104   8.157   6.126 -0.6439  0.4285 -0.1668
  176MOL   H13924989   0.069   7.817   6.029  0.6122  0.7666  0.7306
  176MOL   H14024990   8.305   7.915   5.905  0.3824 -0.6691  0.2817
  176MOL   H14124991   8.237   7.904   6.197 -0.9874  0.6801  0.1268
  176MOL   H14224992   8.150   8.003   6.078  0.2116  1.2601 -0.6971
  177MOL     C124993   7.781   0.649   0.019 -0.0136 -0.5296  0.6539
  177MOL     C224994   7.645   0.673   8.265 -0.5053 -0.4505 -0.2613
  177MOL     C324995   7.643   0.581   8.148  0.0714 -0.3401  0.0585
  177MOL     N424996   7.648   0.504   8.066  0.5818 -0.3915 -0.7141
  177MOL     H524997   7.864   0.669   8.264  0.7044 -3.2333  0.6847
  177MOL     H624998   7.788   0.541   0.036  1.9262 -0.4693  0.3270
  177MOL     H724999   7.643   0.779   8.237  1.9743 -0.1326  0.7075
  177MOL     H825000   7.784   0.699   0.115  0.7381  1.2328 -0.2684
  177MOL     C925001   7.534   0.636   0.050  0.8621  0.1088  0.0797
  177MOL    C1025002   7.483   0.752   0.140 -0.5711 -0.6532 -0.1690
  177MOL    C1125003   7.448   0.877   0.072  0.5622 -0.2198 -0.0033
  177MOL    N1225004   7.424   0.980   0.024  0.2662  0.4838  0.8685
  177MOL    H1325005   7.451   0.610   8.297 -0.9293  3.1416  1.0436
  177MOL    H1425006   7.544   0.540   0.101 -0.0930 -0.0804 -0.0724
  177MOL    H1525007   7.570   0.773   0.201 -1.2265 -1.2133  0.9700
  177MOL    C1625008   7.369   0.702   0.224 -0.4502 -0.2623 -0.7154
  177MOL    C1725009   7.303   0.797   0.318 -0.3554  0.0542 -0.7056
  177MOL    C1825010   7.393   0.904   0.366  0.1842 -0.8732  0.9667
  177MOL    N1925011   7.467   0.981   0.404 -0.6045  0.0028  0.6355
  177MOL    H2025012   7.294   0.653   0.161 -0.7855 -0.8796  0.1556
  177MOL    H2125013   7.419   0.626   0.285 -1.4025  0.3380  0.8243
  177MOL    H2225014   7.278   0.737   0.405 -1.2343  1.0648 -0.2536
  177MOL    C2325015   7.162   0.856   0.279 -0.3163 -1.0356 -0.1749
  177MOL    C2425016   7.091   0.927   0.395 -0.0760 -0.4692  0.1012
  177MOL    C2525017   7.100   1.071   0.381 -0.1556 -0.4154 -0.0419
  177MOL    N2625018   7.107   1.181   0.374  0.2312 -0.0907 -0.0872
  177MOL    H2725019   7.169   0.918   0.189 -1.9087 -1.0008 -0.2749
  177MOL    H2825020   7.104   0.768   0.251 -1.0593 -0.5249 -0.2278
  177MOL    H2925021   7.126   0.894   0.493  1.3948  0.5643 -0.0581
  177MOL    C3025022   6.938   0.885   0.394 -0.6448  0.5085 -0.6024
  177MOL    C3125023   6.860   0.899   0.523  1.0467 -0.4956  0.5324
  177MOL    C3225024   6.882   1.023   0.593  0.8413 -0.7801  0.4248
  177MOL    N3325025   6.903   1.124   0.638  0.2595  0.7992 -0.1188
  177MOL    H3425026   6.901   0.953   0.317  2.2505  1.6074 -1.0696
  177MOL    H3525027   6.922   0.782   0.360 -2.3750  0.3654  0.5971
  177MOL    H3625028   6.889   0.823   0.596 -1.1235 -1.4919  0.4160
  177MOL    C3725029   6.706   0.883   0.498  1.2988  0.5331  0.2036
  177MOL    C3825030   6.648   0.743   0.467 -0.8784  0.2978  0.2354
  177MOL    C3925031   6.721   0.640   0.548 -0.6135  0.2859  0.1165
  177MOL    N4025032   6.780   0.559   0.615  0.3004  0.5799  0.2333
  177MOL    H4125033   6.671   0.915   0.596  1.7618 -0.3266  0.6523
  177MOL    H4225034   6.666   0.964   0.436 -4.2192 -1.2595  1.1155
  177MOL    H4325035   6.693   0.710   0.374 -1.0379 -1.8316  0.8731
  177MOL    C4425036   6.498   0.731   0.457  0.1840 -0.2025  0.3046
  177MOL    C4525037   6.417   0.723   0.590 -0.1778 -0.3108  0.3565
  177MOL    C4625038   6.465   0.630   0.695  0.0246 -0.4650 -0.6588
  177MOL    N4725039   6.500   0.565   0.783  0.5662  0.3413  0.1901
  177MOL    H4825040   6.449   0.816   0.411  2.9735  0.3622 -1.7020
  177MOL    H4925041   6.472   0.642   0.399  0.9505 -1.5037  1.8904
  177MOL    H5025042   6.322   0.676   0.564  0.3395  0.3419 -2.8613
  177MOL    C5125043   6.389   0.860   0.653  0.6530  0.0754 -0.6779
  177MOL    C5225044   6.283   0.850   0.768 -0.0231 -0.1019  0.2781
  177MOL    C5325045   6.302   0.949   0.874  0.5917  0.6457 -0.1524
  177MOL    N5425046   6.315   1.031   0.954 -0.0852  0.4863  0.5398
  177MOL    H5525047   6.477   0.907   0.698 -0.3026 -0.0536  1.3520
  177MOL    H5625048   6.352   0.933   0.580 -1.5686 -2.1562 -1.8559
  177MOL    H5725049   6.294   0.752   0.814  0.6946  0.0458  0.4279
  177MOL    C5825050   6.140   0.858   0.712  0.0933  0.4189 -0.1458
  177MOL    C5925051   6.034   0.797   0.801  0.1222  0.3689  0.7148
  177MOL    C6025052   5.992   0.875   0.923  1.1729  0.0573 -0.0529
  177MOL    N6125053   5.965   0.938   1.017 -0.7408  0.5858 -0.3020
  177MOL    H6225054   6.118   0.963   0.695 -1.4410  0.1452  0.0784
  177MOL    H6325055   6.135   0.810   0.614 -2.2542  0.3826 -0.0389
  177MOL    H6425056   6.070   0.703   0.844  2.0559  0.7107 -0.1089
  177MOL    C6525057   5.918   0.737   0.719 -0.0350 -0.2671  0.0236
  177MOL    C6625058   5.822   0.832   0.654 -0.1922 -0.8613  0.2189
  177MOL    C6725059   5.880   0.894   0.535 -0.0421 -0.4888  0.2902
  177MOL    N6825060   5.926   0.946   0.441  0.5783 -0.3999 -0.3559
  177MOL    H6925061   5.964   0.683   0.636 -0.2958 -0.4617  0.0085
  177MOL    H7025062   5.862   0.660   0.770  2.7440 -1.8998  0.7403
  177MOL    H7125063   5.808   0.917   0.721  0.6503 -0.3194 -0.2805
  177MOL    C7225064   5.694   0.763   0.615 -0.4289  0.5638  0.4265
  177MOL    C7325065   5.594   0.850   0.539  0.0342  1.0982 -0.6778
  177MOL    C7425066   5.477   0.766   0.515  0.6314  0.1918  0.2322
  177MOL    N7525067   5.383   0.698   0.492  0.1722  0.0341  0.2750
  177MOL    H7625068   5.721   0.678   0.553 -2.0189 -0.8217  1.5725
  177MOL    H7725069   5.652   0.720   0.706  1.7657 -1.5242  0.4900
  177MOL    H7825070   5.625   0.875   0.438 -2.0781 -0.2147 -1.6661
  177MOL    C7925071   5.565   0.978   0.617  0.3985  0.2891  0.5763
  177MOL    C8025072   5.462   1.074   0.567  0.2966 -0.7279  0.1677
  177MOL    C8125073   5.514   1.173   0.474 -0.1255 -0.3194 -0.0057
  177MOL    N8225074   5.551   1.252   0.403  0.0250 -0.0464 -0.2366
  177MOL    H8325075   5.536   0.952   0.719 -1.2043 -0.4118 -0.0539
  177MOL    H8425076   5.656   1.038   0.624 -0.1681  1.1024  1.0699
  177MOL    H8525077   5.450   1.142   0.652 -1.5056 -0.6964 -0.1044
  177MOL    C8625078   5.322   1.018   0.535  0.0298  0.2513 -0.0120
  177MOL    C8725079   5.260   0.951   0.665 -0.2322  0.3774  0.2595
  177MOL    C8825080   5.275   1.031   0.789  0.3774 -0.2112 -0.3971
  177MOL    N8925081   5.282   1.098   0.885 -0.0530 -0.1105 -0.2290
  177MOL    H9025082   5.252   1.100   0.522 -0.2382  0.0413  0.1004
  177MOL    H9125083   5.311   0.952   0.449  0.2239 -0.6740  0.6665
  177MOL    H9225084   5.297   0.850   0.683  0.0458  0.4718  0.2248
  177MOL    C9325085   5.116   0.933   0.634  0.3120 -0.2818 -0.1404
  177MOL    C9425086   5.044   0.821   0.722  0.8070  0.0461  0.2660
  177MOL    C9525087   5.042   0.858   0.862 -0.5657  0.0596  0.2863
  177MOL    N9625088   5.051   0.895   0.971  0.0692  0.2079  0.3366
  177MOL    H9725089   5.063   1.028   0.635  2.6652  1.0444  0.1063
  177MOL    H9825090   5.105   0.911   0.527  2.0898  0.4905 -0.4927
  177MOL    H9925091   5.106   0.731   0.723 -0.7579 -1.1155 -2.4390
  177MOL   C10025092   4.902   0.795   0.677 -0.2037  0.0648 -0.0882
  177MOL   C10125093   4.856   0.647   0.702 -0.2217 -0.2874  0.4342
  177MOL   C10225094   4.938   0.547   0.627  0.5430 -0.0094 -0.0556
  177MOL   N10325095   4.992   0.466   0.564  0.4098  0.3639 -0.2655
  177MOL   H10425096   4.832   0.864   0.724 -0.8411 -0.3820 -0.3609
  177MOL   H10525097   4.898   0.807   0.569  2.3790 -2.7599 -0.5781
  177MOL   H10625098   4.761   0.656   0.648 -0.1854 -2.2754 -0.0077
  177MOL   C10725099   4.827   0.604   0.848  0.1476  0.0015 -0.1279
  177MOL   C10825100   4.688   0.544   0.876 -0.6181 -0.2228 -0.4945
  177MOL   C10925101   4.632   0.466   0.762 -0.2139 -0.5028 -0.1511
  177MOL   N11025102   4.586   0.406   0.679 -0.2240 -0.7120 -0.2787
  177MOL   H11125103   4.899   0.524   0.859  1.3462  1.0308 -0.4285
  177MOL   H11225104   4.867   0.677   0.919 -0.0306 -0.3696  0.3558
  177MOL   H11325105   4.618   0.623   0.903 -0.6391 -0.7820  1.1837
  177MOL   C11425106   4.687   0.458   1.004 -0.0355 -0.2482 -0.9612
  177MOL   C11525107   4.736   0.524   1.127  0.0131  0.0162  0.3185
  177MOL   C11625108   4.675   0.657   1.147  0.4098  0.6370 -0.4000
  177MOL   N11725109   4.628   0.762   1.166 -0.2510 -0.2144 -0.0329
  177MOL   H11825110   4.581   0.436   1.016  0.3612 -1.3079  0.8546
  177MOL   H11925111   4.747   0.368   1.004 -1.3683 -1.1599 -0.0287
  177MOL   H12025112   4.840   0.551   1.109 -0.4040  0.9169 -0.7871
  177MOL   C12125113   4.749   0.437   1.259  0.0148  0.0937  0.0919
  177MOL   C12225114   4.767   0.521   1.388  0.1459  0.8219  0.1207
  177MOL   C12325115   4.646   0.570   1.444 -0.4922 -0.0882 -0.3648
  177MOL   N12425116   4.551   0.614   1.488  0.0648  0.4985 -0.2877
  177MOL   H12525117   4.649   0.393   1.256 -0.0771  0.2762  0.4818
  177MOL   H12625118   4.821   0.357   1.244 -0.8631 -0.8145  0.6562
  177MOL   H12725119   4.819   0.609   1.351  0.0222  0.3708 -1.1614
  177MOL   C12825120   4.863   0.461   1.496  0.5351  0.0408 -0.4724
  177MOL   C12925121   4.776   0.363   1.595 -0.0851 -1.2680  0.5168
  177MOL   C13025122   4.719   0.245   1.525  0.0546  0.2755  0.1654
  177MOL   N13125123   4.676   0.151   1.474  0.1696  0.4898  0.3443
  177MOL   H13225124   4.944   0.417   1.437  1.5338  1.7845 -0.4571
  177MOL   H13325125   4.905   0.544   1.554  0.1577  0.6212 -1.0235
  177MOL   H13425126   4.691   0.412   1.642 -0.7397 -1.3681 -0.5576
  177MOL   C13525127   4.869   0.324   1.710 -0.5957  0.1061  0.3842
  177MOL   C13625128   4.804   0.237   1.814 -0.0193 -0.2888  0.0808
  177MOL   C13725129   4.716   0.315   1.900 -0.2596  0.2408  0.2269
  177MOL   N13825130   4.650   0.382   1.967 -0.6723 -0.3849 -0.4128
  177MOL   H13925131   4.946   0.259   1.668  0.3050  0.4174  1.5106
  177MOL   H14025132   4.902   0.414   1.762  2.2058 -1.2937  1.1496
  177MOL   H14125133   4.878   0.185   1.874  0.9786 -2.5100 -2.9631
  177MOL   H14225134   4.752   0.161   1.755  1.2200 -0.9135 -0.2190
  178MOL     C125135   7.406   6.093   1.803 -0.3780  0.1194 -0.1649
  178MOL     C225136   7.494   6.157   1.911 -0.2112  0.9078  0.3578
  178MOL     C325137   7.624   6.191   1.852 -0.5497  0.2577  0.3996
  178MOL     N425138   7.728   6.216   1.805  0.1451 -0.8455 -0.2035
  178MOL     H525139   7.400   6.157   1.715 -0.0214  0.9155  0.3855
  178MOL     H625140   7.310   6.083   1.853 -0.6976  1.0456 -0.5851
  178MOL     H725141   7.527   6.079   1.978  0.0892  0.6809 -0.0498
  178MOL     H825142   7.425   5.986   1.792  0.5157 -0.0144  2.2825
  178MOL     C925143   7.426   6.283   1.983 -0.2765  0.7822  0.0233
  178MOL    C1025144   7.304   6.248   2.076  0.1970  0.3567  0.6777
  178MOL    C1125145   7.323   6.122   2.155 -0.1702 -0.3997 -0.5355
  178MOL    N1225146   7.333   6.026   2.213  0.2616  0.3501  0.4165
  178MOL    H1325147   7.502   6.323   2.050  0.1200  0.1166 -0.0193
  178MOL    H1425148   7.410   6.366   1.914  0.9304 -0.8407 -2.2415
  178MOL    H1525149   7.224   6.236   2.003 -0.9235 -0.2381  1.9786
  178MOL    C1625150   7.254   6.360   2.169 -0.5272 -0.6551  0.2244
  178MOL    C1725151   7.178   6.475   2.099  0.0459  0.4517 -0.3228
  178MOL    C1825152   7.092   6.440   1.990 -0.1065 -0.0555  0.7939
  178MOL    N1925153   7.018   6.414   1.904 -0.7796  0.0134 -0.1134
  178MOL    H2025154   7.183   6.311   2.236 -1.1945  1.3869  1.0748
  178MOL    H2125155   7.333   6.398   2.235  0.3264 -1.6157 -0.2337
  178MOL    H2225156   7.246   6.545   2.049  0.8208 -0.1059 -0.0545
  178MOL    C2325157   7.092   6.556   2.204  0.3301  0.2465  0.1555
  178MOL    C2425158   7.021   6.687   2.157 -0.0723  0.9467  0.1458
  178MOL    C2525159   6.922   6.733   2.262  0.4286 -0.2813  0.7272
  178MOL    N2625160   6.847   6.763   2.348 -0.2349  0.4121  0.1558
  178MOL    H2725161   7.013   6.491   2.240 -0.1439  0.9850  0.4749
  178MOL    H2825162   7.158   6.586   2.286 -0.0833 -1.6470  1.2116
  178MOL    H2925163   6.961   6.660   2.071 -1.0928  1.6379  0.6291
  178MOL    C3025164   7.115   6.800   2.110 -0.6158  0.2200  0.4559
  178MOL    C3125165   7.111   6.934   2.175 -0.5242 -0.3285  0.6109
  178MOL    C3225166   7.135   6.923   2.320 -0.4512 -0.0004 -0.6291
  178MOL    N3325167   7.151   6.910   2.436  0.2053 -0.4830 -0.3803
  178MOL    H3425168   7.218   6.764   2.110 -0.4789  0.6079  0.5746
  178MOL    H3525169   7.099   6.804   2.002  1.8052 -1.5122  0.0007
  178MOL    H3625170   7.009   6.973   2.171 -0.8858 -1.3352 -0.4479
  178MOL    C3725171   7.207   7.031   2.096 -0.1859  0.6984  0.2788
  178MOL    C3825172   7.216   7.177   2.152  0.2501 -0.0847  0.7397
  178MOL    C3925173   7.091   7.231   2.212 -0.0903 -0.2001 -0.3387
  178MOL    N4025174   6.992   7.262   2.258 -0.6071 -0.4051 -0.0002
  178MOL    H4125175   7.306   6.985   2.097  0.0330  1.1641 -0.1754
  178MOL    H4225176   7.178   7.025   1.991 -0.8060  1.4277  0.4048
  178MOL    H4325177   7.225   7.247   2.069  0.2941  0.6990  1.4030
  178MOL    C4425178   7.331   7.195   2.255 -0.4009 -0.4264  0.4263
  178MOL    C4525179   7.472   7.157   2.201 -0.4544  0.7632 -0.1965
  178MOL    C4625180   7.502   7.193   2.066 -0.1421 -0.0736  0.0739
  178MOL    N4725181   7.522   7.221   1.956  0.5863 -0.1355  0.3310
  178MOL    H4825182   7.331   7.298   2.289  3.4641  0.5345 -2.1499
  178MOL    H4925183   7.311   7.128   2.338  3.4138 -1.1125  0.8874
  178MOL    H5025184   7.476   7.049   2.191 -0.4027  0.8968 -1.6768
  178MOL    C5125185   7.578   7.194   2.316  0.0277  0.3425 -0.0181
  178MOL    C5225186   7.729   7.158   2.281 -0.1739  0.1850  0.5110
  178MOL    C5325187   7.812   7.217   2.384 -0.5635  0.4124 -0.1401
  178MOL    N5425188   7.879   7.257   2.473 -0.4960  0.4708 -0.0291
  178MOL    H5525189   7.579   7.298   2.347  1.2830 -0.3598  2.4428
  178MOL    H5625190   7.552   7.134   2.403 -1.4236  2.3488  0.9427
  178MOL    H5725191   7.750   7.209   2.187 -1.7976 -0.3772 -0.1716
  178MOL    C5825192   7.741   7.002   2.269 -0.7314  0.4216 -0.0288
  178MOL    C5925193   7.884   6.950   2.255 -0.4741 -0.2432  0.1708
  178MOL    C6025194   7.890   6.804   2.285  0.1549 -0.2065 -0.7475
  178MOL    N6125195   7.890   6.692   2.305  0.2903  0.1892  0.1281
  178MOL    H6225196   7.701   6.951   2.357 -2.6139 -0.3787 -1.3021
  178MOL    H6325197   7.673   6.961   2.193 -0.8798 -1.2398  0.9893
  178MOL    H6425198   7.940   7.002   2.332 -0.7683 -1.8491  1.5001
  178MOL    C6525199   7.953   6.994   2.119  0.4942 -0.2670  0.2684
  178MOL    C6625200   7.951   6.882   2.007  0.4717 -0.2881 -0.2434
  178MOL    C6725201   7.817   6.885   1.940  0.2373 -0.7422  0.6545
  178MOL    N6825202   7.711   6.886   1.891  0.1006 -0.2891 -0.1022
  178MOL    H6925203   7.920   7.088   2.075  0.4361  0.2172  1.3414
  178MOL    H7025204   8.056   7.016   2.148  0.6096  0.8532 -0.9369
  178MOL    H7125205   7.963   6.785   2.056  1.9537 -0.0072 -0.0371
  178MOL    C7225206   8.056   6.897   1.902 -0.0872  0.7994  0.3736
  178MOL    C7325207   8.197   6.879   1.961 -0.1806  0.1920  0.3164
  178MOL    C7425208   8.216   6.750   2.015  0.3281 -0.2310 -0.1758
  178MOL    N7525209   8.238   6.641   2.053 -0.2485  0.3286  0.3195
  178MOL    H7625210   8.040   6.825   1.822  0.8778  0.7870  0.1961
  178MOL    H7725211   8.043   6.993   1.852  0.9675  1.0050  0.4909
  178MOL    H7825212   8.212   6.937   2.052  1.6647 -1.3217  0.9869
  178MOL    C7925213   8.311   6.932   1.858  0.3555  0.0764 -0.1312
  178MOL    C8025214   0.127   6.980   1.940  0.7419  0.2177  0.3209
  178MOL    C8125215   0.160   6.914   2.070 -0.0696 -0.2989  0.1859
  178MOL    N8225216   0.173   6.859   2.170  0.4848  0.1916 -0.7304
  178MOL    H8325217   0.017   6.854   1.784 -3.6914 -0.3480 -0.8120
  178MOL    H8425218   8.279   7.022   1.806 -3.0806  0.4868  2.4425
  178MOL    H8525219   0.092   7.082   1.958 -1.0358 -0.5021  0.9313
  178MOL    C8625220   0.246   6.975   1.849 -0.3511  0.0764  0.4021
  178MOL    C8725221   0.251   7.084   1.742 -0.3480  0.4095 -0.3275
  178MOL    C8825222   0.383   7.142   1.732  0.3651 -0.8052  0.2681
  178MOL    N8925223   0.485   7.189   1.714  0.3848  0.4642  0.4045
  178MOL    H9025224   0.334   6.984   1.913  0.5937  0.5542 -0.9380
  178MOL    H9125225   0.253   6.872   1.815  0.2422 -0.4768  2.1452
  178MOL    H9225226   0.183   7.164   1.772  1.0066  1.5660 -0.3315
  178MOL    C9325227   0.198   7.037   1.608  0.2968  0.2358  1.0704
  178MOL    C9425228   0.156   7.144   1.507 -0.3792  0.3641  0.4072
  178MOL    C9525229   0.044   7.219   1.563 -0.3205  1.0520  0.9976
  178MOL    N9625230   8.273   7.273   1.618  0.1645 -0.0364 -0.0814
  178MOL    H9725231   0.273   6.970   1.567 -0.6729  0.4747 -1.1678
  178MOL    H9825232   0.113   6.971   1.620  0.8842 -1.1257 -1.8117
  178MOL    H9925233   0.091   7.098   1.433 -0.4194 -0.6983  1.0953
  178MOL   C10025234   0.272   7.231   1.447  0.4072 -0.4174 -0.3323
  178MOL   C10125235   0.399   7.150   1.389 -0.6160 -0.7397 -0.7462
  178MOL   C10225236   0.369   7.058   1.286 -0.8716 -0.6925  0.2085
  178MOL   N10325237   0.345   6.990   1.198 -0.2270  0.1605 -0.2553
  178MOL   H10425238   0.228   7.288   1.365 -2.0734 -0.1790  1.1082
  178MOL   H10525239   0.299   7.290   1.534  2.2870 -0.4989 -0.8501
  178MOL   H10625240   0.438   7.093   1.473 -2.3554 -0.3087  0.3972
  178MOL   C10725241   0.515   7.247   1.368  0.6988  0.1404  0.0571
  178MOL   C10825242   0.653   7.222   1.439  0.1836 -0.1531  0.2919
  178MOL   C10925243   0.713   7.096   1.382  0.3882 -0.0145 -0.1002
  178MOL   N11025244   0.756   7.000   1.326  0.1414 -0.6311 -1.1535
  178MOL   H11125245   0.545   7.238   1.263 -0.7327  1.2464 -0.4653
  178MOL   H11225246   0.474   7.347   1.382 -0.6520 -0.2576 -0.9199
  178MOL   H11325247   0.646   7.196   1.545  0.2293 -1.6147 -0.0653
  178MOL   C11425248   0.754   7.333   1.413  0.3106  0.2557 -0.1588
  178MOL   C11525249   0.877   7.325   1.521  0.6349  0.2728 -0.5052
  178MOL   C11625250   0.976   7.427   1.493  0.6249  0.4632  0.1031
  178MOL   N11725251   1.049   7.507   1.474 -0.1039 -1.0941  0.0511
  178MOL   H11825252   0.781   7.352   1.309  4.0623 -0.8803  0.5092
  178MOL   H11925253   0.712   7.431   1.436  0.4981 -0.2689  2.6059
  178MOL   H12025254   0.924   7.228   1.504 -1.0987 -0.6720 -0.0692
  178MOL   C12125255   0.835   7.328   1.671  0.1835  0.1246 -0.0926
  178MOL   C12225256   0.780   7.454   1.749  0.0950  0.4303  0.6934
  178MOL   C12325257   0.649   7.495   1.690 -0.2727 -0.6220  0.1664
  178MOL   N12425258   0.545   7.528   1.653  0.5895 -0.3752  0.7761
  178MOL   H12525259   0.762   7.250   1.692  2.1516 -1.4574  1.1636
  178MOL   H12625260   0.915   7.281   1.729 -1.0266 -2.6659 -0.5926
  178MOL   H12725261   0.844   7.540   1.730 -0.3135  0.6267  0.1974
  178MOL   C12825262   0.768   7.432   1.902  0.5401 -0.2317 -0.0732
  178MOL   C12925263   0.749   7.554   1.982 -0.4765  0.6469 -0.0179
  178MOL   C13025264   0.629   7.637   1.964  0.3359 -0.7938  0.2013
  178MOL   N13125265   0.538   7.706   1.954  0.0536 -0.1408 -0.5171
  178MOL   H13225266   0.702   7.348   1.921 -1.0257  0.8578 -0.6140
  178MOL   H13325267   0.862   7.389   1.938  1.3035 -0.1110 -1.8685
  178MOL   H13425268   0.834   7.616   1.954  0.6015 -1.5960 -1.8498
  178MOL   C13525269   0.768   7.532   2.136 -0.3021  0.1772  0.1274
  178MOL   C13625270   0.742   7.646   2.231 -0.7483 -0.0165  0.6374
  178MOL   C13725271   0.833   7.761   2.212 -0.5833 -0.1190  1.1047
  178MOL   N13825272   0.903   7.849   2.192 -0.8094 -0.2072 -0.7683
  178MOL   H13925273   0.728   7.436   2.171  0.6987 -0.2951 -0.0036
  178MOL   H14025274   0.874   7.508   2.146 -0.1847 -0.7125 -2.6767
  178MOL   H14125275   0.745   7.614   2.335 -0.4017 -0.4720  0.4891
  178MOL   H14225276   0.642   7.685   2.217 -0.4887  0.0472 -1.0918
  179MOL     C125277   5.861   2.373   2.935  0.3184 -0.3315 -0.6535
  179MOL     C225278   5.878   2.422   2.789 -0.8837 -0.1494 -0.0617
  179MOL     C325279   5.851   2.563   2.784 -0.3618 -0.7453  0.1521
  179MOL     N425280   5.830   2.676   2.774  0.2278  0.2761 -0.1685
  179MOL     H525281   5.917   2.440   3.000 -1.5193 -0.2766  0.9119
  179MOL     H625282   5.899   2.272   2.952 -2.4014 -1.1684  0.7693
  179MOL     H725283   5.804   2.388   2.716 -1.5885  0.0661  0.5398
  179MOL     H825284   5.762   2.397   2.975  0.3964 -1.7847  0.4756
  179MOL     C925285   6.019   2.405   2.738 -0.0139 -0.3279 -0.6734
  179MOL    C1025286   6.051   2.257   2.713 -0.6502  0.2888 -0.1588
  179MOL    C1125287   5.946   2.177   2.648  0.1475  0.1955  0.1325
  179MOL    N1225288   5.861   2.115   2.598  0.2556 -0.6662 -0.1529
  179MOL    H1325289   6.029   2.469   2.650  1.0282  0.2647 -0.1315
  179MOL    H1425290   6.083   2.453   2.813 -0.5013  1.2749 -1.2798
  179MOL    H1525291   6.069   2.210   2.810 -0.9923  0.4749 -0.0033
  179MOL    C1625292   6.188   2.260   2.636  0.4297 -0.2194  1.0393
  179MOL    C1725293   6.222   2.128   2.567 -0.3472  0.4578 -0.0869
  179MOL    C1825294   6.347   2.150   2.498  0.5271  0.0056 -0.2683
  179MOL    N1925295   6.453   2.170   2.449 -0.2829  0.5864  0.3158
  179MOL    H2025296   6.194   2.332   2.555  0.3878  0.9735  2.0735
  179MOL    H2125297   6.268   2.292   2.703  0.1861  0.9502  0.7907
  179MOL    H2225298   6.138   2.098   2.504 -1.9524  3.5440  0.5215
  179MOL    C2325299   6.230   2.015   2.672 -0.7479  0.6729  0.0230
  179MOL    C2425300   6.173   1.883   2.627 -0.1512  0.1503 -0.0037
  179MOL    C2525301   6.259   1.842   2.513  0.7906  0.1761 -0.0963
  179MOL    N2625302   6.316   1.813   2.412  0.3034  0.3780 -0.0139
  179MOL    H2725303   6.334   1.999   2.699 -1.1160 -1.2352  0.4195
  179MOL    H2825304   6.180   2.034   2.767 -0.2636  0.0917  0.3940
  179MOL    H2925305   6.070   1.899   2.597 -0.2593  1.4249  1.0052
  179MOL    C3025306   6.167   1.774   2.733  0.2722 -0.3044  0.0279
  179MOL    C3125307   6.295   1.697   2.769  1.0255  0.4761 -0.5678
  179MOL    C3225308   6.379   1.787   2.839 -0.3622  0.0682 -0.1123
  179MOL    N3325309   6.448   1.867   2.899 -0.1473  0.7992  0.2567
  179MOL    H3425310   6.118   1.822   2.817  0.0556 -1.4071  0.5441
  179MOL    H3525311   6.093   1.702   2.697 -2.2832  2.2755 -0.0327
  179MOL    H3625312   6.351   1.673   2.678  0.0874 -0.9581 -0.7737
  179MOL    C3725313   6.261   1.563   2.838 -0.5492 -0.9515 -0.2222
  179MOL    C3825314   6.377   1.462   2.839  0.6545 -0.3087 -0.0588
  179MOL    C3925315   6.509   1.522   2.860 -0.0144  0.1221  0.4273
  179MOL    N4025316   6.612   1.572   2.878  0.1214  0.4357  0.0989
  179MOL    H4125317   6.234   1.577   2.942  0.3729 -1.4863  0.0914
  179MOL    H4225318   6.163   1.533   2.801 -1.2360  0.2335  0.5843
  179MOL    H4325319   6.371   1.433   2.734  0.0825 -2.5225  0.5570
  179MOL    C4425320   6.339   1.345   2.926 -0.3509  0.9177  0.3400
  179MOL    C4525321   6.231   1.254   2.871 -0.7961 -0.1118 -0.2797
  179MOL    C4625322   6.239   1.250   2.721 -0.2048  0.0219 -0.6827
  179MOL    N4725323   6.234   1.244   2.602 -0.1448  0.3533 -0.3230
  179MOL    H4825324   6.436   1.296   2.936 -1.3544 -1.2286 -0.1811
  179MOL    H4925325   6.317   1.387   3.024  0.3938  0.5140  0.6846
  179MOL    H5025326   6.135   1.293   2.904 -0.3643 -0.5609  1.5506
  179MOL    C5125327   6.249   1.104   2.917 -0.1431  0.1160  0.3964
  179MOL    C5225328   6.202   1.062   3.063 -0.4477 -0.4498 -0.1120
  179MOL    C5325329   6.087   1.139   3.102  0.9314 -0.0056 -0.2149
  179MOL    N5425330   5.995   1.190   3.130 -0.9534  0.1877  0.1560
  179MOL    H5525331   6.194   1.049   2.840  1.1124 -0.1915 -0.2880
  179MOL    H5625332   6.355   1.079   2.913 -0.5344 -1.5997  0.6180
  179MOL    H5725333   6.282   1.092   3.130  0.6652  1.8921 -2.4053
  179MOL    C5825334   6.184   0.914   3.065  0.0478  0.5307  0.0902
  179MOL    C5925335   6.132   0.850   3.200 -0.0033  0.3562  0.8297
  179MOL    C6025336   5.984   0.852   3.195 -0.0664  0.5475  0.7740
  179MOL    N6125337   5.869   0.858   3.191  0.6619  0.6934  0.2326
  179MOL    H6225338   6.121   0.891   2.980 -0.6924  0.4895  0.6426
  179MOL    H6325339   6.281   0.868   3.043 -0.1655  0.5872 -0.9836
  179MOL    H6425340   6.163   0.913   3.284 -0.1539  0.1131  1.0674
  179MOL    C6525341   6.183   0.706   3.219  0.5115  0.2882 -0.1262
  179MOL    C6625342   6.128   0.631   3.347 -0.6485 -0.1673  0.3338
  179MOL    C6725343   6.106   0.492   3.316 -0.4258 -0.0025 -0.3203
  179MOL    N6825344   6.091   0.378   3.287  0.3943  0.1293  0.3158
  179MOL    H6925345   6.150   0.659   3.127 -0.9609  0.1422  0.4682
  179MOL    H7025346   6.292   0.708   3.226  0.4567  2.2196  0.4842
  179MOL    H7125347   6.027   0.665   3.368 -0.2368 -0.1745  2.5061
  179MOL    C7225348   6.215   0.659   3.470  0.4318  0.0867 -0.3245
  179MOL    C7325349   6.161   0.614   3.610 -0.7535 -0.8230  0.2368
  179MOL    C7425350   6.117   0.477   3.620  0.7548 -0.2938  0.3210
  179MOL    N7525351   6.075   0.368   3.620  0.0830  0.2312  0.5598
  179MOL    H7625352   6.318   0.624   3.459  1.5441  3.1709 -0.1989
  179MOL    H7725353   6.224   0.767   3.467  0.0338  0.1232 -0.2685
  179MOL    H7825354   6.075   0.680   3.611 -0.4795 -0.4580 -0.1093
  179MOL    C7925355   6.267   0.641   3.719 -0.1955 -0.1486  0.1734
  179MOL    C8025356   6.291   0.792   3.743 -0.8915  0.0522  0.4979
  179MOL    C8125357   6.199   0.836   3.847 -0.3782 -0.0364  0.0329
  179MOL    N8225358   6.132   0.877   3.930 -0.2161  0.3770 -0.5555
  179MOL    H8325359   6.239   0.587   3.810  1.9845  0.1332  1.0563
  179MOL    H8425360   6.361   0.592   3.694  1.2332  1.5365  2.1123
  179MOL    H8525361   6.270   0.841   3.648 -0.6046 -2.0532 -0.6826
  179MOL    C8625362   6.443   0.824   3.763 -0.2622 -0.1918 -0.6713
  179MOL    C8725363   6.468   0.969   3.810  0.8118 -0.1184 -0.1827
  179MOL    C8825364   6.597   0.972   3.886 -0.2417  0.2449  0.1196
  179MOL    N8925365   6.699   0.976   3.939 -0.1548 -0.5024 -0.4925
  179MOL    H9025366   6.497   0.761   3.835  1.1282  1.8973  0.1610
  179MOL    H9125367   6.491   0.813   3.666  0.4865  0.1813 -0.3423
  179MOL    H9225368   6.395   0.997   3.886 -0.1149 -0.6700 -0.8654
  179MOL    C9325369   6.471   1.069   3.695 -0.2595  0.4303  0.2039
  179MOL    C9425370   6.439   1.218   3.725  0.1594  0.4538 -0.6025
  179MOL    C9525371   6.405   1.242   3.869 -0.2865 -0.3888  0.7577
  179MOL    N9625372   6.384   1.262   3.983  0.4005 -0.3697  0.6352
  179MOL    H9725373   6.571   1.071   3.653 -0.5710 -3.2859 -0.8940
  179MOL    H9825374   6.399   1.031   3.622  0.5975 -0.4469 -0.1938
  179MOL    H9925375   6.346   1.222   3.668  0.2768  1.9145 -0.7158
  179MOL   C10025376   6.535   1.325   3.665  0.0057  0.1618 -0.5921
  179MOL   C10125377   6.541   1.324   3.509  0.4628 -0.0755  0.1453
  179MOL   C10225378   6.424   1.270   3.438 -0.2649  0.3011  0.2922
  179MOL   N10325379   6.328   1.227   3.383  0.3604  0.6329  0.2381
  179MOL   H10425380   6.512   1.422   3.709  1.6454  0.8750 -1.2702
  179MOL   H10525381   6.639   1.299   3.683  0.4486  0.5711 -2.4858
  179MOL   H10625382   6.613   1.247   3.481 -2.5715 -2.4249 -1.4438
  179MOL   C10725383   6.580   1.464   3.451 -0.2437  0.0601 -0.1217
  179MOL   C10825384   6.552   1.475   3.298  0.2481  0.8470 -0.0444
  179MOL   C10925385   6.417   1.508   3.265  0.2168  0.1641  0.0569
  179MOL   N11025386   6.305   1.530   3.249 -0.1823 -0.1512  0.1243
  179MOL   H11125387   6.522   1.540   3.504  1.3331  0.5594  0.9436
  179MOL   H11225388   6.683   1.488   3.480 -1.2963  1.8436  2.3272
  179MOL   H11325389   6.566   1.372   3.266  0.7861  0.9935 -0.2747
  179MOL   C11425390   6.656   1.568   3.230 -0.2656  0.3495 -0.7469
  179MOL   C11525391   6.638   1.716   3.218 -0.0036  0.3987 -0.1793
  179MOL   C11625392   6.565   1.780   3.332  0.3061  0.7614 -0.4494
  179MOL   N11725393   6.503   1.827   3.417 -0.3838 -0.0689 -0.6914
  179MOL   H11825394   6.754   1.548   3.275 -0.5989  1.5382  0.5575
  179MOL   H11925395   6.664   1.524   3.131 -1.6447 -0.2254 -0.6095
  179MOL   H12025396   6.569   1.727   3.134 -1.5236  2.1495  1.2411
  179MOL   C12125397   6.767   1.793   3.179  0.5354  0.0571 -0.0398
  179MOL   C12225398   6.866   1.822   3.301  0.0643  1.1927 -0.1755
  179MOL   C12325399   6.834   1.752   3.422  0.3184  0.5559 -0.1358
  179MOL   N12425400   6.811   1.700   3.521  0.4580 -0.9350  0.3382
  179MOL   H12525401   6.810   1.724   3.106 -1.5486 -1.9999  0.6138
  179MOL   H12625402   6.742   1.887   3.132  1.5176  0.4236  0.1646
  179MOL   H12725403   6.855   1.927   3.328  1.6953  1.3368 -0.0256
  179MOL   C12825404   7.017   1.781   3.268  0.1878 -0.0350 -0.6890
  179MOL   C12925405   7.118   1.813   3.373  0.1734 -0.6767 -0.9592
  179MOL   C13025406   7.239   1.735   3.352 -0.0858  0.1320  0.3700
  179MOL   N13125407   7.336   1.676   3.336  0.2188  0.3154  0.2566
  179MOL   H13225408   7.022   1.672   3.268  1.2382  0.0187  0.4047
  179MOL   H13325409   7.059   1.802   3.170  1.5374 -1.8110 -0.5007
  179MOL   H13425410   7.087   1.790   3.475  0.7072  1.3237 -0.3189
  179MOL   C13525411   7.143   1.970   3.372  0.5060 -0.0382 -0.0162
  179MOL   C13625412   7.290   2.018   3.393  0.3165 -0.2663 -0.1459
  179MOL   C13725413   7.308   2.162   3.388  0.4998 -0.3800  0.1731
  179MOL   N13825414   7.318   2.275   3.378 -0.0294  0.9967 -0.3305
  179MOL   H13925415   7.115   1.998   3.271 -1.3884 -0.7538  0.2977
  179MOL   H14025416   7.084   2.026   3.445  1.1609 -1.4051  1.5884
  179MOL   H14125417   7.358   1.972   3.321  1.3605  1.0903 -0.0366
  179MOL   H14225418   7.334   1.990   3.489 -1.0841 -0.5840  0.4266
  180MOL     C125419   6.610   4.960   4.076  0.5929 -0.2364  0.4398
  180MOL     C225420   6.560   5.051   3.966 -0.3929 -0.4384 -0.6094
  180MOL     C325421   6.434   5.130   3.992  0.9581  0.0384  0.1846
  180MOL     N425422   6.341   5.192   4.003 -0.0900 -0.2702 -0.2123
  180MOL     H525423   6.716   4.938   4.064  0.0425 -1.3616 -2.7792
  180MOL     H625424   6.553   4.868   4.076  1.7497 -1.0244 -2.4070
  180MOL     H725425   6.531   4.981   3.888 -1.4414 -2.4753  1.5489
  180MOL     H825426   6.605   5.001   4.177 -0.7002 -2.7500  1.4053
  180MOL     C925427   6.662   5.159   3.918  0.9593  0.0553 -0.0663
  180MOL    C1025428   6.776   5.092   3.833 -0.1297  0.1564  0.1245
  180MOL    C1125429   6.734   5.007   3.719  0.0107 -0.0548 -0.0406
  180MOL    N1225430   6.705   4.942   3.629  0.3775  0.3053 -0.3730
  180MOL    H1325431   6.609   5.233   3.858 -0.6566  2.0774  3.6332
  180MOL    H1425432   6.695   5.215   4.006  0.7937  1.0451 -0.6213
  180MOL    H1525433   6.820   5.029   3.911 -2.7226  1.1933  2.5322
  180MOL    C1625434   6.879   5.197   3.801 -0.0890 -0.2009 -0.0241
  180MOL    C1725435   6.958   5.188   3.665  0.0418 -0.1017 -0.6933
  180MOL    C1825436   7.030   5.315   3.647 -0.0174 -0.1714 -0.0382
  180MOL    N1925437   7.080   5.415   3.630 -0.2746 -0.6292  0.5436
  180MOL    H2025438   6.831   5.294   3.810 -1.5679 -0.8523 -0.5617
  180MOL    H2125439   6.957   5.188   3.876 -0.2267 -0.7182  0.0597
  180MOL    H2225440   6.885   5.174   3.585  2.1036 -0.9568 -2.4642
  180MOL    C2325441   7.051   5.067   3.658 -0.4475 -0.2440  0.0333
  180MOL    C2425442   7.141   5.069   3.538  0.9166  0.8907  0.6743
  180MOL    C2525443   7.075   5.127   3.425  0.4327 -0.1288 -0.2658
  180MOL    N2625444   7.027   5.181   3.339 -0.3404  0.3382  0.4341
  180MOL    H2725445   7.115   5.057   3.746 -0.3788 -0.1879 -0.0102
  180MOL    H2825446   6.998   4.972   3.662  0.6420 -0.8427  0.6435
  180MOL    H2925447   7.163   4.969   3.501 -0.4604  0.9694 -0.3838
  180MOL    C3025448   7.284   5.129   3.571  0.1647 -0.4922  0.4960
  180MOL    C3125449   7.390   5.094   3.461 -0.3172  0.6896  0.5486
  180MOL    C3225450   7.423   4.951   3.472 -0.3513  0.1162  0.2126
  180MOL    N3325451   7.447   4.838   3.490  0.7325  0.3377  0.3493
  180MOL    H3425452   7.275   5.237   3.576  2.1580 -0.2594 -0.6577
  180MOL    H3525453   7.311   5.107   3.674 -0.7008  0.3509  0.9143
  180MOL    H3625454   7.487   5.141   3.481 -0.0463  0.5977 -0.5186
  180MOL    C3725455   7.367   5.147   3.319  0.2199 -0.4636 -0.3414
  180MOL    C3825456   7.490   5.172   3.231 -0.6457  0.2338 -0.2270
  180MOL    C3925457   7.604   5.079   3.255 -0.2657 -0.1159 -0.6270
  180MOL    N4025458   7.693   5.011   3.279 -0.6507 -0.2770 -0.6729
  180MOL    H4125459   7.287   5.090   3.273 -1.0996  0.5970  0.5899
  180MOL    H4225460   7.326   5.248   3.328  1.0166 -0.0238 -1.4508
  180MOL    H4325461   7.535   5.264   3.269  0.4609 -0.8442  1.1544
  180MOL    C4425462   7.461   5.197   3.076 -0.2286  0.3455 -1.0070
  180MOL    C4525463   7.385   5.317   3.024 -0.0899 -0.3305 -0.9701
  180MOL    C4625464   7.428   5.450   3.079 -0.1614  0.5043  0.6088
  180MOL    N4725465   7.451   5.553   3.121  0.1178 -0.5982  0.5421
  180MOL    H4825466   7.560   5.192   3.029  0.2038  1.3764 -0.2230
  180MOL    H4925467   7.407   5.109   3.041  1.4308 -1.0878 -0.0678
  180MOL    H5025468   7.283   5.304   3.061  0.4461  1.5115  1.2522
  180MOL    C5125469   7.370   5.313   2.872  0.0979  0.1265 -0.7109
  180MOL    C5225470   7.270   5.415   2.813 -0.3321  0.5316  0.2159
  180MOL    C5325471   7.298   5.415   2.667 -0.4529  0.3523  0.1632
  180MOL    N5425472   7.326   5.414   2.558 -0.1726 -0.4526  0.0729
  180MOL    H5525473   7.467   5.329   2.825  1.5943 -1.2169  1.7846
  180MOL    H5625474   7.328   5.219   2.837  3.0733 -2.3221  2.0092
  180MOL    H5725475   7.294   5.512   2.855  2.0503 -0.0412  0.2304
  180MOL    C5825476   7.124   5.378   2.845 -0.4383 -0.0951  0.1698
  180MOL    C5925477   7.008   5.471   2.797 -0.6145 -0.4100 -0.7604
  180MOL    C6025478   7.046   5.556   2.681  0.1139 -0.0791  0.2500
  180MOL    N6125479   7.076   5.625   2.588 -0.7069  0.1149 -0.6755
  180MOL    H6225480   7.113   5.277   2.806  2.3223 -0.5397  0.4250
  180MOL    H6325481   7.100   5.385   2.951 -0.9285  2.0912 -0.0586
  180MOL    H6425482   6.983   5.548   2.869  0.7267 -0.4169 -0.2776
  180MOL    C6525483   6.871   5.399   2.765 -0.5438 -1.0961  0.4730
  180MOL    C6625484   6.766   5.481   2.684  0.1286  0.1629  0.4106
  180MOL    C6725485   6.650   5.395   2.652 -0.3897 -0.0815  0.4329
  180MOL    N6825486   6.562   5.321   2.634 -0.4833  0.3407 -0.5502
  180MOL    H6925487   6.900   5.317   2.700  0.0379 -0.5158 -0.0102
  180MOL    H7025488   6.837   5.351   2.857  0.6760 -0.7458  1.1075
  180MOL    H7125489   6.807   5.524   2.593  1.2944  0.5347  1.1062
  180MOL    C7225490   6.718   5.608   2.761 -0.1533 -0.4115 -0.4088
  180MOL    C7325491   6.635   5.707   2.674  0.8425 -0.1555  0.7564
  180MOL    C7425492   6.534   5.648   2.579  0.1735  0.2340 -0.1913
  180MOL    N7525493   6.452   5.602   2.509  0.0566 -0.5957 -0.9635
  180MOL    H7625494   6.662   5.569   2.847 -0.5195  0.4793 -0.2378
  180MOL    H7725495   6.809   5.656   2.795 -0.5893  0.6335 -0.6990
  180MOL    H7825496   6.707   5.749   2.603  1.5658 -2.0523  0.3065
  180MOL    C7925497   6.566   5.813   2.755 -0.3397  0.6398 -0.5021
  180MOL    C8025498   6.652   5.901   2.847  0.7755 -0.4102 -0.2657
  180MOL    C8125499   6.777   5.943   2.780  0.0809  0.1771  0.5190
  180MOL    N8225500   6.869   5.977   2.728 -0.3330 -0.2080  0.0191
  180MOL    H8325501   6.506   5.868   2.683  1.5697  0.5360 -2.2109
  180MOL    H8425502   6.496   5.755   2.816 -0.1817  0.3572 -0.5934
  180MOL    H8525503   6.681   5.832   2.926  0.9477  0.7955  0.7354
  180MOL    C8625504   6.574   6.014   2.919  0.0643 -0.0220  0.0408
  180MOL    C8725505   6.640   6.060   3.059  0.4588  0.1719 -0.4708
  180MOL    C8825506   6.766   6.137   3.039  0.0170 -0.2537 -0.3677
  180MOL    N8925507   6.866   6.196   3.025  0.3178 -0.2228 -0.1546
  180MOL    H9025508   6.577   6.096   2.848 -0.8057  1.2534  1.4649
  180MOL    H9125509   6.473   5.978   2.941 -0.2459  1.3296  0.8835
  180MOL    H9225510   6.666   5.966   3.106 -1.4047 -0.1096  0.0356
  180MOL    C9325511   6.538   6.114   3.166  0.0681 -0.0376  0.3301
  180MOL    C9425512   6.492   6.263   3.144  0.3024  0.1131  0.1548
  180MOL    C9525513   6.429   6.290   3.012 -0.7964  0.4022  0.6185
  180MOL    N9625514   6.382   6.316   2.910  0.8900  0.2773  0.0476
  180MOL    H9725515   6.450   6.050   3.171  1.4698 -2.4733 -3.9941
  180MOL    H9825516   6.593   6.106   3.260 -1.4773  1.6973  1.4274
  180MOL    H9925517   6.588   6.315   3.138  1.4565 -1.5828  2.9123
  180MOL   C10025518   6.414   6.313   3.264 -0.2833 -0.7746  0.1551
  180MOL   C10125519   6.368   6.461   3.258 -0.1201  0.2520 -0.0566
  180MOL   C10225520   6.247   6.485   3.181 -0.1530  0.2245 -0.2238
  180MOL   N10325521   6.153   6.502   3.119 -0.9384  0.7576  0.0162
  180MOL   H10425522   6.324   6.253   3.281 -2.1500  1.2929 -2.0634
  180MOL   H10525523   6.486   6.310   3.346 -1.3387 -0.0718  1.1127
  180MOL   H10625524   6.439   6.519   3.198  1.5588 -0.0975  1.5547
  180MOL   C10725525   6.357   6.536   3.391 -0.0146  0.1827 -0.6463
  180MOL   C10825526   6.474   6.563   3.490 -0.1857 -0.0632 -1.1577
  180MOL   C10925527   6.586   6.626   3.419  0.6728  0.5164 -0.1642
  180MOL   N11025528   6.676   6.675   3.364  0.1902 -0.1173  0.1527
  180MOL   H11125529   6.321   6.637   3.372  1.6466  1.4743  2.5937
  180MOL   H11225530   6.277   6.490   3.450  1.1710 -0.1097  0.7696
  180MOL   H11325531   6.529   6.476   3.524 -1.2898 -0.8980 -1.4914
  180MOL   C11425532   6.426   6.646   3.613  0.1602 -0.2403 -0.6272
  180MOL   C11525533   6.536   6.734   3.682  0.1472  0.5690 -0.6578
  180MOL   C11625534   6.571   6.857   3.614  0.1042  0.3215 -0.5143
  180MOL   N11725535   6.598   6.947   3.554 -0.3357 -0.0188  0.2057
  180MOL   H11825536   6.350   6.720   3.586  0.1190  0.1441  0.5140
  180MOL   H11925537   6.372   6.584   3.683 -2.1009  1.6534 -0.6175
  180MOL   H12025538   6.624   6.670   3.683  1.3452  2.1833 -0.9424
  180MOL   C12125539   6.498   6.767   3.824  0.4366 -0.2052 -0.4783
  180MOL   C12225540   6.366   6.840   3.851 -0.2837 -0.1334 -0.1218
  180MOL   C12325541   6.342   6.855   3.994 -0.5116  0.1208 -0.7410
  180MOL   N12425542   6.323   6.874   4.109  0.3794 -0.2725  0.2980
  180MOL   H12525543   6.493   6.674   3.880  1.1159  0.8430  1.3729
  180MOL   H12625544   6.582   6.826   3.861  0.3173  1.1543 -2.2771
  180MOL   H12725545   6.286   6.769   3.830 -0.2497 -0.3756  0.5779
  180MOL   C12825546   6.342   6.976   3.776  0.1524 -0.5653 -0.5838
  180MOL   C12925547   6.206   7.047   3.816 -0.1003 -0.4477  0.2588
  180MOL   C13025548   6.230   7.125   3.943  0.3154 -0.0458  1.0838
  180MOL   N13125549   6.246   7.180   4.043 -0.1189  0.5441  0.4932
  180MOL   H13225550   6.419   7.052   3.774 -2.0134  1.7889  1.6300
  180MOL   H13325551   6.322   6.940   3.675 -5.0711  2.3026 -0.7860
  180MOL   H13425552   6.134   6.971   3.845 -1.6045  1.1005  0.6204
  180MOL   C13525553   6.145   7.137   3.702 -0.3027  0.6417 -0.0685
  180MOL   C13625554   6.012   7.210   3.752 -0.4644 -0.0374  0.2697
  180MOL   C13725555   5.900   7.130   3.815 -0.3197  0.2453  0.5711
  180MOL   N13825556   5.818   7.061   3.865 -0.1232 -0.2464  0.5311
  180MOL   H13925557   6.218   7.216   3.682 -0.7597  0.8585 -0.8647
  180MOL   H14025558   6.142   7.074   3.614  2.2289  2.8441 -1.8170
  180MOL   H14125559   5.966   7.278   3.680 -2.9119  0.8115  2.5732
  180MOL   H14225560   6.039   7.275   3.835  4.0635 -0.2007 -0.9769
  181MOL     C125561   6.776   6.794   6.416  0.3853  0.3862  0.3784
  181MOL     C225562   6.660   6.736   6.513  0.2362 -0.0551  0.3234
  181MOL     C325563   6.668   6.808   6.637 -0.2338 -0.5196 -0.5534
  181MOL     N425564   6.681   6.860   6.737  0.8580  0.2095  0.0350
  181MOL     H525565   6.783   6.745   6.319 -1.5234 -1.0008  0.9021
  181MOL     H625566   6.873   6.792   6.465  1.0671 -0.0809 -0.9884
  181MOL     H725567   6.681   6.630   6.521 -1.1707 -0.3281  0.6243
  181MOL     H825568   6.756   6.898   6.392  4.7486  1.2352 -0.0173
  181MOL     C925569   6.519   6.727   6.443 -0.3349 -0.0441 -0.1200
  181MOL    C1025570   6.443   6.862   6.435  0.5281  0.1212 -0.3032
  181MOL    C1125571   6.534   6.981   6.436  1.3113  0.2335  0.0999
  181MOL    N1225572   6.611   7.065   6.431  0.4248  0.7366 -0.2854
  181MOL    H1325573   6.528   6.676   6.347 -2.6068  0.5106 -0.6626
  181MOL    H1425574   6.460   6.668   6.513 -0.7287 -1.3032 -1.5076
  181MOL    H1525575   6.370   6.880   6.514  0.8094 -3.8366  0.9757
  181MOL    C1625576   6.374   6.875   6.300  0.2661  0.6680  0.0934
  181MOL    C1725577   6.251   6.784   6.266 -0.4027 -0.1047  0.2157
  181MOL    C1825578   6.161   6.769   6.377 -0.1769 -0.4717  0.2089
  181MOL    N1925579   6.081   6.756   6.464  0.3692 -0.0245  0.4503
  181MOL    H2025580   6.346   6.979   6.287  0.5823  0.9117  1.3555
  181MOL    H2125581   6.459   6.853   6.235  0.6993  0.2970  0.7782
  181MOL    H2225582   6.282   6.679   6.256 -0.2238  0.0808 -1.2846
  181MOL    C2325583   6.182   6.819   6.134 -0.7192 -0.3449  0.8300
  181MOL    C2425584   6.254   6.796   6.001  0.1705 -0.0399 -0.2164
  181MOL    C2525585   6.335   6.670   6.004 -0.8245 -0.0832  0.1241
  181MOL    N2625586   6.397   6.574   5.997  0.4032  0.6667  0.9381
  181MOL    H2725587   6.090   6.762   6.123 -0.3084 -1.0759  1.1403
  181MOL    H2825588   6.142   6.920   6.139 -0.9179 -0.3248 -0.8566
  181MOL    H2925589   6.324   6.879   6.016 -0.9787  0.9885 -0.4976
  181MOL    C3025590   6.180   6.823   5.872 -0.0124  0.4282  0.9019
  181MOL    C3125591   6.254   6.866   5.743 -0.0426 -0.5186  0.2682
  181MOL    C3225592   6.362   6.779   5.704  0.4748  0.7221 -0.7453
  181MOL    N3325593   6.448   6.707   5.670  0.4170  0.3941 -0.3996
  181MOL    H3425594   6.132   6.727   5.851  0.9757  0.1717 -0.1933
  181MOL    H3525595   6.109   6.903   5.892  0.8499  0.9019  2.1077
  181MOL    H3625596   6.308   6.958   5.768  0.0257 -0.7720  1.0842
  181MOL    C3725597   6.143   6.887   5.626 -1.0611 -0.2255  0.2639
  181MOL    C3825598   6.203   6.895   5.484  0.4339  0.0290 -0.3012
  181MOL    C3925599   6.102   6.903   5.379  0.4460  0.1973 -0.2213
  181MOL    N4025600   6.019   6.909   5.300 -0.2556 -0.2256  0.4061
  181MOL    H4125601   6.075   6.803   5.614 -0.6452 -0.2884 -1.7687
  181MOL    H4225602   6.078   6.972   5.647  0.0075  0.6225  0.1898
  181MOL    H4325603   6.251   6.797   5.479 -1.1115 -0.8373  1.4570
  181MOL    C4425604   6.308   7.008   5.468 -0.0834 -0.1633 -0.0204
  181MOL    C4525605   6.252   7.155   5.455  0.0643  0.1081  0.0800
  181MOL    C4625606   6.192   7.192   5.582  0.3984 -0.3430 -0.0666
  181MOL    N4725607   6.153   7.226   5.685  0.0852  0.2022  0.1234
  181MOL    H4825608   6.378   7.012   5.552  0.5764  0.8137 -0.5982
  181MOL    H4925609   6.357   6.976   5.376  0.6923 -0.9736  0.6666
  181MOL    H5025610   6.176   7.148   5.377  0.4886 -1.7894 -0.1778
  181MOL    C5125611   6.356   7.263   5.420  0.6896  0.4102 -0.0083
  181MOL    C5225612   6.304   7.383   5.327 -0.7572  0.9940 -0.1622
  181MOL    C5325613   6.167   7.417   5.351  0.3995  0.4724 -0.3124
  181MOL    N5425614   6.054   7.437   5.364  0.1639 -0.3379  0.1377
  181MOL    H5525615   6.392   7.319   5.506  1.6858 -0.2547  0.0240
  181MOL    H5625616   6.449   7.219   5.385  1.2918  1.7781 -0.1759
  181MOL    H5725617   6.305   7.338   5.228 -0.4835  0.8029 -0.0694
  181MOL    C5825618   6.399   7.509   5.322  0.1478 -0.0084 -0.2920
  181MOL    C5925619   6.388   7.605   5.202 -0.0840  0.6934  0.2476
  181MOL    C6025620   6.369   7.542   5.070 -0.1601  0.1074  0.7108
  181MOL    N6125621   6.347   7.486   4.972 -0.0203  0.9353 -1.0507
  181MOL    H6225622   6.368   7.563   5.411  0.3153 -1.0960  0.4381
  181MOL    H6325623   6.504   7.486   5.341 -0.5727 -0.9523  2.9015
  181MOL    H6425624   6.489   7.642   5.183  0.6380  0.6298  3.5749
  181MOL    C6525625   6.291   7.730   5.228 -0.0485 -0.0005  0.1186
  181MOL    C6625626   6.359   7.851   5.307  0.9779 -0.1433  0.4433
  181MOL    C6725627   6.461   7.916   5.220 -0.1414 -0.9483 -1.0359
  181MOL    N6825628   6.544   7.966   5.159 -0.4150 -0.0437 -0.3585
  181MOL    H6925629   6.246   7.763   5.135  0.1929 -1.6191 -0.5925
  181MOL    H7025630   6.208   7.694   5.288 -1.4235  2.3848 -0.2696
  181MOL    H7125631   6.410   7.807   5.393  1.7873  0.4200  0.2601
  181MOL    C7225632   6.249   7.953   5.348 -0.1972 -0.5372 -0.0906
  181MOL    C7325633   6.141   7.907   5.445  0.1790  0.0341 -0.2518
  181MOL    C7425634   6.145   7.979   5.575  0.0268 -0.8294 -0.1728
  181MOL    N7525635   6.156   8.029   5.682  0.2348 -1.0690  0.1393
  181MOL    H7625636   6.297   8.035   5.402 -0.5843  0.0594 -0.6445
  181MOL    H7725637   6.209   7.982   5.250  0.3588  0.7847  0.0674
  181MOL    H7825638   6.173   7.804   5.461 -0.9209 -0.5083 -1.5451
  181MOL    C7925639   6.006   7.900   5.378 -0.4780 -0.8236  0.4235
  181MOL    C8025640   5.893   7.846   5.472 -0.6218 -0.3176 -0.0878
  181MOL    C8125641   5.763   7.871   5.419 -0.9667  0.6797  0.4376
  181MOL    N8225642   5.660   7.885   5.372 -0.4491  0.4761 -0.4968
  181MOL    H8325643   5.966   7.990   5.334 -0.2788 -1.3537 -0.8537
  181MOL    H8425644   6.013   7.834   5.292 -2.7889 -2.2430  1.2939
  181MOL    H8525645   5.907   7.890   5.571  1.9134  1.9266 -1.3905
  181MOL    C8625646   5.910   7.693   5.505 -0.2942  0.0996  0.3039
  181MOL    C8725647   5.834   7.645   5.628  0.1633 -0.2347 -0.3706
  181MOL    C8825648   5.694   7.670   5.633  0.2295 -0.5781 -0.6895
  181MOL    N8925649   5.585   7.685   5.638 -0.1428  0.0492 -0.1004
  181MOL    H9025650   5.858   7.647   5.421  0.0182  0.0696  0.1257
  181MOL    H9125651   6.018   7.675   5.508 -0.2813  0.1185 -0.0345
  181MOL    H9225652   5.869   7.703   5.713 -1.4022  0.7959 -0.4066
  181MOL    C9325653   5.862   7.500   5.662 -0.1540 -0.3616  0.3971
  181MOL    C9425654   5.766   7.389   5.607 -0.5949  0.1855 -0.2372
  181MOL    C9525655   5.731   7.397   5.465 -0.0118  0.3990 -0.4460
  181MOL    N9625656   5.703   7.403   5.353  0.1345  0.1233  0.9638
  181MOL    H9725657   5.967   7.475   5.647 -0.0586  0.6746 -0.6837
  181MOL    H9825658   5.860   7.499   5.771 -1.3274  0.6900  0.3952
  181MOL    H9925659   5.667   7.404   5.649 -0.6441  1.5455 -0.8188
  181MOL   C10025660   5.818   7.242   5.631 -0.2393  0.3785  0.0033
  181MOL   C10125661   5.717   7.130   5.613  0.0342 -0.2690  0.0503
  181MOL   C10225662   5.779   7.010   5.668 -0.5034 -0.2526  0.2325
  181MOL   N10325663   5.828   6.911   5.710  0.2342 -0.6687  0.0783
  181MOL   H10425664   5.917   7.227   5.588 -0.1263 -1.0077  0.7146
  181MOL   H10525665   5.841   7.230   5.737 -1.8472 -1.9413  0.1346
  181MOL   H10625666   5.699   7.105   5.509 -0.3457 -0.2361  0.1079
  181MOL   C10725667   5.575   7.150   5.678 -0.9573  0.0202 -0.5032
  181MOL   C10825668   5.561   7.144   5.835  0.0203  0.3614  0.2662
  181MOL   C10925669   5.650   7.236   5.903 -0.5205  0.1034 -0.8000
  181MOL   N11025670   5.720   7.307   5.966 -0.3633 -0.5287  0.1873
  181MOL   H11125671   5.521   7.240   5.648 -0.3001  0.1671 -1.2700
  181MOL   H11225672   5.510   7.069   5.646 -0.4750 -1.3034  1.7224
  181MOL   H11325673   5.580   7.041   5.868 -0.3767 -0.3414 -1.6577
  181MOL   C11425674   5.413   7.166   5.872 -0.1694  0.0299  0.5590
  181MOL   C11525675   5.359   7.139   6.014  0.1783  0.1756 -0.5699
  181MOL   C11625676   5.360   6.992   6.046  0.0344 -0.8353  0.0942
  181MOL   N11725677   5.361   6.881   6.072 -0.4520 -0.0570 -0.2907
  181MOL   H11825678   5.391   7.271   5.852  0.1069  0.2467  1.3744
  181MOL   H11925679   5.354   7.108   5.801 -1.4982  0.8069  0.9962
  181MOL   H12025680   5.252   7.161   6.021 -0.2806 -1.4281 -1.9684
  181MOL   C12125681   5.433   7.225   6.111  0.0615 -0.0566 -0.4569
  181MOL   C12225682   5.350   7.245   6.239 -0.0070 -0.0731 -0.3063
  181MOL   C12325683   5.421   7.273   6.360  0.1090 -0.0929  0.5547
  181MOL   N12425684   5.477   7.288   6.458 -0.3243 -0.2798 -0.3835
  181MOL   H12525685   5.523   7.168   6.132  0.1345  0.1798 -0.1195
  181MOL   H12625686   5.459   7.318   6.061 -1.3309 -0.6884 -2.3738
  181MOL   H12725687   5.302   7.151   6.265  1.5410 -1.0725 -0.9495
  181MOL   C12825688   5.233   7.348   6.208  0.4875 -0.3014 -0.3899
  181MOL   C12925689   5.220   7.465   6.306  0.0066 -0.3399 -0.3732
  181MOL   C13025690   5.348   7.544   6.293 -0.1022 -0.1994 -0.2946
  181MOL   N13125691   5.443   7.606   6.283 -0.1101 -0.5391 -0.0495
  181MOL   H13225692   5.236   7.394   6.110  0.8744 -1.0082 -0.7199
  181MOL   H13325693   5.138   7.294   6.207 -0.0065  0.5455  0.0620
  181MOL   H13425694   5.223   7.425   6.407  0.6881 -2.6011 -1.2626
  181MOL   C13525695   5.100   7.556   6.286  0.4703  0.1316  0.0286
  181MOL   C13625696   5.078   7.653   6.399 -0.3420 -0.5165 -0.4479
  181MOL   C13725697   5.044   7.609   6.535  0.6891  0.5069  0.0940
  181MOL   N13825698   5.019   7.578   6.644  0.3487  0.4469 -0.4027
  181MOL   H13925699   5.110   7.615   6.195  1.5839 -0.9267 -0.5446
  181MOL   H14025700   5.010   7.497   6.269  0.2110  0.4148  0.4328
  181MOL   H14125701   4.999   7.722   6.370 -1.5070 -2.6563 -2.5304
  181MOL   H14225702   5.165   7.718   6.408  0.7512 -2.0067 -0.0232
  182MOL     C125703   4.100   7.191   7.909 -0.1674 -0.8784 -0.1371
  182MOL     C225704   3.986   7.101   7.873  0.3973 -0.2529  0.2169
  182MOL     C325705   4.024   6.959   7.859  0.0171 -0.4495 -0.0074
  182MOL     N425706   4.056   6.851   7.847  0.0026 -0.1041  0.0676
  182MOL     H525707   4.189   7.179   7.847 -0.6442  0.0996 -1.0268
  182MOL     H625708   4.128   7.170   8.012 -1.4886 -2.4170 -0.0857
  182MOL     H725709   3.975   7.130   7.769  2.3142 -0.3482 -0.0263
  182MOL     H825710   4.060   7.293   7.907 -0.3605 -0.8977  1.8763
  182MOL     C925711   3.852   7.105   7.954 -0.3872 -1.2764 -0.0209
  182MOL    C1025712   3.727   7.028   7.905  0.3528 -0.4565  0.2308
  182MOL    C1125713   3.623   7.032   8.011 -0.2348 -0.1967 -0.0726
  182MOL    N1225714   3.542   7.030   8.091 -0.0096  0.3820 -0.6992
  182MOL    H1325715   3.879   7.070   8.054  0.1136 -0.0130  0.3056
  182MOL    H1425716   3.820   7.210   7.953  1.3520 -0.7217 -2.2402
  182MOL    H1525717   3.751   6.921   7.904 -0.2843 -0.6270  1.8737
  182MOL    C1625718   3.672   7.061   7.766  0.3603 -0.5030  0.1210
  182MOL    C1725719   3.567   6.957   7.719 -0.6101  0.0905 -0.2842
  182MOL    C1825720   3.448   6.939   7.801  0.1996 -0.1333  0.1661
  182MOL    N1925721   3.355   6.924   7.869  0.6748 -0.6286 -0.6891
  182MOL    H2025722   3.624   7.158   7.778  1.8226  0.2105  0.1937
  182MOL    H2125723   3.752   7.069   7.692  0.4704  0.2328  0.3184
  182MOL    H2225724   3.604   6.855   7.728 -0.9668  0.0121  0.3317
  182MOL    C2325725   3.540   6.976   7.578 -0.2095 -0.3022  0.0726
  182MOL    C2425726   3.428   6.898   7.505  0.2848 -0.0125  0.2827
  182MOL    C2525727   3.441   6.936   7.363  0.1948  0.1699 -0.2152
  182MOL    N2625728   3.442   6.965   7.253  0.0958  0.1771 -0.2221
  182MOL    H2725729   3.508   7.079   7.568  1.9536  0.3040 -0.8906
  182MOL    H2825730   3.629   6.965   7.515  1.9306  1.9620  2.5435
  182MOL    H2925731   3.333   6.934   7.544 -0.3831 -1.3851 -0.0302
  182MOL    C3025732   3.459   6.745   7.518  0.9077 -0.5425 -0.3796
  182MOL    C3125733   3.348   6.657   7.459 -0.2232  0.3687 -0.2089
  182MOL    C3225734   3.213   6.709   7.479 -0.1576 -0.8144  1.0028
  182MOL    N3325735   3.105   6.755   7.482  0.0501 -0.1938  0.0324
  182MOL    H3425736   3.556   6.708   7.484  0.7599 -1.9186  0.6805
  182MOL    H3525737   3.461   6.720   7.623  1.8975  0.5246 -0.1335
  182MOL    H3625738   3.353   6.566   7.519  0.4632  0.1936 -0.5303
  182MOL    C3725739   3.383   6.613   7.315  0.5083 -0.0252  0.1218
  182MOL    C3825740   3.333   6.470   7.268  0.3678  0.4538 -0.1497
  182MOL    C3925741   3.181   6.461   7.272  0.1343 -0.1660  0.1608
  182MOL    N4025742   3.064   6.455   7.274  0.1443  0.7258 -0.4643
  182MOL    H4125743   3.356   6.693   7.246 -0.4121 -1.1099 -0.7975
  182MOL    H4225744   3.492   6.603   7.313  0.6636  1.2946  1.2065
  182MOL    H4325745   3.372   6.404   7.346  1.7557 -0.9590 -1.9766
  182MOL    C4425746   3.405   6.435   7.143  0.8900 -0.5041 -0.2530
  182MOL    C4525747   3.394   6.302   7.077 -0.1921 -0.3366  0.8954
  182MOL    C4625748   3.408   6.181   7.162  0.2229 -0.4230  0.2761
  182MOL    N4725749   3.420   6.091   7.232 -0.1180 -0.3652  0.8024
  182MOL    H4825750   3.374   6.507   7.068 -0.5214  1.1286  1.8087
  182MOL    H4925751   3.511   6.462   7.154  0.9335 -0.7880  0.0398
  182MOL    H5025752   3.471   6.288   7.000  0.5317 -1.9662  1.9019
  182MOL    C5125753   3.267   6.288   6.987  0.2448  0.3228 -0.6612
  182MOL    C5225754   3.283   6.364   6.852 -0.1058  0.3236 -0.0166
  182MOL    C5325755   3.374   6.281   6.768 -0.1079  0.2262 -0.4515
  182MOL    N5425756   3.447   6.219   6.705  0.3587  0.3560 -0.1722
  182MOL    H5525757   3.236   6.186   6.966  0.3779  0.1882 -0.1892
  182MOL    H5625758   3.185   6.334   7.041 -0.2554 -1.2804 -0.0267
  182MOL    H5725759   3.334   6.455   6.883  0.4299 -0.2885  0.9066
  182MOL    C5825760   3.144   6.391   6.787 -0.2025  0.0080 -0.2880
  182MOL    C5925761   3.154   6.464   6.648 -0.3374 -0.2538  0.5406
  182MOL    C6025762   3.079   6.382   6.557  0.3985  0.1710  0.1615
  182MOL    N6125763   3.015   6.323   6.481 -0.0815 -0.6495 -0.3898
  182MOL    H6225764   3.112   6.291   6.759  0.6621 -0.2560 -0.3355
  182MOL    H6325765   3.076   6.438   6.858  0.7161 -0.8532  1.1975
  182MOL    H6425766   3.257   6.448   6.615  1.0241  2.7850  2.9443
  182MOL    C6525767   3.117   6.617   6.636 -0.4209  0.3999 -0.0576
  182MOL    C6625768   3.212   6.711   6.706 -0.6896 -0.8159 -0.6166
  182MOL    C6725769   3.205   6.708   6.856  0.2295 -0.3921 -0.6755
  182MOL    N6825770   3.197   6.699   6.975  0.5460 -0.1466  0.4116
  182MOL    H6925771   3.112   6.645   6.531  1.5155  0.8375 -0.0547
  182MOL    H7025772   3.017   6.625   6.677 -1.4491  1.1778 -2.6271
  182MOL    H7125773   3.178   6.809   6.672  0.5573 -0.1237  0.0963
  182MOL    C7225774   3.356   6.699   6.656 -0.3229  0.4348  0.0005
  182MOL    C7325775   3.441   6.825   6.665 -0.1952  0.5978 -0.1379
  182MOL    C7425776   3.439   6.913   6.787  0.7708  0.5068  0.0106
  182MOL    N7525777   3.429   6.980   6.877  0.2870  0.2747 -0.1721
  182MOL    H7625778   3.407   6.611   6.694  1.4805 -0.1456 -3.5266
  182MOL    H7725779   3.356   6.683   6.548 -0.0473  2.3354 -0.3103
  182MOL    H7825780   3.405   6.890   6.586  1.0244  1.5333  0.0602
  182MOL    C7925781   3.588   6.789   6.620  0.4470  0.2308  0.2045
  182MOL    C8025782   3.679   6.769   6.744  0.5036 -0.1273  0.0929
  182MOL    C8125783   3.635   6.667   6.834  0.1620  0.8609  0.1641
  182MOL    N8225784   3.603   6.584   6.908 -0.1137  0.0131 -0.5543
  182MOL    H8325785   3.594   6.703   6.554  1.4392  1.2229 -1.0207
  182MOL    H8425786   3.635   6.871   6.566  0.8112  0.9545  1.5840
  182MOL    H8525787   3.692   6.861   6.802  1.2084  2.2872 -3.6480
  182MOL    C8625788   3.821   6.744   6.690 -0.3644  0.0825  0.7347
  182MOL    C8725789   3.932   6.799   6.783 -0.6253 -0.4132 -0.4002
  182MOL    C8825790   3.957   6.702   6.893  0.1065  0.1841 -0.1994
  182MOL    N8925791   3.979   6.629   6.974  0.2506  0.4731 -0.3652
  182MOL    H9025792   3.850   6.639   6.678 -0.4847  0.0466  0.7551
  182MOL    H9125793   3.828   6.787   6.590  0.2458 -2.1556 -0.2135
  182MOL    H9225794   3.887   6.888   6.826  4.4791  1.9797  0.3076
  182MOL    C9325795   4.064   6.837   6.710  0.0384 -0.1883 -0.7676
  182MOL    C9425796   4.181   6.869   6.812 -0.2294 -0.4213  0.9286
  182MOL    C9525797   4.312   6.828   6.759 -0.5658  0.1655  0.3378
  182MOL    N9625798   4.413   6.797   6.715 -0.1854 -0.2497  0.0621
  182MOL    H9725799   4.108   6.755   6.653  0.7705 -1.2804  1.3223
  182MOL    H9825800   4.055   6.922   6.642 -0.9629 -0.3815 -0.8793
  182MOL    H9925801   4.171   6.815   6.906 -0.9154 -0.5215  0.7986
  182MOL   C10025802   4.197   7.015   6.849 -0.4415 -0.4529  0.0213
  182MOL   C10125803   4.300   7.103   6.768  0.7495  0.3191 -0.1229
  182MOL   C10225804   4.312   7.081   6.624  0.6082 -0.3999  0.3015
  182MOL   N10325805   4.326   7.058   6.512 -0.2316 -0.4082  0.2374
  182MOL   H10425806   4.108   7.076   6.861  1.2012  1.7131  1.6321
  182MOL   H10525807   4.222   7.021   6.954 -0.0722  0.3756 -0.1041
  182MOL   H10625808   4.400   7.068   6.790  0.6535  0.3227  0.3143
  182MOL   C10725809   4.289   7.247   6.822 -0.4966  0.3525  0.4476
  182MOL   C10825810   4.411   7.342   6.771  0.1891 -0.1226 -0.0861
  182MOL   C10925811   4.384   7.396   6.637  0.0245 -0.9714  0.0545
  182MOL   N11025812   4.367   7.437   6.527  0.5328 -0.0411  0.0565
  182MOL   H11125813   4.191   7.293   6.809 -0.1256  1.0791  0.1699
  182MOL   H11225814   4.311   7.247   6.929 -1.1045  0.7587  0.5767
  182MOL   H11325815   4.492   7.273   6.749  0.0366 -0.0098 -1.0444
  182MOL   C11425816   4.463   7.455   6.866 -0.6402  0.1294 -0.7471
  182MOL   C11525817   4.613   7.497   6.848  0.0342 -0.7070 -0.3009
  182MOL   C11625818   4.628   7.604   6.749 -0.0074  0.2322 -0.1091
  182MOL   N11725819   4.649   7.683   6.669 -0.0324  0.2626 -0.3089
  182MOL   H11825820   4.395   7.541   6.872  0.2627  0.7633  0.7711
  182MOL   H11925821   4.455   7.409   6.964 -2.7808  0.9856 -0.4775
  182MOL   H12025822   4.669   7.407   6.821  0.7595 -0.3958  0.1679
  182MOL   C12125823   4.679   7.552   6.973  0.5973 -0.2563  0.3181
  182MOL   C12225824   4.831   7.546   6.994  0.0100  0.2213 -0.6915
  182MOL   C12325825   4.891   7.423   6.945  0.4504  0.4032  0.7576
  182MOL   N12425826   4.946   7.328   6.905  0.0314  0.3129  0.0468
  182MOL   H12525827   4.648   7.655   6.991  0.6060 -0.3321  0.7600
  182MOL   H12625828   4.627   7.496   7.051 -0.3536 -2.0269 -1.5462
  182MOL   H12725829   4.853   7.548   7.100 -0.0428  1.1416 -0.6933
  182MOL   C12825830   4.904   7.672   6.953  0.0121  0.1044  0.1652
  182MOL   C12925831   5.060   7.666   6.965 -0.0376  0.1524 -0.2899
  182MOL   C13025832   5.112   7.788   6.898 -0.3717  0.1740 -0.2255
  182MOL   N13125833   5.143   7.887   6.846  0.5329  0.0886 -0.2969
  182MOL   H13225834   4.873   7.698   6.852  1.3296 -0.8691 -0.5088
  182MOL   H13325835   4.863   7.753   7.014 -0.6544 -1.1188  1.3736
  182MOL   H13425836   5.099   7.585   6.903  0.2183  0.8013 -0.9854
  182MOL   C13525837   5.110   7.644   7.110  0.1964 -0.6947  0.4850
  182MOL   C13625838   5.260   7.665   7.128 -0.4895  0.2479 -0.5048
  182MOL   C13725839   5.336   7.614   7.012 -0.6091  0.6382  0.0405
  182MOL   N13825840   5.390   7.575   6.915 -0.0193  0.0498 -0.2545
  182MOL   H13925841   5.058   7.710   7.180 -0.6020 -3.4311  2.5317
  182MOL   H14025842   5.097   7.545   7.153 -1.3186 -1.0694 -0.7806
  182MOL   H14125843   5.289   7.615   7.220 -0.6451 -0.3306 -0.7652
  182MOL   H14225844   5.292   7.769   7.137  0.4501  0.0645 -1.6203
  183MOL     C125845   5.399   0.178   6.322 -0.2635  0.0492  0.0048
  183MOL     C225846   5.414   0.123   6.179 -0.7084  0.5841 -0.0042
  183MOL     C325847   5.481   8.303   6.188 -0.0101 -0.0253 -0.2537
  183MOL     N425848   5.531   8.198   6.207 -0.2223 -0.2198  0.4177
  183MOL     H525849   5.322   0.131   6.383 -1.8078  0.9477 -1.2141
  183MOL     H625850   5.366   0.282   6.320 -0.6810 -0.0811  0.0588
  183MOL     H725851   5.485   0.187   6.126  0.4523  0.0504  0.8658
  183MOL     H825852   5.494   0.182   6.375 -0.8270 -0.5214  1.0884
  183MOL     C925853   5.280   0.115   6.106 -0.6703 -0.2221 -0.3525
  183MOL    C1025854   5.180   0.229   6.111 -0.0048  0.8780 -0.6546
  183MOL    C1125855   5.219   0.364   6.068  0.0989 -0.5754 -0.1032
  183MOL    N1225856   5.252   0.471   6.036 -0.0236  0.2456 -0.3946
  183MOL    H1325857   5.305   0.085   6.004  0.6296 -2.4526  0.5791
  183MOL    H1425858   5.220   0.036   6.152 -2.1923  0.3079 -1.3581
  183MOL    H1525859   5.168   0.252   6.217 -3.9383  3.5661 -1.5794
  183MOL    C1625860   5.045   0.185   6.053  0.7853 -0.0403  0.4583
  183MOL    C1725861   4.953   0.096   6.139  0.3260 -0.1210  0.2814
  183MOL    C1825862   4.938   0.148   6.272 -0.1434  0.3523 -0.3573
  183MOL    N1925863   4.927   0.192   6.385  0.0840 -0.0139  0.7438
  183MOL    H2025864   4.991   0.274   6.020  0.8325 -0.6722 -1.3948
  183MOL    H2125865   5.066   0.137   5.957 -0.3295  0.4525 -0.0424
  183MOL    H2225866   5.014   0.008   6.159  4.4965  2.6555  0.3287
  183MOL    C2325867   4.817   0.049   6.081  0.3378 -0.7091  0.0618
  183MOL    C2425868   4.812   8.222   6.021  0.1557 -0.2681  0.1179
  183MOL    C2525869   4.904   8.223   5.913  0.3897 -0.2391 -0.0841
  183MOL    N2625870   4.982   8.217   5.831 -0.3040  0.5826 -0.0660
  183MOL    H2725871   4.750   0.049   6.166  0.3607  0.0492  0.0856
  183MOL    H2825872   4.768   0.121   6.015  1.6522 -0.1257 -0.3156
  183MOL    H2925873   4.718   8.206   5.969  0.0579  0.2094  0.1504
  183MOL    C3025874   4.830   8.111   6.126  0.1760  0.3168 -0.8835
  183MOL    C3125875   4.793   7.965   6.072  0.7010 -0.4149 -0.2214
  183MOL    C3225876   4.900   7.916   5.983  0.0047 -0.1133 -0.0564
  183MOL    N3325877   4.990   7.884   5.911  0.3701 -0.2034  0.2137
  183MOL    H3425878   4.935   8.105   6.154 -0.7881  0.6158  3.1111
  183MOL    H3525879   4.779   8.146   6.216  0.0301  0.1559 -0.9041
  183MOL    H3625880   4.694   7.976   6.028  0.6865 -0.7512 -0.2734
  183MOL    C3725881   4.780   7.880   6.209 -0.0047 -0.0001 -0.2187
  183MOL    C3825882   4.719   7.744   6.189  0.1294  0.5659 -0.7634
  183MOL    C3925883   4.802   7.666   6.094  0.8360 -0.0762  0.0011
  183MOL    N4025884   4.867   7.610   6.018 -0.5241  0.2476 -0.3756
  183MOL    H4125885   4.879   7.867   6.253  0.6133 -1.1341 -1.9018
  183MOL    H4225886   4.721   7.940   6.278 -0.1725  1.2678 -1.4320
  183MOL    H4325887   4.624   7.750   6.136 -1.4447 -0.5941  1.8448
  183MOL    C4425888   4.687   7.676   6.323 -0.3699  0.3122 -0.0362
  183MOL    C4525889   4.573   7.571   6.318  0.3749  0.1424 -0.1635
  183MOL    C4625890   4.436   7.607   6.264  0.2281  0.6316 -0.1386
  183MOL    N4725891   4.335   7.642   6.221 -0.3348  0.2322 -0.0199
  183MOL    H4825892   4.777   7.632   6.367 -0.1654  0.3504 -0.4249
  183MOL    H4925893   4.647   7.757   6.384 -0.9935  0.5420 -0.7504
  183MOL    H5025894   4.536   7.553   6.419  1.2146 -1.0266 -0.0490
  183MOL    C5125895   4.635   7.437   6.264  1.2307  0.2362  0.6524
  183MOL    C5225896   4.544   7.308   6.298  0.2604  0.3782 -0.3327
  183MOL    C5325897   4.411   7.298   6.243 -0.7497  0.0474 -0.3644
  183MOL    N5425898   4.304   7.286   6.198  0.2439  0.4049  0.9069
  183MOL    H5525899   4.648   7.448   6.156 -1.3122 -0.1356  0.2923
  183MOL    H5625900   4.736   7.421   6.304  1.4212  1.7344  0.8022
  183MOL    H5725901   4.531   7.300   6.406 -3.1915 -3.0048 -0.8943
  183MOL    C5825902   4.626   7.178   6.264  0.1015 -0.4942  0.0260
  183MOL    C5925903   4.614   7.128   6.116  0.3127  0.2014  0.1379
  183MOL    C6025904   4.600   7.237   6.017  1.1056 -0.5296  0.5255
  183MOL    N6125905   4.587   7.323   5.939  0.3013  0.1175  0.3729
  183MOL    H6225906   4.728   7.205   6.292  0.2219  1.3545 -2.0673
  183MOL    H6325907   4.608   7.104   6.342  1.7402 -0.9378  0.0086
  183MOL    H6425908   4.520   7.075   6.106  0.2320  0.6633 -1.7135
  183MOL    C6525909   4.738   7.041   6.077 -0.1000 -0.2273  0.1033
  183MOL    C6625910   4.731   6.883   6.092  0.5037  0.3597  0.4232
  183MOL    C6725911   4.604   6.836   6.032  0.1025  0.9363  0.9106
  183MOL    N6825912   4.508   6.801   5.981  0.2533  0.2296  0.5257
  183MOL    H6925913   4.758   7.057   5.970  0.6698  3.0854  0.6691
  183MOL    H7025914   4.826   7.087   6.123 -0.7568  1.2113 -0.0613
  183MOL    H7125915   4.717   6.860   6.198 -0.8924  1.1624  0.4307
  183MOL    C7225916   4.850   6.824   6.023 -0.0082  0.1416  0.6669
  183MOL    C7325917   4.984   6.805   6.098  0.2209 -0.1953 -0.3686
  183MOL    C7425918   5.035   6.932   6.157  0.0201  0.0052 -0.5816
  183MOL    N7525919   5.077   7.024   6.208 -0.1156 -0.1074  0.2952
  183MOL    H7625920   4.821   6.728   5.980 -0.2370  0.8476 -0.7870
  183MOL    H7725921   4.881   6.888   5.940  1.3319 -1.0946  0.1891
  183MOL    H7825922   5.050   6.778   6.017  1.4365  0.4906  0.3715
  183MOL    C7925923   4.975   6.696   6.208 -0.2987 -0.3074  0.6226
  183MOL    C8025924   5.111   6.669   6.272 -0.0153 -0.0074  0.1947
  183MOL    C8125925   5.151   6.759   6.380  0.2784  0.0854  0.4727
  183MOL    N8225926   5.186   6.825   6.468  0.7746  0.3657  0.5434
  183MOL    H8325927   4.903   6.721   6.287  0.2519  0.2212  0.9672
  183MOL    H8425928   4.939   6.606   6.160 -1.3825  1.3623 -1.7740
  183MOL    H8525929   5.190   6.672   6.198  1.8135 -0.8472  2.0547
  183MOL    C8625930   5.113   6.516   6.308 -0.5219  0.4355 -0.1379
  183MOL    C8725931   5.097   6.478   6.458  0.2563  0.0789 -0.0293
  183MOL    C8825932   4.960   6.529   6.487  0.0326  0.6036  0.4280
  183MOL    N8925933   4.854   6.563   6.503  0.1025  0.5574  0.1685
  183MOL    H9025934   5.036   6.457   6.260 -1.3814  1.6607 -0.2863
  183MOL    H9125935   5.205   6.478   6.263  0.4284  0.5144  1.6807
  183MOL    H9225936   5.169   6.528   6.523 -0.0525 -0.5368  0.7908
  183MOL    C9325937   5.119   6.330   6.485  0.4440  0.0486 -0.1135
  183MOL    C9425938   5.081   6.276   6.623  0.0566 -0.2501  0.2632
  183MOL    C9525939   4.937   6.271   6.633  0.5640  0.3518  0.3410
  183MOL    N9625940   4.815   6.271   6.636  0.1549  0.4796 -0.3421
  183MOL    H9725941   5.075   6.266   6.409  2.0540 -0.3406 -0.7346
  183MOL    H9825942   5.228   6.327   6.489  0.4708  0.9142 -0.1283
  183MOL    H9925943   5.114   6.347   6.699  0.8643  0.6659 -0.9312
  183MOL   C10025944   5.141   6.142   6.668 -0.0137  0.5088  0.2677
  183MOL   C10125945   5.290   6.139   6.691 -0.3056 -0.1983 -0.1119
  183MOL   C10225946   5.338   6.152   6.832 -0.2986  0.9066  0.3510
  183MOL   N10325947   5.376   6.163   6.942 -0.5576  0.2128 -0.1777
  183MOL   H10425948   5.101   6.110   6.764 -1.8751  0.8253 -0.3942
  183MOL   H10525949   5.105   6.068   6.596 -2.3553  1.8176  0.0579
  183MOL   H10625950   5.337   6.232   6.660  0.3281 -0.7586 -0.8577
  183MOL   C10725951   5.333   6.008   6.625 -0.5813 -1.0489 -0.2414
  183MOL   C10825952   5.489   5.977   6.641 -0.1013 -0.3789 -0.3134
  183MOL   C10925953   5.523   5.856   6.569  0.0073  0.2812 -1.1583
  183MOL   N11025954   5.550   5.758   6.514 -0.3356  0.2905  0.3866
  183MOL   H11125955   5.277   5.918   6.651 -0.5549 -0.9356  0.2245
  183MOL   H11225956   5.321   6.033   6.520  0.1912  0.6020  0.0382
  183MOL   H11325957   5.501   5.951   6.747 -1.6157  1.1418  0.2570
  183MOL   C11425958   5.584   6.097   6.620 -0.5457  0.4819 -0.1060
  183MOL   C11525959   5.736   6.083   6.654  0.8394  0.4483 -0.6633
  183MOL   C11625960   5.744   6.028   6.787 -0.1917 -0.9117  0.2180
  183MOL   N11725961   5.745   5.977   6.890 -0.3209  0.1150  0.1476
  183MOL   H11825962   5.562   6.124   6.517 -2.5759 -1.8531 -0.3535
  183MOL   H11925963   5.546   6.183   6.674 -4.7774  0.2265 -2.4301
  183MOL   H12025964   5.769   6.186   6.668 -2.2822  1.5937 -1.2546
  183MOL   C12125965   5.828   6.018   6.543 -0.1224  0.9665  0.0574
  183MOL   C12225966   5.975   6.010   6.589 -0.1392 -0.2868  0.5415
  183MOL   C12325967   6.047   5.907   6.513  0.3010  0.0998  0.6264
  183MOL   N12425968   6.105   5.825   6.457  0.0825 -0.4638 -0.3451
  183MOL   H12525969   5.794   5.921   6.505 -0.9348  1.4690 -0.5255
  183MOL   H12625970   5.826   6.089   6.461 -1.0543 -1.1765 -1.8528
  183MOL   H12725971   5.983   5.964   6.687  4.2099 -1.4428 -0.2360
  183MOL   C12825972   6.052   6.138   6.603  0.1855 -0.3167  0.3713
  183MOL   C12925973   6.196   6.119   6.659  0.7462 -0.1359 -0.1293
  183MOL   C13025974   6.292   6.034   6.591  0.6842  0.3447  0.1212
  183MOL   N13125975   6.370   5.966   6.538  0.5504  0.2003  0.1765
  183MOL   H13225976   6.061   6.184   6.505  2.6260  0.0898  0.7644
  183MOL   H13325977   6.002   6.217   6.660  0.7716 -0.0395  0.5131
  183MOL   H13425978   6.183   6.065   6.752  0.6967 -0.9991 -0.6392
  183MOL   C13525979   6.278   6.253   6.665  0.7055  0.0090 -0.0223
  183MOL   C13625980   6.423   6.241   6.702 -0.4015 -0.4074  0.1998
  183MOL   C13725981   6.491   6.377   6.681 -0.1966 -0.0794  0.0133
  183MOL   N13825982   6.542   6.480   6.668  0.6062  0.2320 -0.6290
  183MOL   H13925983   6.268   6.322   6.581  0.3606  0.4822  0.4107
  183MOL   H14025984   6.242   6.321   6.741  0.4361  1.8490 -1.7538
  183MOL   H14125985   6.473   6.174   6.632  1.1771 -0.1306  1.0526
  183MOL   H14225986   6.434   6.210   6.806  0.2091  0.2259  0.3241
  184MOL     C125987   7.365   3.261   1.589  0.2801 -0.2105  0.0235
  184MOL     C225988   7.282   3.321   1.479  0.0318  0.3421 -0.3028
  184MOL     C325989   7.201   3.210   1.417  0.4567  0.0056  0.4542
  184MOL     N425990   7.132   3.131   1.374 -0.2267  0.1249  0.4289
  184MOL     H525991   7.451   3.326   1.609 -0.2233  1.0580 -1.8557
  184MOL     H625992   7.397   3.161   1.558 -1.7137 -0.2026 -2.1229
  184MOL     H725993   7.361   3.356   1.412  0.6806 -0.2804  0.1265
  184MOL     H825994   7.304   3.254   1.679 -0.8654  0.0072 -0.7307
  184MOL     C925995   7.181   3.430   1.517 -0.4887 -0.2168  0.4563
  184MOL    C1025996   7.241   3.566   1.557 -0.1443  0.5471 -0.2377
  184MOL    C1125997   7.329   3.629   1.449  0.1436  0.2886  0.4430
  184MOL    N1225998   7.396   3.683   1.370  0.0504 -0.1188 -0.2382
  184MOL    H1325999   7.104   3.440   1.440  1.2869 -0.5379 -1.4189
  184MOL    H1426000   7.132   3.389   1.605 -0.0808 -1.7250 -0.0134
  184MOL    H1526001   7.293   3.559   1.653  1.4353  2.2002 -0.9640
  184MOL    C1626002   7.124   3.662   1.577  0.4062 -0.1681 -0.3579
  184MOL    C1726003   7.145   3.764   1.692 -0.1635  0.4533 -0.1555
  184MOL    C1826004   7.150   3.693   1.820 -0.6275  0.7860  0.2625
  184MOL    N1926005   7.163   3.635   1.923  0.0086 -0.4040  0.2304
  184MOL    H2026006   7.085   3.705   1.485 -0.2495  1.3131  0.5976
  184MOL    H2126007   7.029   3.614   1.600 -0.7893  2.1348 -0.3495
  184MOL    H2226008   7.061   3.833   1.699  1.3174  2.4480 -1.6704
  184MOL    C2326009   7.265   3.860   1.666  0.0555  0.3150  0.0247
  184MOL    C2426010   7.251   3.996   1.734 -0.6891  0.4930  0.5484
  184MOL    C2526011   7.198   3.990   1.864  0.4956  1.0249  0.2740
  184MOL    N2626012   7.156   3.989   1.972  0.1130 -0.1341 -0.3367
  184MOL    H2726013   7.357   3.808   1.691 -0.0630 -1.2823 -2.7186
  184MOL    H2826014   7.276   3.882   1.560 -1.8148 -0.4889 -0.3588
  184MOL    H2926015   7.177   4.061   1.686  0.6195  1.8058  0.2800
  184MOL    C3026016   7.379   4.072   1.720  0.3070  0.7374  0.2369
  184MOL    C3126017   7.388   4.217   1.777  0.5734 -0.0223 -0.9277
  184MOL    C3226018   7.293   4.246   1.888 -0.2836 -0.1322 -0.3136
  184MOL    N3326019   7.224   4.282   1.969  0.2696 -0.1265 -0.2525
  184MOL    H3426020   7.460   4.025   1.777  1.1138  2.2553  0.3854
  184MOL    H3526021   7.417   4.067   1.618  0.3805  1.2816  0.2385
  184MOL    H3626022   7.346   4.288   1.705  3.0517  1.3630 -1.0327
  184MOL    C3726023   7.535   4.268   1.807 -0.4892  0.2621 -0.5639
  184MOL    C3826024   7.555   4.384   1.909  1.2700  0.9841 -0.4084
  184MOL    C3926025   7.542   4.341   2.047 -0.1995  0.4501 -0.5734
  184MOL    N4026026   7.530   4.305   2.158 -0.4098  0.3203 -0.4568
  184MOL    H4126027   7.595   4.182   1.838  0.3086  1.5084  1.4585
  184MOL    H4226028   7.568   4.311   1.712  0.1168  0.9611 -0.0406
  184MOL    H4326029   7.485   4.463   1.882  3.4929  2.7491 -1.2653
  184MOL    C4426030   7.686   4.462   1.893 -0.0623 -0.0982  0.5163
  184MOL    C4526031   7.703   4.587   1.988  1.0543 -0.2777  0.2859
  184MOL    C4626032   7.817   4.673   1.952 -0.0754 -0.3207 -0.2717
  184MOL    N4726033   7.914   4.730   1.920 -0.1248 -0.3387 -0.0523
  184MOL    H4826034   7.775   4.399   1.903 -0.5297 -0.6932  0.9559
  184MOL    H4926035   7.694   4.489   1.788  0.4205  0.4127  0.6820
  184MOL    H5026036   7.723   4.548   2.088 -1.4146 -2.0391  0.1407
  184MOL    C5126037   7.566   4.666   2.014  0.1653 -0.2525 -0.3750
  184MOL    C5226038   7.511   4.737   1.890 -0.2201  0.0890 -0.0208
  184MOL    C5326039   7.474   4.659   1.773 -0.3118  0.8600  0.6500
  184MOL    N5426040   7.456   4.590   1.675  0.6513 -0.2177 -0.0947
  184MOL    H5526041   7.496   4.610   2.075 -0.1418 -0.9218 -1.3334
  184MOL    H5626042   7.592   4.749   2.081 -1.4057  0.0355 -0.1169
  184MOL    H5726043   7.593   4.794   1.845 -0.2639 -1.3887 -2.0696
  184MOL    C5826044   7.403   4.841   1.935  0.1306  0.3051 -0.1949
  184MOL    C5926045   7.306   4.888   1.829  0.4835 -0.0698 -0.3209
  184MOL    C6026046   7.187   4.947   1.899 -0.0009 -0.2863  0.2035
  184MOL    N6126047   7.102   5.000   1.963 -0.1432 -0.1762  0.2501
  184MOL    H6226048   7.353   4.779   2.009  1.6596 -3.2582 -2.0423
  184MOL    H6326049   7.442   4.932   1.981  2.0849 -0.1124 -0.9679
  184MOL    H6426050   7.263   4.796   1.787  0.1483  0.9612 -2.3111
  184MOL    C6526051   7.361   4.965   1.704  0.4949 -0.2457  0.0326
  184MOL    C6626052   7.435   5.089   1.749 -0.0597  0.2583  0.2233
  184MOL    C6726053   7.494   5.144   1.627 -0.5247 -0.8265 -0.4505
  184MOL    N6826054   7.546   5.189   1.532 -0.3045  0.2900  0.1651
  184MOL    H6926055   7.430   4.896   1.657  0.1450 -0.3633 -0.3139
  184MOL    H7026056   7.283   4.990   1.633  1.7143  0.1810 -1.1619
  184MOL    H7126057   7.516   5.066   1.817  0.7538 -1.4100 -1.2736
  184MOL    C7226058   7.333   5.198   1.794 -0.9130 -0.7108  0.0538
  184MOL    C7326059   7.389   5.341   1.803 -0.3109 -0.3381  0.1274
  184MOL    C7426060   7.530   5.350   1.851 -0.2626  0.3472 -0.1882
  184MOL    N7526061   7.641   5.357   1.886  0.6107  0.3656  0.3718
  184MOL    H7626062   7.246   5.196   1.729  0.2201  2.6363 -1.6939
  184MOL    H7726063   7.311   5.178   1.899 -0.5882 -0.4573  0.1712
  184MOL    H7826064   7.331   5.383   1.885  0.1986 -0.8715  0.7687
  184MOL    C7926065   7.361   5.435   1.679  0.0059 -0.4836 -0.3246
  184MOL    C8026066   7.413   5.579   1.700 -0.6561 -0.3159  0.4740
  184MOL    C8126067   7.553   5.582   1.650  1.2157 -0.1801  0.6842
  184MOL    N8226068   7.658   5.584   1.600 -0.4414  0.0961 -0.2519
  184MOL    H8326069   7.391   5.390   1.584 -1.1440 -0.1907 -0.8435
  184MOL    H8426070   7.252   5.439   1.677  0.1002  2.8740 -1.9743
  184MOL    H8526071   7.428   5.600   1.806  0.0613  0.7681  0.1728
  184MOL    C8626072   7.317   5.667   1.621 -0.3134  0.4435 -0.7144
  184MOL    C8726073   7.187   5.705   1.690 -0.7274 -0.4294  0.2434
  184MOL    C8826074   7.188   5.726   1.832 -0.2288  0.2012 -0.5006
  184MOL    N8926075   7.201   5.742   1.947  0.5264  0.0407  0.3706
  184MOL    H9026076   7.372   5.759   1.603  2.1591 -0.9325 -0.4255
  184MOL    H9126077   7.302   5.624   1.522 -0.6651  0.2938 -0.5958
  184MOL    H9226078   7.125   5.615   1.684  0.4877 -1.1877 -1.3832
  184MOL    C9326079   7.117   5.819   1.610 -0.3687 -0.5805  0.5723
  184MOL    C9426080   6.989   5.874   1.686 -0.3789 -0.5380  0.2733
  184MOL    C9526081   7.031   5.962   1.798 -0.6255 -0.0566  1.0091
  184MOL    N9626082   7.063   6.029   1.886 -0.5150 -0.4932 -0.1801
  184MOL    H9726083   7.179   5.904   1.583  0.6507 -1.8150 -1.0898
  184MOL    H9826084   7.090   5.785   1.510  0.4516  0.1348  0.1015
  184MOL    H9926085   6.933   5.788   1.723  1.5315 -1.3167  1.4626
  184MOL   C10026086   6.904   5.962   1.589 -0.3223 -0.4463  0.2597
  184MOL   C10126087   6.761   5.967   1.618  0.2501  0.0576  0.0123
  184MOL   C10226088   6.737   6.035   1.744  0.3462 -0.9714  1.2277
  184MOL   N10326089   6.716   6.088   1.845  0.2182  0.3662  0.3099
  184MOL   H10426090   6.951   6.060   1.576 -0.4540 -0.6523 -1.9056
  184MOL   H10526091   6.914   5.926   1.487  2.0885 -0.0107  0.3096
  184MOL   H10626092   6.725   5.866   1.638 -0.6637  0.7420  1.8797
  184MOL   C10726093   6.665   6.017   1.504 -0.1561  0.1388 -0.7702
  184MOL   C10826094   6.686   6.163   1.459  0.1588  0.1490 -0.6370
  184MOL   C10926095   6.804   6.173   1.376  0.0936 -0.2870  0.2434
  184MOL   N11026096   6.900   6.174   1.307 -0.1841  0.1614 -0.8252
  184MOL   H11126097   6.685   5.956   1.416  1.3459  0.6344 -0.7891
  184MOL   H11226098   6.564   5.996   1.540  0.3545  0.5995  1.0179
  184MOL   H11326099   6.714   6.220   1.548  1.0723 -0.1756 -0.7056
  184MOL   C11426100   6.553   6.216   1.401  0.1282  0.1934 -0.4428
  184MOL   C11526101   6.433   6.220   1.500  0.1275  0.3176  0.1869
  184MOL   C11626102   6.468   6.326   1.599  0.9784  0.1795 -0.2665
  184MOL   N11726103   6.491   6.412   1.673 -0.3273 -0.1573 -0.0176
  184MOL   H11826104   6.577   6.317   1.369  2.2289  0.7538  2.6230
  184MOL   H11926105   6.530   6.163   1.308  0.2915  0.6171 -0.7207
  184MOL   H12026106   6.418   6.124   1.550  0.1359 -0.9559 -2.1769
  184MOL   C12126107   6.298   6.250   1.436  0.3415  0.0369 -0.6526
  184MOL   C12226108   6.253   6.131   1.344 -0.1932 -0.3685  0.3440
  184MOL   C12326109   6.256   6.001   1.420  0.0580 -1.2012 -0.0884
  184MOL   N12426110   6.256   5.907   1.485  0.1921  0.0861 -1.1998
  184MOL   H12526111   6.219   6.263   1.510  2.1199 -0.9604  1.5006
  184MOL   H12626112   6.295   6.340   1.376  0.1172 -0.5373 -1.5143
  184MOL   H12726113   6.315   6.126   1.254 -2.0840  0.6117 -1.0494
  184MOL   C12826114   6.112   6.152   1.288 -0.4790  0.0336 -0.2710
  184MOL   C12926115   6.040   6.045   1.200 -0.8445  0.5317  0.1057
  184MOL   C13026116   6.141   5.973   1.116 -0.3930  0.7871  0.3617
  184MOL   N13126117   6.214   5.919   1.051 -0.6186  0.5897 -0.0663
  184MOL   H13226118   6.036   6.166   1.365 -2.2169 -0.4254 -1.8479
  184MOL   H13326119   6.110   6.252   1.243 -0.4461  0.1251 -0.0690
  184MOL   H13426120   5.978   6.112   1.140 -2.0321  1.0023  1.8092
  184MOL   C13526121   5.933   5.966   1.276 -0.0977 -0.3139  0.2564
  184MOL   C13626122   5.848   5.883   1.182  0.0424  0.5336  0.5057
  184MOL   C13726123   5.716   5.848   1.245 -0.3340  0.3685  0.5799
  184MOL   N13826124   5.613   5.818   1.291  0.9273 -0.4652  0.0028
  184MOL   H13926125   5.974   5.889   1.341 -0.8074 -0.7619  0.1801
  184MOL   H14026126   5.865   6.026   1.338 -1.1994 -0.6212 -0.6395
  184MOL   H14126127   5.901   5.798   1.141  0.1572 -0.2112  2.1693
  184MOL   H14226128   5.808   5.938   1.097  2.4047 -0.1530 -1.0789
  185MOL     C126129   2.280   3.228   2.016 -0.6350 -0.1646 -0.2353
  185MOL     C226130   2.369   3.352   2.018  0.1885 -0.4892 -0.0461
  185MOL     C326131   2.391   3.396   2.158 -0.8555 -0.5510 -0.2692
  185MOL     N426132   2.407   3.435   2.268 -0.3342 -0.0566  0.3650
  185MOL     H526133   2.193   3.231   2.082  1.4068 -2.7245  2.7705
  185MOL     H626134   2.345   3.149   2.054  0.7763  1.1944  0.2247
  185MOL     H726135   2.315   3.430   1.965 -0.7692 -1.6554 -0.8058
  185MOL     H826136   2.256   3.180   1.921  1.2917 -2.0312  0.1809
  185MOL     C926137   2.492   3.325   1.945 -1.0253  0.2013  0.3506
  185MOL    C1026138   2.478   3.245   1.807  0.3326 -0.3212  0.7234
  185MOL    C1126139   2.371   3.300   1.718  0.5023 -0.6973 -0.9191
  185MOL    N1226140   2.285   3.347   1.653 -0.5134 -0.2858 -0.8439
  185MOL    H1326141   2.553   3.414   1.928 -0.1824 -0.5528 -0.6063
  185MOL    H1426142   2.546   3.253   2.006 -2.3138  0.3527  1.6870
  185MOL    H1526143   2.450   3.150   1.851  1.8985 -0.0209  2.3986
  185MOL    C1626144   2.618   3.241   1.742  0.6843 -0.4776  0.7132
  185MOL    C1726145   2.645   3.137   1.634  0.3434  1.3426 -0.2034
  185MOL    C1826146   2.654   2.993   1.684  0.3846 -0.4702 -0.6498
  185MOL    N1926147   2.662   2.888   1.723 -0.0948 -0.2901  0.5096
  185MOL    H2026148   2.642   3.344   1.714 -1.6292  0.1891  1.0579
  185MOL    H2126149   2.685   3.222   1.826  0.4918 -1.5975  0.6129
  185MOL    H2226150   2.746   3.152   1.595  0.6515  0.1920  0.1239
  185MOL    C2326151   2.553   3.149   1.513  0.7458 -0.4565  0.2494
  185MOL    C2426152   2.588   3.058   1.389  0.0813  0.1659 -0.3876
  185MOL    C2526153   2.493   3.066   1.279 -0.1810 -0.7428 -0.2497
  185MOL    N2626154   2.423   3.075   1.186  0.2507  0.0295 -0.4084
  185MOL    H2726155   2.452   3.131   1.550  0.8462  0.0546  0.7791
  185MOL    H2826156   2.564   3.251   1.476  3.3672  0.2145  2.6626
  185MOL    H2926157   2.578   2.954   1.422  1.6591 -0.0594 -0.5861
  185MOL    C3026158   2.730   3.075   1.339  0.2439  0.2800 -0.8925
  185MOL    C3126159   2.839   2.974   1.395 -0.0726  0.5792  0.4672
  185MOL    C3226160   2.781   2.838   1.392  0.0032  0.0853  0.6740
  185MOL    N3326161   2.738   2.732   1.386  0.6835  0.3098 -0.0663
  185MOL    H3426162   2.724   3.062   1.231 -2.2364 -1.5356 -0.6022
  185MOL    H3526163   2.773   3.173   1.356 -1.6287  0.7709  1.2777
  185MOL    H3626164   2.853   2.980   1.503  0.8628 -2.9922  0.6112
  185MOL    C3726165   2.976   2.992   1.330 -0.4862 -0.0741  0.1754
  185MOL    C3826166   3.075   2.872   1.353  0.1228 -0.5050 -0.4520
  185MOL    C3926167   3.067   2.821   1.490  0.3986  0.7582  0.5966
  185MOL    N4026168   3.063   2.783   1.597  0.3490  0.0422  0.7716
  185MOL    H4126169   2.991   3.023   1.226  1.0091 -1.2680  0.0099
  185MOL    H4226170   3.012   3.073   1.394  3.2859 -0.5259 -1.2128
  185MOL    H4326171   3.176   2.910   1.357  0.0898 -0.5055  0.5275
  185MOL    C4426172   3.081   2.765   1.237  0.0880 -1.0501  0.2868
  185MOL    C4526173   3.194   2.667   1.239 -0.0043 -0.7090  0.1650
  185MOL    C4626174   3.207   2.585   1.362 -0.2479 -0.6994 -0.3645
  185MOL    N4726175   3.209   2.523   1.455  0.5440 -0.7114 -0.1154
  185MOL    H4826176   2.984   2.714   1.236 -0.9528  0.8599  1.1518
  185MOL    H4926177   3.091   2.821   1.144  1.5796  1.3858  1.8647
  185MOL    H5026178   3.287   2.724   1.233 -0.2923  0.0217  2.3088
  185MOL    C5126179   3.206   2.581   1.111 -0.0048 -0.8841  0.4647
  185MOL    C5226180   3.117   2.455   1.085  0.0086 -0.1145  0.1307
  185MOL    C5326181   2.976   2.482   1.096  0.1869 -0.0086 -0.0121
  185MOL    N5426182   2.865   2.502   1.104 -0.3592 -0.3157 -0.4675
  185MOL    H5526183   3.206   2.640   1.020  1.5727 -1.1528  0.2728
  185MOL    H5626184   3.312   2.554   1.114  0.5265  1.0929  0.0134
  185MOL    H5726185   3.139   2.386   1.167 -0.7507 -0.5317 -0.0181
  185MOL    C5826186   3.157   2.384   0.952  0.1336 -0.8017 -0.6002
  185MOL    C5926187   3.049   2.345   0.848  0.0033  0.6770  0.3240
  185MOL    C6026188   3.120   2.296   0.729 -0.0525 -0.0159 -0.4153
  185MOL    N6126189   3.179   2.258   0.638  0.7245 -0.2776 -0.6182
  185MOL    H6226190   3.227   2.443   0.892 -0.5067  0.1923 -0.3850
  185MOL    H6326191   3.209   2.292   0.979  0.6624 -0.9457 -2.0362
  185MOL    H6426192   2.998   2.433   0.807  0.1282  0.6627  0.1385
  185MOL    C6526193   2.938   2.246   0.898  0.1841 -0.1537  0.6495
  185MOL    C6626194   2.803   2.255   0.826  0.2119 -0.8598 -0.1797
  185MOL    C6726195   2.816   2.293   0.683  0.1268 -0.3677 -0.4511
  185MOL    N6826196   2.826   2.331   0.572  0.2080  0.4902  0.0935
  185MOL    H6926197   2.978   2.145   0.889  0.4303  0.0201 -0.2414
  185MOL    H7026198   2.945   2.259   1.006 -0.3671 -2.0361  0.9259
  185MOL    H7126199   2.740   2.328   0.878 -1.0832  0.1088 -3.0023
  185MOL    C7226200   2.736   2.117   0.834  0.1245 -0.0174  0.5692
  185MOL    C7326201   2.592   2.095   0.788  0.0524  0.0187  0.2727
  185MOL    C7426202   2.598   2.105   0.640 -0.5903  0.3115  0.2612
  185MOL    N7526203   2.601   2.116   0.522  0.1514  0.2249  0.5914
  185MOL    H7626204   2.805   2.044   0.791  3.4621  2.1491  2.0632
  185MOL    H7726205   2.734   2.087   0.938 -0.2405  3.8146  1.7393
  185MOL    H7826206   2.529   2.176   0.823 -0.5478 -0.9585  1.4901
  185MOL    C7926207   2.535   1.963   0.830  0.3307  0.7536  0.2189
  185MOL    C8026208   2.394   1.934   0.771 -0.7860 -0.2182 -1.1120
  185MOL    C8126209   2.358   1.796   0.751  0.8413  0.5797 -0.4309
  185MOL    N8226210   2.329   1.685   0.738  0.2876  0.6920 -0.6736
  185MOL    H8326211   2.606   1.886   0.803 -1.1360 -0.4995 -0.1270
  185MOL    H8426212   2.532   1.954   0.939 -1.2026 -2.5049 -0.0603
  185MOL    H8526213   2.406   1.959   0.666  3.1085 -0.6547 -0.8573
  185MOL    C8626214   2.276   2.022   0.837 -0.5054  0.1045  0.5941
  185MOL    C8726215   2.256   2.024   0.987 -0.4460  0.6570  0.2308
  185MOL    C8826216   2.159   2.124   1.028 -0.2716 -0.2226  0.3180
  185MOL    N8926217   2.082   2.203   1.062 -1.0606 -0.3857  0.1109
  185MOL    H9026218   2.293   2.125   0.807  0.2069 -1.1371 -3.5976
  185MOL    H9126219   2.184   1.986   0.792 -0.2145 -1.1301  0.9729
  185MOL    H9226220   2.353   2.060   1.023 -0.1699  0.5692 -0.4148
  185MOL    C9326221   2.234   1.880   1.052  0.2584  0.3892  0.4179
  185MOL    C9426222   2.187   1.877   1.192 -0.2815  0.4435  0.1844
  185MOL    C9526223   2.176   1.734   1.243 -0.1591 -0.3122 -0.7317
  185MOL    N9626224   2.168   1.626   1.279 -0.2631  0.9095 -0.2445
  185MOL    H9726225   2.161   1.817   1.000 -0.0224 -0.2183  1.5334
  185MOL    H9826226   2.327   1.824   1.050  0.8011  1.2157  1.6613
  185MOL    H9926227   2.084   1.913   1.201 -0.3964 -0.4504  2.9392
  185MOL   C10026228   2.261   1.959   1.292  0.5361  0.3851 -0.1052
  185MOL   C10126229   2.228   1.956   1.445  0.1213  0.3200 -0.4815
  185MOL   C10226230   2.338   2.027   1.514  0.2737  0.0536 -0.7155
  185MOL   N10326231   2.427   2.085   1.561  1.1063 -0.0625  0.2832
  185MOL   H10426232   2.365   1.927   1.289  0.3668 -0.1970  0.2828
  185MOL   H10526233   2.256   2.063   1.259  1.5464  1.1524  2.0697
  185MOL   H10626234   2.245   1.855   1.482 -2.6067  0.3514  0.9671
  185MOL   C10726235   2.085   2.012   1.464 -0.5390 -0.5676  0.0242
  185MOL   C10826236   2.052   2.027   1.615  0.6302 -0.3864 -0.4338
  185MOL   C10926237   2.118   2.142   1.672  0.0416 -0.0008 -0.2166
  185MOL   N11026238   2.175   2.233   1.710 -0.1738 -0.3351 -0.6876
  185MOL   H11126239   2.071   2.114   1.427 -0.3764 -0.3063  0.6866
  185MOL   H11226240   2.003   1.953   1.422 -0.6085  1.4463 -2.7737
  185MOL   H11326241   2.090   1.934   1.658  1.8130  1.0946  1.7769
  185MOL   C11426242   1.898   2.040   1.632 -0.3242  0.0433  0.2542
  185MOL   C11526243   1.855   1.999   1.778 -0.1936 -0.5241  0.1631
  185MOL   C11626244   1.896   2.096   1.881  0.5709 -0.2789  0.6820
  185MOL   N11726245   1.931   2.172   1.959 -0.2912 -0.2645  0.6935
  185MOL   H11826246   1.864   2.141   1.610  0.2684 -0.0167 -0.9409
  185MOL   H11926247   1.847   1.974   1.562  0.6332 -0.0179 -0.3905
  185MOL   H12026248   1.903   1.909   1.816  3.2602  1.5898  1.0686
  185MOL   C12126249   1.700   1.984   1.782  0.7167  0.1224  0.0088
  185MOL   C12226250   1.654   1.874   1.886  0.0122  0.0133  0.1665
  185MOL   C12326251   1.697   1.903   2.026 -0.0831  0.4748  0.7013
  185MOL   N12426252   1.731   1.931   2.134  0.4325  0.1455 -0.4141
  185MOL   H12526253   1.676   2.086   1.814  0.8829 -0.3656  1.7523
  185MOL   H12626254   1.668   1.968   1.679 -2.6011  2.7490  0.5423
  185MOL   H12726255   1.694   1.775   1.861 -0.9407  0.1260 -1.9083
  185MOL   C12826256   1.502   1.846   1.877 -0.3061 -0.2916  0.0898
  185MOL   C12926257   1.414   1.963   1.931 -0.4167 -0.2124 -0.4096
  185MOL   C13026258   1.408   2.071   1.836  0.5989  0.3951  1.0613
  185MOL   N13126259   1.386   2.159   1.762  0.1245 -0.5427  0.4643
  185MOL   H13226260   1.466   1.819   1.778  0.0415 -3.8145  0.8660
  185MOL   H13326261   1.484   1.751   1.926  0.3858  0.4424  1.8102
  185MOL   H13426262   1.450   2.002   2.026 -1.4095  0.6902 -0.3867
  185MOL   C13526263   1.268   1.918   1.951 -0.2464 -0.3844  0.1933
  185MOL   C13626264   1.254   1.814   2.064 -0.6334 -0.4336  0.0318
  185MOL   C13726265   1.327   1.852   2.190  0.1055  0.2099  0.7445
  185MOL   N13826266   1.388   1.882   2.282  0.2018 -0.7065 -0.4509
  185MOL   H13926267   1.197   1.998   1.968  0.0060 -0.0258 -0.4374
  185MOL   H14026268   1.230   1.868   1.862 -1.9890  1.1451  0.0414
  185MOL   H14126269   1.293   1.720   2.026  0.0994 -0.6233  1.2380
  185MOL   H14226270   1.149   1.794   2.087 -0.7791  0.7450  0.4259
  186MOL     C126271   4.973   6.396   1.953 -0.4881  0.3876 -0.1839
  186MOL     C226272   5.024   6.471   2.084  0.9631  0.2489  0.1272
  186MOL     C326273   4.916   6.562   2.141  0.1306  0.1246  0.3092
  186MOL     N426274   4.832   6.625   2.184 -0.9388 -0.4151  0.1476
  186MOL     H526275   4.963   6.464   1.869 -0.5581  0.2612 -0.2782
  186MOL     H626276   4.879   6.344   1.969  0.5548 -0.8005  2.3586
  186MOL     H726277   5.105   6.535   2.050  0.5454 -0.1565 -1.7077
  186MOL     H826278   5.036   6.324   1.901  0.0584  2.4461 -2.4590
  186MOL     C926279   5.074   6.377   2.189  0.0189  0.4477 -0.1995
  186MOL    C1026280   4.984   6.278   2.262  0.2510  0.0282  0.2206
  186MOL    C1126281   4.891   6.202   2.188  0.0632 -0.4000 -0.2332
  186MOL    N1226282   4.810   6.140   2.129 -0.0914 -0.1334  0.8911
  186MOL    H1326283   5.155   6.317   2.147 -0.9246 -0.6308 -0.4885
  186MOL    H1426284   5.129   6.445   2.255 -0.2525  0.8352 -0.3697
  186MOL    H1526285   4.926   6.338   2.332  1.9820  0.0623  1.6600
  186MOL    C1626286   5.065   6.178   2.351 -0.5080  0.0075  0.2188
  186MOL    C1726287   5.151   6.252   2.460  0.0918 -0.2231 -0.0706
  186MOL    C1826288   5.086   6.364   2.535 -0.0195 -0.6319  0.8693
  186MOL    N1926289   5.035   6.454   2.582  0.5994 -0.4428  0.0141
  186MOL    H2026290   4.990   6.105   2.383 -0.5233 -0.3809 -0.6977
  186MOL    H2126291   5.130   6.114   2.292  1.5840  1.1966  1.1826
  186MOL    H2226292   5.230   6.301   2.403 -0.4417  2.5534  1.5160
  186MOL    C2326293   5.208   6.141   2.559 -0.0341 -0.3070 -0.5202
  186MOL    C2426294   5.360   6.107   2.523 -0.6959 -0.0572  0.3761
  186MOL    C2526295   5.444   6.228   2.557  0.3524 -0.5424  1.0720
  186MOL    N2626296   5.511   6.321   2.587  0.4832  0.2220  0.1196
  186MOL    H2726297   5.200   6.192   2.655  2.3318  0.5158 -0.7083
  186MOL    H2826298   5.145   6.053   2.564 -0.1775 -0.1207  1.6641
  186MOL    H2926299   5.373   6.086   2.417 -0.2224 -1.5864  0.7280
  186MOL    C3026300   5.411   5.979   2.596  0.7584  0.0347  0.1532
  186MOL    C3126301   5.332   5.844   2.579  0.2108  0.1623  0.1263
  186MOL    C3226302   5.317   5.811   2.433  0.0923  0.2116  1.0375
  186MOL    N3326303   5.306   5.801   2.316 -0.0943  0.2942  0.2021
  186MOL    H3426304   5.510   5.952   2.559  1.0905 -0.7190  1.5495
  186MOL    H3526305   5.444   5.999   2.698 -1.4554 -1.2591  1.1754
  186MOL    H3626306   5.231   5.873   2.608 -0.3000 -1.9799  0.5643
  186MOL    C3726307   5.370   5.728   2.682  1.0692  1.1200 -0.2357
  186MOL    C3826308   5.280   5.605   2.692 -0.0652 -0.3266 -0.4518
  186MOL    C3926309   5.276   5.533   2.569 -0.2427  0.5186  0.3675
  186MOL    N4026310   5.278   5.475   2.470  0.1676 -0.2378 -0.0152
  186MOL    H4126311   5.471   5.699   2.656  1.0502 -0.0959  1.0048
  186MOL    H4226312   5.373   5.774   2.780 -0.9741  0.0399  0.3740
  186MOL    H4326313   5.184   5.651   2.715  1.7250  3.2029  0.3557
  186MOL    C4426314   5.318   5.509   2.812  0.1802  0.2793 -0.0554
  186MOL    C4526315   5.229   5.379   2.804 -0.0021 -0.0634  1.2159
  186MOL    C4626316   5.275   5.288   2.912 -0.0582  0.4133  0.8158
  186MOL    N4726317   5.312   5.218   2.997 -0.2401 -0.5003 -0.1417
  186MOL    H4826318   5.419   5.470   2.801 -0.1590 -0.7996  0.5854
  186MOL    H4926319   5.325   5.559   2.909  0.4894  0.7037 -0.2914
  186MOL    H5026320   5.261   5.333   2.710  0.0247  1.3268  0.5212
  186MOL    C5126321   5.075   5.399   2.814  0.1583 -0.1286 -0.0993
  186MOL    C5226322   4.995   5.265   2.796  0.7304  0.0783 -0.0188
  186MOL    C5326323   4.854   5.262   2.846 -0.2007 -0.1417 -0.0685
  186MOL    N5426324   4.746   5.264   2.890 -0.8321 -0.1281  0.2619
  186MOL    H5526325   5.063   5.428   2.919 -2.7060  2.0734 -0.9725
  186MOL    H5626326   5.042   5.474   2.743 -0.0533 -0.8503 -0.7628
  186MOL    H5726327   5.054   5.204   2.865  0.6889  2.5308  2.2977
  186MOL    C5826328   5.014   5.209   2.659 -0.4654  0.9245 -0.5634
  186MOL    C5926329   4.890   5.149   2.579 -1.0116  0.8631 -0.1418
  186MOL    C6026330   4.806   5.261   2.551  0.6120  0.5996 -0.2309
  186MOL    N6126331   4.736   5.352   2.525  0.2602  0.4558  0.3821
  186MOL    H6226332   5.070   5.270   2.589  0.8406  2.0934  1.4460
  186MOL    H6326333   5.087   5.131   2.684  0.1742  0.8377 -2.6496
  186MOL    H6426334   4.832   5.095   2.654 -1.8074  0.7633 -0.8294
  186MOL    C6526335   4.936   5.064   2.457  0.1291  0.2923  0.2267
  186MOL    C6626336   4.818   5.015   2.370  0.9724  0.0984  0.2658
  186MOL    C6726337   4.874   4.944   2.256  0.0655  0.9104  0.1137
  186MOL    N6826338   4.915   4.890   2.161 -0.2524  0.5322 -0.0022
  186MOL    H6926339   4.999   5.129   2.396  0.9478 -0.6372  0.0660
  186MOL    H7026340   4.994   4.981   2.497 -0.0283  0.6429  1.1960
  186MOL    H7126341   4.769   5.102   2.325  2.0800 -0.6107 -2.4593
  186MOL    C7226342   4.710   4.936   2.445 -0.2883  0.3934 -0.1372
  186MOL    C7326343   4.602   4.877   2.357  0.7007  0.5879  0.3305
  186MOL    C7426344   4.550   4.750   2.411  0.1327 -0.1491  0.3329
  186MOL    N7526345   4.515   4.648   2.457  0.0058  0.4244  0.9968
  186MOL    H7626346   4.757   4.847   2.487 -2.3024 -0.3106  0.6776
  186MOL    H7726347   4.677   5.005   2.523 -1.0927  1.0727 -1.0665
  186MOL    H7826348   4.657   4.847   2.268 -1.0634  0.9117 -0.8957
  186MOL    C7926349   4.489   4.987   2.324 -0.1217 -0.1884 -0.5727
  186MOL    C8026350   4.420   4.960   2.188  0.2639 -0.1809 -0.6229
  186MOL    C8126351   4.321   4.850   2.204 -0.1576 -0.7577  0.6022
  186MOL    N8226352   4.243   4.763   2.218  0.3037  0.5001 -0.2286
  186MOL    H8326353   4.413   4.996   2.402 -0.8725  1.2937 -1.4533
  186MOL    H8426354   4.532   5.086   2.315  0.7945 -0.7191 -2.1223
  186MOL    H8526355   4.494   4.919   2.119  0.9931  2.9476 -1.8219
  186MOL    C8626356   4.360   5.097   2.136  1.0486  0.2094  0.1553
  186MOL    C8726357   4.235   5.089   2.043  0.6998 -0.8615  0.0258
  186MOL    C8826358   4.183   5.229   2.017  0.3288 -0.0765  0.3460
  186MOL    N8926359   4.145   5.335   1.989  0.0890 -0.8875 -0.3281
  186MOL    H9026360   4.333   5.159   2.221  0.2835 -0.3515  0.3332
  186MOL    H9126361   4.439   5.153   2.086  0.3200  1.5808  0.5272
  186MOL    H9226362   4.150   5.053   2.101 -0.3403 -1.4437 -1.8183
  186MOL    C9326363   4.256   4.997   1.919  0.4442  0.0338 -0.3263
  186MOL    C9426364   4.160   5.005   1.799 -1.1318 -0.3754 -0.2508
  186MOL    C9526365   4.024   5.043   1.835  0.0706 -0.0712 -0.3218
  186MOL    N9626366   3.917   5.074   1.870  0.5038 -0.1026 -0.3269
  186MOL    H9726367   4.361   4.997   1.890  0.4689  2.2283 -0.3160
  186MOL    H9826368   4.234   4.898   1.958  1.4433 -0.1730 -0.2716
  186MOL    H9926369   4.153   4.903   1.762  0.2840 -0.6939  0.3227
  186MOL   C10026370   4.215   5.068   1.667 -0.2178  0.2584  0.6439
  186MOL   C10126371   4.217   5.226   1.675 -0.5469  0.5122 -0.4398
  186MOL   C10226372   4.334   5.267   1.761  0.1821 -0.5349 -0.5131
  186MOL   N10326373   4.423   5.301   1.825 -0.1675  0.4452  0.0979
  186MOL   H10426374   4.313   5.026   1.646 -0.5165 -0.4019  0.5506
  186MOL   H10526375   4.155   5.023   1.588 -1.6595  1.7585  0.8329
  186MOL   H10626376   4.127   5.256   1.729  1.0971  2.6115  1.2339
  186MOL   C10726377   4.210   5.297   1.535  0.1439  0.9149 -0.5301
  186MOL   C10826378   4.164   5.449   1.538  0.1509 -0.6765 -0.5073
  186MOL   C10926379   4.026   5.463   1.597  0.0072 -0.1674  0.3194
  186MOL   N11026380   3.917   5.464   1.634 -0.1788 -1.1309 -0.6245
  186MOL   H11126381   4.312   5.293   1.496  0.0413  1.8341 -0.8874
  186MOL   H11226382   4.146   5.248   1.462 -0.0131 -0.6563  0.6300
  186MOL   H11326383   4.147   5.487   1.437  3.9304  1.8471 -0.3330
  186MOL   C11426384   4.260   5.540   1.620  0.2040 -0.0388 -0.1624
  186MOL   C11526385   4.247   5.685   1.592  0.1456  0.6250 -0.0346
  186MOL   C11626386   4.209   5.705   1.454 -0.8499  0.3144  0.2558
  186MOL   N11726387   4.177   5.727   1.343 -0.1213  0.0983 -0.0543
  186MOL   H11826388   4.263   5.524   1.728 -2.1356 -0.3313 -0.1324
  186MOL   H11926389   4.354   5.511   1.573 -1.3197 -1.0258 -2.7117
  186MOL   H12026390   4.344   5.732   1.610  0.0860  1.0625 -0.8341
  186MOL   C12126391   4.139   5.755   1.675  0.0106 -0.4738 -0.2167
  186MOL   C12226392   4.150   5.757   1.823  0.2892 -0.2006  0.0754
  186MOL   C12326393   4.289   5.758   1.870 -0.0364  0.2733  0.2339
  186MOL   N12426394   4.401   5.758   1.906  0.1393  0.2126 -0.0575
  186MOL   H12526395   4.150   5.858   1.640  0.4008 -0.3007  0.4016
  186MOL   H12626396   4.045   5.713   1.640  0.2407 -0.9734 -0.2404
  186MOL   H12726397   4.113   5.658   1.847  2.5167 -0.0342  4.8310
  186MOL   C12826398   4.040   5.850   1.891  0.5519 -0.6639  0.5794
  186MOL   C12926399   4.014   5.828   2.043 -0.4484  0.6156 -0.1886
  186MOL   C13026400   4.129   5.878   2.117 -0.6218 -0.0894  1.2691
  186MOL   N13126401   4.219   5.920   2.178 -0.6995  0.0494  0.1087
  186MOL   H13226402   4.070   5.954   1.878  1.2778 -0.9870 -0.2996
  186MOL   H13326403   3.944   5.843   1.840  0.2035  1.0928  0.9414
  186MOL   H13426404   4.007   5.722   2.067 -1.3555  0.7809  0.2679
  186MOL   C13526405   3.868   5.882   2.079 -0.1670  0.5226 -0.0186
  186MOL   C13626406   3.815   5.855   2.225  0.3793  0.2188  0.1365
  186MOL   C13726407   3.679   5.818   2.233 -0.2367 -1.2220 -0.9816
  186MOL   N13826408   3.568   5.786   2.253  0.1687  0.2675  0.1569
  186MOL   H13926409   3.854   5.989   2.063 -0.7290  0.2008 -1.8432
  186MOL   H14026410   3.794   5.831   2.017 -0.6830  0.2699  0.7860
  186MOL   H14126411   3.839   5.939   2.291  1.6044 -1.2327  1.5995
  186MOL   H14226412   3.866   5.772   2.274 -1.5339  0.4668  2.6515
  187MOL     C126413   1.645   4.225   5.831  0.7042 -0.7944 -0.0991
  187MOL     C226414   1.615   4.128   5.708  0.5799  0.7021  0.3557
  187MOL     C326415   1.670   3.999   5.742 -0.4795 -1.0740 -0.3848
  187MOL     N426416   1.713   3.894   5.761  0.5312  0.0357 -0.5302
  187MOL     H526417   1.626   4.330   5.808  1.8623  0.1669  3.1981
  187MOL     H626418   1.754   4.218   5.833  0.7641 -0.8156 -2.2908
  187MOL     H726419   1.671   4.153   5.618  1.0353  0.1325  0.4818
  187MOL     H826420   1.598   4.208   5.928  0.0922 -1.9365 -0.5841
  187MOL     C926421   1.470   4.112   5.692  0.1898 -0.1055 -0.3443
  187MOL    C1026422   1.389   4.241   5.683 -0.0866 -0.5929 -0.5788
  187MOL    C1126423   1.456   4.345   5.606 -0.2615  0.0889 -0.0291
  187MOL    N1226424   1.504   4.432   5.541 -0.6257  0.2016  0.2998
  187MOL    H1326425   1.468   4.055   5.599  0.4500  0.8559 -0.9390
  187MOL    H1426426   1.416   4.059   5.770 -0.9820  1.6200  0.0372
  187MOL    H1526427   1.384   4.291   5.779  0.3470 -0.3112 -0.6968
  187MOL    C1626428   1.239   4.223   5.653  0.0571 -0.2063  0.6163
  187MOL    C1726429   1.165   4.351   5.626 -0.5832  0.3624  0.2768
  187MOL    C1826430   1.040   4.325   5.549 -0.1251 -0.9676  0.1155
  187MOL    N1926431   0.945   4.305   5.491  0.1670 -0.4336 -0.1931
  187MOL    H2026432   1.225   4.177   5.555  2.0346 -0.9024  0.6463
  187MOL    H2126433   1.197   4.150   5.722  2.6183 -0.8042  1.5948
  187MOL    H2226434   1.230   4.405   5.557 -2.0136  2.5098  0.5472
  187MOL    C2326435   1.131   4.434   5.753 -0.4259  0.1844  0.3414
  187MOL    C2426436   1.111   4.582   5.724 -0.0592  0.2919  0.5935
  187MOL    C2526437   1.016   4.615   5.618  0.1586 -0.5322 -0.0663
  187MOL    N2626438   0.940   4.647   5.536 -0.5207 -0.2150 -0.3920
  187MOL    H2726439   1.046   4.385   5.800 -3.0679  2.2494 -2.1360
  187MOL    H2826440   1.207   4.422   5.831 -0.1099 -1.9605 -0.2524
  187MOL    H2926441   1.211   4.616   5.700 -1.0633  1.7531 -1.6878
  187MOL    C3026442   1.104   4.679   5.835  0.3979 -0.5400 -0.1354
  187MOL    C3126443   0.967   4.686   5.900 -0.1843  0.4580 -1.0285
  187MOL    C3226444   0.949   4.575   6.002  0.2370 -0.0424  0.1820
  187MOL    N3326445   0.939   4.492   6.079 -0.3326  1.2058  0.0209
  187MOL    H3426446   1.177   4.658   5.913  2.3272  2.0985 -1.1580
  187MOL    H3526447   1.142   4.775   5.800 -1.7710 -0.6564 -2.9578
  187MOL    H3626448   0.890   4.679   5.822 -0.7935  3.0296 -0.7088
  187MOL    C3726449   0.944   4.824   5.969 -0.0475  0.7300 -0.1036
  187MOL    C3826450   0.794   4.875   5.962 -0.3626 -0.6061  0.3540
  187MOL    C3926451   0.706   4.761   5.983 -0.3649  0.0217  0.1847
  187MOL    N4026452   0.640   4.671   5.995 -0.1177 -0.2342  0.4926
  187MOL    H4126453   0.974   4.824   6.074  0.1033 -1.8688 -0.1187
  187MOL    H4226454   1.009   4.904   5.933 -0.7706  0.8633 -1.1366
  187MOL    H4326455   0.761   4.886   5.859 -0.5054 -1.0875  0.3459
  187MOL    C4426456   0.762   4.999   6.046  0.1190  0.1194  0.2990
  187MOL    C4526457   0.622   5.033   6.078 -0.3156  0.1355 -0.3414
  187MOL    C4626458   0.575   4.972   6.202  0.3001  0.7319 -0.4763
  187MOL    N4726459   0.541   4.922   6.300  0.0219  0.4169 -0.0027
  187MOL    H4826460   0.816   4.984   6.139 -1.2520 -0.2574  1.0323
  187MOL    H4926461   0.817   5.080   5.997  0.2819  0.6424  1.3405
  187MOL    H5026462   0.556   4.983   6.007  0.4384 -2.3911  0.6962
  187MOL    C5126463   0.594   5.184   6.065  0.5982  0.8737 -0.3013
  187MOL    C5226464   0.443   5.217   6.070  0.1073 -0.4548 -0.4521
  187MOL    C5326465   0.422   5.361   6.072  0.1961 -0.1006  0.3024
  187MOL    N5426466   0.402   5.475   6.064  0.8525 -0.3314 -0.1919
  187MOL    H5526467   0.637   5.225   6.157  1.0315 -0.4200  0.0841
  187MOL    H5626468   0.628   5.240   5.978 -1.7586 -0.0150 -1.8262
  187MOL    H5726469   0.403   5.161   6.155  0.3483 -0.3078 -0.2438
  187MOL    C5826470   0.349   5.153   5.955 -0.2968 -0.1148 -0.3056
  187MOL    C5926471   0.376   5.176   5.808 -0.5191 -0.1208  0.5530
  187MOL    C6026472   0.512   5.123   5.772 -0.3876 -0.1769 -0.0955
  187MOL    N6126473   0.624   5.095   5.749  0.3677 -0.7070  0.4719
  187MOL    H6226474   0.325   5.051   5.984 -0.9111 -0.0146 -0.4661
  187MOL    H6326475   0.255   5.208   5.961 -0.2611 -0.0039 -0.7152
  187MOL    H6426476   0.362   5.283   5.795  1.7971  0.1781  0.4578
  187MOL    C6526477   0.279   5.103   5.707 -0.0023 -0.6603  0.0355
  187MOL    C6626478   0.277   5.166   5.564  0.2145 -0.4768 -0.1728
  187MOL    C6726479   0.228   5.065   5.465 -0.2909  0.2778  0.7516
  187MOL    N6826480   0.190   4.987   5.384 -0.6493 -0.2459  0.6574
  187MOL    H6926481   0.305   4.998   5.693 -0.4453 -0.7894  0.1604
  187MOL    H7026482   0.177   5.102   5.747 -0.2176  0.7962 -0.4345
  187MOL    H7126483   0.374   5.179   5.517 -0.0440  0.3042 -0.4904
  187MOL    C7226484   0.203   5.296   5.562  0.0337  0.2864 -0.3670
  187MOL    C7326485   0.222   5.371   5.425  0.3881  0.2023  0.1725
  187MOL    C7426486   0.113   5.459   5.392 -0.2836  0.7417  0.1540
  187MOL    N7526487   0.029   5.536   5.369  0.2202  0.1193 -0.3035
  187MOL    H7626488   0.095   5.279   5.567  0.2314 -1.1723 -0.6384
  187MOL    H7726489   0.231   5.356   5.649 -2.9528 -1.2609  1.7416
  187MOL    H7826490   0.213   5.295   5.347 -1.5042 -1.4932  1.9856
  187MOL    C7926491   0.361   5.428   5.423 -0.2604 -0.2903  0.5635
  187MOL    C8026492   0.386   5.542   5.330  0.1652  0.4947 -0.0732
  187MOL    C8126493   0.524   5.587   5.337  0.5402 -0.8801  0.1203
  187MOL    N8226494   0.632   5.625   5.342  0.0000  0.4829  0.4341
  187MOL    H8326495   0.376   5.471   5.522 -0.7724  1.0634  0.0641
  187MOL    H8426496   0.438   5.351   5.417 -0.1627 -0.0935 -0.7759
  187MOL    H8526497   0.329   5.618   5.383  0.7927  1.2399 -0.4457
  187MOL    C8626498   0.335   5.525   5.178 -0.1434  0.0548 -0.1226
  187MOL    C8726499   0.413   5.443   5.082  0.4016  0.7750  0.0155
  187MOL    C8826500   0.432   5.307   5.136 -0.0675  0.6059  0.0807
  187MOL    N8926501   0.444   5.200   5.173 -0.7800 -0.4376 -0.6079
  187MOL    H9026502   0.228   5.504   5.176  0.0019 -0.6462 -3.8224
  187MOL    H9126503   0.344   5.630   5.150  1.3510  0.0459  0.2841
  187MOL    H9226504   0.513   5.482   5.068  0.7166 -0.2159 -0.5884
  187MOL    C9326505   0.347   5.458   4.946  0.5576  0.9979  0.0058
  187MOL    C9426506   0.429   5.386   4.840  0.1093  0.5787  0.8884
  187MOL    C9526507   0.433   5.243   4.856  0.8250  0.4206  0.2697
  187MOL    N9626508   0.435   5.129   4.872 -0.0033 -0.0322 -0.3364
  187MOL    H9726509   0.239   5.444   4.947  0.4827  1.5677 -0.4337
  187MOL    H9826510   0.356   5.565   4.929 -0.1949  1.2293  1.0209
  187MOL    H9926511   0.533   5.413   4.851 -0.1343  1.3126  1.3688
  187MOL   C10026512   0.384   5.413   4.690  0.1691 -0.2700 -0.5328
  187MOL   C10126513   0.246   5.375   4.639  0.8430  0.2708 -0.2763
  187MOL   C10226514   0.201   5.460   4.520  0.1903  0.7938  0.7939
  187MOL   N10326515   0.173   5.525   4.431 -0.4968  0.3224  0.1273
  187MOL   H10426516   0.398   5.519   4.671  0.5992 -0.1383  0.5170
  187MOL   H10526517   0.448   5.371   4.612 -0.6227 -1.6181 -0.4774
  187MOL   H10626518   0.174   5.409   4.714  1.0297 -1.9913  1.0091
  187MOL   C10726519   0.234   5.219   4.605 -0.3913  0.0401 -0.1752
  187MOL   C10826520   0.104   5.187   4.544 -0.1465 -0.2100 -0.4933
  187MOL   C10926521   0.128   5.069   4.463  0.2559 -0.2398  0.9404
  187MOL   N11026522   0.145   4.970   4.399  0.4829  0.2590 -0.2814
  187MOL   H11126523   0.318   5.178   4.548 -1.4304  0.7030 -2.2407
  187MOL   H11226524   0.237   5.158   4.695 -2.4670 -0.1876 -0.2485
  187MOL   H11326525   0.074   5.265   4.474 -1.0743  0.7089  0.8922
  187MOL   C11426526   8.300   5.169   4.638 -0.2612 -0.1034  0.1983
  187MOL   C11526527   8.168   5.103   4.583  0.0405 -0.1658 -0.2797
  187MOL   C11626528   8.078   5.071   4.694 -0.1622 -0.0824 -0.1355
  187MOL   N11726529   8.014   5.044   4.787 -0.8465  0.4468 -0.8467
  187MOL   H11826530   0.023   5.107   4.720 -0.7181 -2.0443 -1.0381
  187MOL   H11926531   8.279   5.259   4.696  2.8937 -0.5704  2.1590
  187MOL   H12026532   8.212   5.012   4.543  3.5000  0.4088  1.9962
  187MOL   C12126533   8.089   5.187   4.468 -0.3755 -0.0191 -0.2852
  187MOL   C12226534   8.037   5.098   4.352  0.3807  0.4563 -0.1522
  187MOL   C12326535   7.908   5.039   4.394  0.4392 -0.1577  0.5798
  187MOL   N12426536   7.806   5.000   4.425  1.1095 -0.8828 -0.0068
  187MOL   H12526537   8.005   5.241   4.512  0.6486  2.1826 -1.0118
  187MOL   H12626538   8.164   5.259   4.436  0.9870 -0.7072  1.3136
  187MOL   H12726539   8.100   5.011   4.340 -0.0716 -0.0973  1.4403
  187MOL   C12826540   8.020   5.168   4.217 -0.6859  0.4470 -0.2664
  187MOL   C12926541   8.138   5.174   4.120  0.0248  0.6270 -0.1854
  187MOL   C13026542   8.264   5.223   4.171 -0.2509 -0.4543 -0.4970
  187MOL   N13126543   0.054   5.257   4.216  0.6843  0.3985 -0.0435
  187MOL   H13226544   7.936   5.121   4.167  0.2053  0.1467 -1.5112
  187MOL   H13326545   7.996   5.273   4.233  0.6088  0.5035  1.3936
  187MOL   H13426546   8.111   5.238   4.036  1.0141  0.7355 -0.4327
  187MOL   C13526547   8.171   5.033   4.062  0.0474  0.0828 -0.4698
  187MOL   C13626548   8.072   4.998   3.946 -0.2590  0.1224 -0.1228
  187MOL   C13726549   8.062   4.857   3.913 -0.0765  0.0968 -0.5238
  187MOL   N13826550   8.048   4.743   3.895 -0.1345  0.3454 -0.2835
  187MOL   H13926551   8.271   5.043   4.019 -0.1521 -0.4605 -1.0598
  187MOL   H14026552   8.166   4.956   4.139 -2.1532  1.5797  0.9504
  187MOL   H14126553   8.106   5.033   3.848  1.7667 -0.3579  0.3890
  187MOL   H14226554   7.975   5.042   3.969 -1.1375 -1.2115 -1.1661
  188MOL     C126555   2.276   4.241   0.074  0.0455  0.1774  0.1478
  188MOL     C226556   2.181   4.339   8.311 -0.4004  0.7607  0.0066
  188MOL     C326557   2.035   4.315   0.005  0.3268  0.3655 -0.4919
  188MOL     N426558   1.923   4.296   0.011 -0.3241 -0.2271 -0.0109
  188MOL     H526559   2.277   4.137   0.041  2.7306  0.6164 -1.3271
  188MOL     H626560   2.263   4.230   0.181  2.3381 -0.2783  0.4053
  188MOL     H726561   2.202   4.328   8.205  0.1680  1.2238  0.0698
  188MOL     H826562   2.382   4.258   0.054 -0.4569  0.9453 -2.0144
  188MOL     C926563   2.220   4.485   0.026 -0.0344  0.0932 -0.2330
  188MOL    C1026564   2.374   4.526   0.037  0.1719 -0.4122  1.1654
  188MOL    C1126565   2.454   4.469   8.245 -0.0723 -0.2198  0.0954
  188MOL    N1226566   2.519   4.422   8.159 -0.0493 -0.5605 -0.0032
  188MOL    H1326567   2.172   4.540   8.258  1.2956  2.4682  0.5334
  188MOL    H1426568   2.176   4.538   0.110  2.1647  0.6180  0.6317
  188MOL    H1526569   2.407   4.497   0.137  1.8352  1.8321  1.3119
  188MOL    C1626570   2.387   4.677   0.040  0.3199  0.1633  0.2199
  188MOL    C1726571   2.522   4.730   0.087 -0.4361 -0.4862  0.7783
  188MOL    C1826572   2.637   4.695   8.311  0.3495 -0.4139 -0.0933
  188MOL    N1926573   2.726   4.667   8.239  0.2454  0.1661 -0.7499
  188MOL    H2026574   2.362   4.720   8.255  0.3801 -1.8115 -0.6769
  188MOL    H2126575   2.308   4.726   0.098  0.4130  1.6742 -0.8940
  188MOL    H2226576   2.523   4.686   0.186 -0.7643 -0.0585  0.9749
  188MOL    C2326577   2.523   4.885   0.117  0.5225 -0.0510 -0.1395
  188MOL    C2426578   2.661   4.947   0.154 -0.4104  0.0931  0.2021
  188MOL    C2526579   2.737   4.980   0.030 -0.1660  0.3479  0.3894
  188MOL    N2626580   2.800   5.004   8.244 -1.1811 -0.0471 -0.2489
  188MOL    H2726581   2.489   4.928   0.023  0.9427  3.3703  1.2386
  188MOL    H2826582   2.447   4.902   0.193  0.5986  0.5505 -0.1991
  188MOL    H2926583   2.717   4.874   0.211  0.4461  0.6075  0.0295
  188MOL    C3026584   2.635   5.072   0.257  0.0917 -0.4669  0.7786
  188MOL    C3126585   2.744   5.172   0.274  0.2291 -0.3539  0.2062
  188MOL    C3226586   2.703   5.276   0.368  0.1347 -0.1081  0.0628
  188MOL    N3326587   2.671   5.355   0.443  0.5582  0.0891 -0.1765
  188MOL    H3426588   2.540   5.123   0.242  0.8300  0.6856 -0.0495
  188MOL    H3526589   2.619   5.028   0.356  3.6562  1.6783  2.4080
  188MOL    H3626590   2.763   5.218   0.177  0.4988 -0.5184  0.1806
  188MOL    C3726591   2.877   5.114   0.313 -0.0041 -0.1732 -0.1981
  188MOL    C3826592   2.998   5.199   0.274  0.1604  0.2408 -0.0182
  188MOL    C3926593   2.994   5.334   0.335  0.2144  0.1018 -1.3064
  188MOL    N4026594   2.996   5.442   0.379  0.3848 -0.1614  0.6967
  188MOL    H4126595   2.882   5.105   0.422 -1.0879  1.0756 -0.0353
  188MOL    H4226596   2.898   5.015   0.272 -0.4066 -1.8375  3.4177
  188MOL    H4326597   2.987   5.207   0.166  0.7490  0.2771 -0.0781
  188MOL    C4426598   3.137   5.132   0.301 -0.7623  0.5114  0.5192
  188MOL    C4526599   3.259   5.194   0.235 -0.8272 -0.3284 -0.4048
  188MOL    C4626600   3.312   5.309   0.315 -0.0492 -0.0802  0.4439
  188MOL    N4726601   3.344   5.396   0.388  0.3507  0.4621  0.0263
  188MOL    H4826602   3.163   5.121   0.407  3.7786 -3.7047 -0.8325
  188MOL    H4926603   3.121   5.030   0.265 -1.9165  0.7100  0.4309
  188MOL    H5026604   3.231   5.247   0.144  0.9061 -0.3801 -0.9684
  188MOL    C5126605   3.377   5.103   0.204  1.1234  0.1413 -1.0222
  188MOL    C5226606   3.385   5.050   0.061  0.2769 -0.2385  0.8511
  188MOL    C5326607   3.509   4.970   0.035 -0.1945  0.7722 -0.2540
  188MOL    N5426608   3.603   4.901   0.024 -0.1118 -0.5633 -0.2695
  188MOL    H5526609   3.467   5.162   0.223 -0.2552  2.0803 -0.3849
  188MOL    H5626610   3.395   5.021   0.274  2.1967  0.4456 -0.9292
  188MOL    H5726611   3.393   5.143   0.005  1.6660 -0.6419  0.3873
  188MOL    C5826612   3.267   4.969   0.013  0.0289  0.2199  0.5329
  188MOL    C5926613   3.234   5.000   8.182 -0.2108 -0.1564  0.6280
  188MOL    C6026614   3.173   5.138   8.174  0.5928  0.5491  0.4259
  188MOL    N6126615   3.121   5.242   8.170 -0.7652  0.4785 -0.2615
  188MOL    H6226616   3.282   4.863   0.030 -0.6324  0.0818  0.2375
  188MOL    H6326617   3.174   4.990   0.067 -1.8020  0.1870 -2.5299
  188MOL    H6426618   3.151   4.934   8.160 -0.2765  1.1135 -3.2064
  188MOL    C6526619   3.346   4.982   8.077  0.1916  0.1555  0.2596
  188MOL    C6626620   3.366   4.833   8.045  0.2464  0.6553  1.1118
  188MOL    C6726621   3.245   4.780   7.968 -0.4196 -0.4931  0.0625
  188MOL    N6826622   3.157   4.728   7.905 -0.5514 -0.3719  0.2297
  188MOL    H6926623   3.312   5.041   7.992 -1.3637 -1.8852 -0.5692
  188MOL    H7026624   3.438   5.029   8.111  0.2690  0.5663 -0.5308
  188MOL    H7126625   3.367   4.773   8.136 -0.3761  0.7226  1.1668
  188MOL    C7226626   3.499   4.808   7.980  0.3161 -0.0311  0.1245
  188MOL    C7326627   3.519   4.857   7.836  0.1788  0.2588 -0.1709
  188MOL    C7426628   3.560   4.991   7.813 -0.9097 -0.0191  0.8507
  188MOL    N7526629   3.584   5.107   7.805  0.1902 -0.7342 -0.4293
  188MOL    H7626630   3.586   4.841   8.036 -1.1565  0.1222  2.3779
  188MOL    H7726631   3.507   4.700   7.986 -0.9980 -0.2952 -2.1755
  188MOL    H7826632   3.422   4.846   7.787 -0.1783 -1.1820  0.8313
  188MOL    C7926633   3.613   4.763   7.764  0.3433  0.3511  0.0212
  188MOL    C8026634   3.636   4.786   7.612 -0.0307  0.4547 -0.1387
  188MOL    C8126635   3.506   4.810   7.548  0.3972  0.0919 -0.1023
  188MOL    N8226636   3.402   4.832   7.505  0.3826 -0.1939  0.5400
  188MOL    H8326637   3.709   4.777   7.813  0.8503  0.5703 -1.0286
  188MOL    H8426638   3.580   4.662   7.790 -0.8614  0.8915  0.6670
  188MOL    H8526639   3.662   4.690   7.567 -0.8606  0.5190 -0.7761
  188MOL    C8626640   3.735   4.886   7.566 -0.5301 -0.1961  0.4021
  188MOL    C8726641   3.798   4.853   7.427 -0.0738 -0.6391 -0.8741
  188MOL    C8826642   3.710   4.878   7.311  0.4303 -0.0471 -0.0968
  188MOL    N8926643   3.640   4.893   7.219  0.4972 -0.5995 -0.4846
  188MOL    H9026644   3.692   4.986   7.560  0.3866  0.2704  1.2700
  188MOL    H9126645   3.822   4.874   7.631 -0.8568 -1.3212  0.6512
  188MOL    H9226646   3.813   4.745   7.432  0.1723 -0.4691  3.8366
  188MOL    C9326647   3.933   4.919   7.402 -0.0323 -0.2972  0.7224
  188MOL    C9426648   3.939   5.075   7.358  0.7255 -0.3168  0.7982
  188MOL    C9526649   3.844   5.158   7.433  0.0806 -0.2099  0.2488
  188MOL    N9626650   3.774   5.221   7.497  0.2738 -0.1214  0.1913
  188MOL    H9726651   3.994   4.907   7.491 -0.4561  0.2123  1.0907
  188MOL    H9826652   4.000   4.873   7.329  1.4603  0.5591  1.5355
  188MOL    H9926653   3.920   5.091   7.252  0.7753 -0.6311  0.7414
  188MOL   C10026654   4.082   5.138   7.386  0.1371 -0.1570 -0.5048
  188MOL   C10126655   4.198   5.102   7.296  0.1782  0.3602  0.8688
  188MOL   C10226656   4.176   5.159   7.161 -0.6707  0.1989 -0.5628
  188MOL   N10326657   4.151   5.199   7.056 -0.6720 -0.8477 -0.1109
  188MOL   H10426658   4.075   5.247   7.375 -1.7288 -0.0947  0.9292
  188MOL   H10526659   4.102   5.123   7.492  0.0138 -2.0694 -0.7492
  188MOL   H10626660   4.195   4.995   7.280 -0.8270  0.4739  0.2801
  188MOL   C10726661   4.332   5.142   7.347  0.6761 -0.1193  0.1984
  188MOL   C10826662   4.392   5.069   7.468 -0.0384 -0.1766 -0.0490
  188MOL   C10926663   4.383   4.926   7.443  0.7904  0.1460 -0.0361
  188MOL   N11026664   4.375   4.807   7.424 -0.4032 -0.9358 -0.0558
  188MOL   H11126665   4.387   5.120   7.256  1.2710 -1.6940  0.9353
  188MOL   H11226666   4.328   5.248   7.374  1.6126 -0.2374  0.8487
  188MOL   H11326667   4.322   5.076   7.551 -0.9988 -0.2037 -0.8425
  188MOL   C11426668   4.531   5.129   7.509 -0.3853  0.5665 -0.0359
  188MOL   C11526669   4.640   5.129   7.407 -0.7911 -0.6148 -0.9912
  188MOL   C11626670   4.620   5.220   7.299  0.0818  0.4241  0.3634
  188MOL   N11726671   4.603   5.295   7.212 -0.7412  0.3176 -0.0460
  188MOL   H11826672   4.513   5.230   7.548 -0.6273 -0.6856  3.2267
  188MOL   H11926673   4.562   5.071   7.596 -1.2140  0.7269  0.3733
  188MOL   H12026674   4.649   5.032   7.359 -1.7761 -1.2720  0.1529
  188MOL   C12126675   4.774   5.146   7.473  0.0193 -1.1816 -0.9041
  188MOL   C12226676   4.793   5.254   7.572  0.4734 -0.2916  0.8769
  188MOL   C12326677   4.744   5.212   7.703  0.5705 -0.2090  0.5430
  188MOL   N12426678   4.707   5.176   7.806 -0.4855  0.5808 -0.0918
  188MOL   H12526679   4.799   5.051   7.519 -1.4742 -0.4209  1.5716
  188MOL   H12626680   4.857   5.154   7.402  1.5049 -0.3299  0.8846
  188MOL   H12726681   4.721   5.330   7.542 -0.3570 -1.1224  0.7374
  188MOL   C12826682   4.933   5.315   7.585 -0.2072 -0.4654  0.0464
  188MOL   C12926683   4.933   5.455   7.652 -0.1139 -0.1887  0.5544
  188MOL   C13026684   4.899   5.460   7.797  0.2831 -0.3945 -0.6065
  188MOL   N13126685   4.879   5.464   7.908  0.6020  0.1808 -0.5587
  188MOL   H13226686   5.003   5.241   7.621 -0.4493 -0.9438 -0.4551
  188MOL   H13326687   4.963   5.333   7.482  0.5880  0.7675  0.4870
  188MOL   H13426688   4.860   5.521   7.604  3.1677  1.7641 -2.0403
  188MOL   C13526689   5.066   5.532   7.624 -0.2280  0.2752 -0.1769
  188MOL   C13626690   5.046   5.656   7.525  0.6001 -0.5330  0.1100
  188MOL   C13726691   5.157   5.752   7.532  0.5875 -0.2961 -0.0429
  188MOL   N13826692   5.243   5.826   7.542 -0.2357 -0.1836  0.1115
  188MOL   H13926693   5.086   5.579   7.720 -1.0129  2.8906 -1.2391
  188MOL   H14026694   5.147   5.466   7.592 -1.7323 -2.0082  0.6358
  188MOL   H14126695   4.962   5.723   7.543  0.4106 -0.5289 -0.7558
  188MOL   H14226696   5.051   5.619   7.423  1.7997 -1.5998  0.5473
  189MOL     C126697   4.664   4.726   1.666 -0.4816  0.7999  0.0887
  189MOL     C226698   4.804   4.697   1.726 -0.4605  0.0024 -0.0788
  189MOL     C326699   4.813   4.555   1.762 -0.0926 -0.3239 -0.4360
  189MOL     N426700   4.825   4.446   1.792  0.7602 -0.0166 -0.1365
  189MOL     H526701   4.593   4.706   1.746 -0.7456  0.6578 -0.1789
  189MOL     H626702   4.629   4.661   1.586 -0.5734 -0.4094  1.0902
  189MOL     H726703   4.800   4.749   1.822  1.4259 -0.2585  0.1600
  189MOL     H826704   4.638   4.831   1.651 -0.7306  0.3910 -2.6256
  189MOL     C926705   4.929   4.762   1.654  0.2987  0.8360 -0.4688
  189MOL    C1026706   4.999   4.677   1.543  0.3088 -0.5423  0.6780
  189MOL    C1126707   4.901   4.656   1.437  0.1427 -0.2161 -0.1354
  189MOL    N1226708   4.824   4.640   1.354 -0.6387 -0.4622  0.1875
  189MOL    H1326709   4.898   4.864   1.635  1.4755  1.2259 -0.2930
  189MOL    H1426710   4.995   4.766   1.741 -1.3686  1.0767  0.8102
  189MOL    H1526711   5.018   4.573   1.571 -0.1576 -0.2721  1.9933
  189MOL    C1626712   5.134   4.737   1.491  0.6054 -0.2166 -0.1256
  189MOL    C1726713   5.132   4.861   1.396  0.2264 -0.4539  0.1469
  189MOL    C1826714   5.048   4.971   1.441  0.6998 -0.1214 -0.2935
  189MOL    N1926715   4.981   5.059   1.479  0.2340  0.3359  0.1395
  189MOL    H2026716   5.192   4.769   1.577  1.3216 -1.1659 -0.2522
  189MOL    H2126717   5.189   4.654   1.445  0.0272  1.2473 -3.6029
  189MOL    H2226718   5.088   4.838   1.299  0.1855  0.1234  0.0243
  189MOL    C2326719   5.272   4.907   1.349 -0.8548 -0.0720  0.8102
  189MOL    C2426720   5.288   5.009   1.234  0.3546 -0.6659  0.0571
  189MOL    C2526721   5.427   5.064   1.217 -0.3646  0.5980 -0.5060
  189MOL    N2626722   5.536   5.104   1.201 -0.3083  0.6226 -0.4891
  189MOL    H2726723   5.339   4.935   1.430 -0.6621  1.0617  0.2772
  189MOL    H2826724   5.318   4.813   1.320  0.6081  0.0266  2.6990
  189MOL    H2926725   5.223   5.092   1.261  0.4708 -0.3006 -0.7719
  189MOL    C3026726   5.231   4.972   1.095 -0.0211  0.4037 -0.3404
  189MOL    C3126727   5.175   5.092   1.014 -0.8556 -0.4675 -0.9002
  189MOL    C3226728   5.285   5.188   0.982 -0.0365 -0.1590  0.1044
  189MOL    N3326729   5.368   5.262   0.950 -0.2815 -0.1339 -0.0148
  189MOL    H3426730   5.303   4.913   1.037  2.5685  1.9688  1.1750
  189MOL    H3526731   5.152   4.898   1.109  0.9260 -0.6801 -0.5288
  189MOL    H3626732   5.101   5.147   1.073 -1.1070  0.1587 -1.7897
  189MOL    C3726733   5.118   5.061   0.875  0.1677  0.5111  0.3326
  189MOL    C3826734   4.963   5.026   0.878  0.4928 -0.0345 -0.1362
  189MOL    C3926735   4.941   4.909   0.956 -0.5082 -0.2228 -0.2599
  189MOL    N4026736   4.928   4.813   1.020  0.3357 -0.6814  0.2742
  189MOL    H4126737   5.123   5.142   0.803  0.0931  1.7444  1.6997
  189MOL    H4226738   5.177   4.977   0.837  1.6239  1.9148 -0.5602
  189MOL    H4326739   4.943   4.999   0.775 -1.1109 -0.1064  0.1820
  189MOL    C4426740   4.874   5.158   0.912 -0.1215 -0.2320  0.1136
  189MOL    C4526741   4.732   5.143   0.885 -0.5676  0.3977 -0.3585
  189MOL    C4626742   4.701   5.160   0.741 -0.3602 -0.1582 -0.2347
  189MOL    N4726743   4.673   5.175   0.629 -0.4009 -0.0998 -0.1979
  189MOL    H4826744   4.895   5.193   1.013 -1.9345  0.6662  0.1977
  189MOL    H4926745   4.928   5.234   0.855  0.4373 -0.7231 -0.0193
  189MOL    H5026746   4.687   5.234   0.923  0.9155  0.6869  0.7167
  189MOL    C5126747   4.652   5.027   0.950 -0.1326  0.2899 -0.2469
  189MOL    C5226748   4.659   5.021   1.103 -0.2200  0.3921  0.0058
  189MOL    C5326749   4.653   5.156   1.165  0.1125 -0.2547  0.8344
  189MOL    N5426750   4.649   5.260   1.208  0.0848 -0.2754 -0.1207
  189MOL    H5526751   4.546   5.043   0.930  0.3948 -0.1158 -3.6284
  189MOL    H5626752   4.681   4.938   0.896  1.0715  0.2923  0.3844
  189MOL    H5726753   4.754   4.976   1.133  0.5929  1.5916 -0.7087
  189MOL    C5826754   4.550   4.925   1.155 -0.1285  0.2578 -0.1307
  189MOL    C5926755   4.500   4.945   1.293 -0.1465  0.0948  0.1078
  189MOL    C6026756   4.390   5.048   1.277  0.3149 -0.4762 -0.3068
  189MOL    N6126757   4.304   5.125   1.267 -0.0777  0.1115  0.6808
  189MOL    H6226758   4.462   4.933   1.090 -1.9404 -1.5625  2.0077
  189MOL    H6326759   4.580   4.821   1.149 -1.6405 -0.3216  1.7823
  189MOL    H6426760   4.587   4.985   1.346  0.8185 -2.5823  0.6232
  189MOL    C6526761   4.449   4.823   1.378  0.5796  0.5939 -0.2080
  189MOL    C6626762   4.305   4.802   1.357 -0.0505  0.0002  0.9837
  189MOL    C6726763   4.276   4.780   1.212  0.0176  0.6376 -0.6233
  189MOL    N6826764   4.262   4.761   1.101  0.5182 -0.9239  0.3832
  189MOL    H6926765   4.505   4.729   1.375 -0.8684 -0.2861  0.0636
  189MOL    H7026766   4.450   4.855   1.482 -0.1862  0.3565 -0.1270
  189MOL    H7126767   4.250   4.890   1.391 -1.4153 -0.0574 -0.9304
  189MOL    C7226768   4.256   4.687   1.437 -0.3996  0.6753 -0.6301
  189MOL    C7326769   4.118   4.696   1.501  0.0432 -0.2846 -0.3073
  189MOL    C7426770   4.016   4.722   1.393  0.0679  0.5459  0.2616
  189MOL    N7526771   3.933   4.735   1.310 -0.6633  0.1110  0.3286
  189MOL    H7626772   4.262   4.602   1.369  1.2161 -0.2578  0.6711
  189MOL    H7726773   4.330   4.672   1.515  2.1253  1.4149 -2.8291
  189MOL    H7826774   4.114   4.788   1.559  1.5411 -0.6601  0.4021
  189MOL    C7926775   4.076   4.592   1.604 -1.0559  0.4433  0.2468
  189MOL    C8026776   4.036   4.451   1.550 -0.0690  0.3032  0.0618
  189MOL    C8126777   4.142   4.392   1.466  0.3242  0.8740  1.6964
  189MOL    N8226778   4.220   4.341   1.394  0.3288  0.2754 -0.3984
  189MOL    H8326779   4.161   4.576   1.671 -0.5658  0.0767 -0.4518
  189MOL    H8426780   3.997   4.628   1.670 -0.3121 -0.9219  1.9383
  189MOL    H8526781   3.950   4.453   1.484  1.2174 -0.7731 -1.7018
  189MOL    C8626782   3.990   4.361   1.668  0.0026 -0.5862  0.1479
  189MOL    C8726783   3.938   4.220   1.642 -0.2931 -0.3649 -0.1273
  189MOL    C8826784   3.888   4.162   1.768  0.3874 -0.1958  0.5113
  189MOL    N8926785   3.843   4.123   1.867 -0.3292  0.0927 -0.2572
  189MOL    H9026786   4.073   4.353   1.739  0.3883 -0.0312 -0.2384
  189MOL    H9126787   3.917   4.419   1.725 -1.2271 -3.6222  1.7869
  189MOL    H9226788   4.028   4.177   1.600  0.6666  1.1222  0.3829
  189MOL    C9326789   3.817   4.224   1.542 -1.0087  0.4305 -0.4457
  189MOL    C9426790   3.776   4.086   1.483 -0.2651  0.9786 -1.2431
  189MOL    C9526791   3.725   3.994   1.585  0.1065 -0.1818 -0.0853
  189MOL    N9626792   3.679   3.922   1.659  0.2505  0.6967 -0.0241
  189MOL    H9726793   3.740   4.293   1.575 -1.7327 -0.4752 -0.2182
  189MOL    H9826794   3.860   4.274   1.454 -2.0340 -0.8783 -1.7183
  189MOL    H9926795   3.862   4.032   1.445 -0.6628 -1.0254  0.5516
  189MOL   C10026796   3.667   4.099   1.375  0.0951 -0.3671  0.0274
  189MOL   C10126797   3.646   3.979   1.282 -0.5918  0.7339 -0.2070
  189MOL   C10226798   3.774   3.938   1.222 -0.3501  0.5153 -0.4977
  189MOL   N10326799   3.870   3.911   1.166 -0.4806  0.4660 -0.1182
  189MOL   H10426800   3.572   4.130   1.417  0.7514 -0.0562  1.3131
  189MOL   H10526801   3.690   4.179   1.304 -1.6760 -2.1146 -2.5840
  189MOL   H10626802   3.579   4.016   1.204  0.0028  0.7829 -0.6965
  189MOL   C10726803   3.577   3.856   1.343 -0.3794 -0.2763  0.3984
  189MOL   C10826804   3.497   3.771   1.242 -0.0109 -0.0845 -0.1175
  189MOL   C10926805   3.463   3.653   1.313 -0.7020  0.4958 -0.2398
  189MOL   N11026806   3.430   3.555   1.365 -0.2191  0.7115  0.2628
  189MOL   H11126807   3.650   3.799   1.401 -2.4174 -2.5835  0.7838
  189MOL   H11226808   3.510   3.889   1.422 -0.7755 -0.8025  0.2832
  189MOL   H11326809   3.565   3.738   1.163 -1.4792 -1.4058 -0.8519
  189MOL   C11426810   3.384   3.840   1.161  0.0741 -0.4910  0.4518
  189MOL   C11526811   3.243   3.865   1.228 -0.3093  0.0696 -0.2451
  189MOL   C11626812   3.251   3.980   1.316 -0.3008 -0.3911  0.4985
  189MOL   N11726813   3.258   4.074   1.383 -0.2877 -0.0098  0.1357
  189MOL   H11826814   3.423   3.925   1.105  0.3390 -2.8390 -3.0901
  189MOL   H11926815   3.372   3.771   1.078  0.6693  1.5066 -1.3146
  189MOL   H12026816   3.216   3.778   1.287 -1.3380 -0.0793 -0.9287
  189MOL   C12126817   3.134   3.877   1.121 -0.1024  1.2278  0.2197
  189MOL   C12226818   3.135   3.997   1.030 -0.0166  0.1251 -0.1770
  189MOL   C12326819   3.256   4.005   0.944 -0.3514 -0.2752  0.1880
  189MOL   N12426820   3.351   4.015   0.875  0.0861 -0.0851  0.8289
  189MOL   H12526821   3.143   3.791   1.055  1.2244  2.1443 -0.8256
  189MOL   H12626822   3.042   3.871   1.180 -0.0364  1.5521  0.3578
  189MOL   H12726823   3.141   4.076   1.105  0.1646  0.2128 -0.2820
  189MOL   C12826824   3.010   3.997   0.950 -0.0890  0.0915  0.6537
  189MOL   C12926825   2.990   4.119   0.854  0.0668  0.3276  0.2999
  189MOL   C13026826   3.078   4.224   0.893 -0.4900 -0.5583  0.4796
  189MOL   N13126827   3.159   4.309   0.917  0.0763  0.1862  0.1574
  189MOL   H13226828   2.981   3.910   0.891 -0.3955 -0.8143  2.1034
  189MOL   H13326829   2.925   4.005   1.017  0.0898  0.7916  0.7991
  189MOL   H13426830   2.887   4.151   0.868 -0.0284  0.1197  0.0919
  189MOL   C13526831   3.005   4.069   0.706  0.4056  0.3660  0.0173
  189MOL   C13626832   3.021   4.184   0.605  0.7081 -0.0824  0.0804
  189MOL   C13726833   2.906   4.275   0.618 -0.9171 -0.1575 -1.0085
  189MOL   N13826834   2.819   4.346   0.638 -0.3313  0.1990  0.2741
  189MOL   H13926835   3.096   4.008   0.703  0.6648  0.7116  0.6929
  189MOL   H14026836   2.917   4.015   0.671 -0.3098  2.4153 -1.3911
  189MOL   H14126837   3.037   4.163   0.499  1.2831 -1.5194  0.4356
  189MOL   H14226838   3.103   4.249   0.634  1.6359 -0.1717 -2.1770
  190MOL     C126839   0.179   7.524   6.272  0.4736  0.2728 -0.2208
  190MOL     C226840   0.094   7.615   6.359 -0.4766 -0.0496 -0.1869
  190MOL     C326841   0.106   7.586   6.508 -0.3713  0.2517  0.1896
  190MOL     N426842   0.110   7.560   6.619  0.4296 -0.4124  0.0499
  190MOL     H526843   0.137   7.424   6.278  1.8248 -0.4057 -1.6246
  190MOL     H626844   0.286   7.506   6.281  0.2683 -0.0819  1.6857
  190MOL     H726845   8.305   7.600   6.322 -0.7811 -0.1273  0.6656
  190MOL     H826846   0.174   7.565   6.171 -1.0450 -1.0703 -0.7166
  190MOL     C926847   0.128   7.766   6.334 -0.9618 -0.4441 -0.6328
  190MOL    C1026848   0.246   7.819   6.417  0.5467 -0.7761  0.0256
  190MOL    C1126849   0.378   7.744   6.414 -0.0650  0.5368 -0.3939
  190MOL    N1226850   0.479   7.690   6.396 -0.3031  0.3817  0.1444
  190MOL    H1326851   0.135   7.788   6.228 -1.3793  0.5120 -0.4605
  190MOL    H1426852   0.040   7.813   6.378 -0.5386 -0.8711  0.6925
  190MOL    H1526853   0.220   7.806   6.522 -4.1320 -3.1006 -1.2905
  190MOL    C1626854   0.268   7.972   6.395 -0.4039  0.1018  0.6063
  190MOL    C1726855   0.183   8.056   6.491 -0.5257 -0.5394 -0.2203
  190MOL    C1826856   0.204   8.020   6.635 -0.0178 -0.5956 -0.0921
  190MOL    N1926857   0.227   7.992   6.745  0.2569 -0.1714  0.1119
  190MOL    H2026858   0.374   7.991   6.410 -0.4195  0.8166 -0.1119
  190MOL    H2126859   0.257   8.011   6.293 -1.3051  0.6770  0.9061
  190MOL    H2226860   0.078   8.033   6.471 -0.7164 -1.8831  2.1636
  190MOL    C2326861   0.214   8.209   6.479  0.2495  1.3909  0.1720
  190MOL    C2426862   0.096   8.300   6.530 -0.1989 -0.1999 -0.1732
  190MOL    C2526863   8.274   8.249   6.484  0.2112  0.0777  0.0947
  190MOL    N2626864   8.178   8.200   6.449 -0.6451  0.5330  0.6923
  190MOL    H2726865   0.310   8.245   6.517  1.8777 -0.6310 -1.9042
  190MOL    H2826866   0.215   8.241   6.375  0.9220  0.2607 -0.1710
  190MOL    H2926867   0.106   0.083   6.479 -3.8743  0.3794  0.0774
  190MOL    C3026868   0.102   0.010   6.680  0.2209  0.4962 -0.0218
  190MOL    C3126869   0.022   0.122   6.750  0.1741  0.2907  0.0728
  190MOL    C3226870   0.053   0.123   6.891 -0.1144  0.0543 -0.2114
  190MOL    N3326871   0.084   0.121   7.004  0.3871  0.2522  0.2589
  190MOL    H3426872   0.079   8.228   6.730 -0.0139  0.3856 -0.3388
  190MOL    H3526873   0.205   0.032   6.711 -0.9339  5.0560  0.8842
  190MOL    H3626874   8.230   0.090   6.754  0.9965 -2.3749  1.1422
  190MOL    C3726875   0.031   0.264   6.679  0.4255 -0.1549 -0.3358
  190MOL    C3826876   8.234   0.368   6.722 -0.1046 -0.2842 -0.5864
  190MOL    C3926877   8.261   0.417   6.860 -0.1466  0.3954 -0.1632
  190MOL    N4026878   8.279   0.456   6.971  0.0932  0.4511  0.7522
  190MOL    H4126879   0.121   0.313   6.715  0.0032  2.4922 -2.6678
  190MOL    H4226880   0.033   0.255   6.570  0.6761  0.1589 -0.3588
  190MOL    H4326881   8.130   0.335   6.726 -0.0781 -0.2960  0.0062
  190MOL    C4426882   8.244   0.490   6.622  0.2063  0.1489 -0.4241
  190MOL    C4526883   8.125   0.578   6.637 -0.8433 -1.0536  0.2598
  190MOL    C4626884   8.167   0.715   6.615 -0.1336 -0.2325  0.5122
  190MOL    N4726885   8.189   0.825   6.607  0.8700  0.3048 -0.5241
  190MOL    H4826886   0.024   0.543   6.645 -0.2389 -0.0869  2.1276
  190MOL    H4926887   8.261   0.445   6.524  1.0029  0.3546 -0.3802
  190MOL    H5026888   8.081   0.582   6.737 -2.5146 -1.5134 -0.4398
  190MOL    C5126889   8.014   0.542   6.538 -0.1147 -0.2977 -0.5469
  190MOL    C5226890   7.876   0.567   6.589 -0.9242  0.4560  0.1255
  190MOL    C5326891   7.856   0.704   6.635  1.0384  0.1231  0.1808
  190MOL    N5426892   7.831   0.812   6.673  0.7399 -0.0626 -0.5712
  190MOL    H5526893   8.030   0.600   6.447 -1.2120  0.3666 -0.3348
  190MOL    H5626894   8.019   0.436   6.516 -1.4734 -0.8058  1.4025
  190MOL    H5726895   7.872   0.502   6.677  1.2314  1.3258  0.8971
  190MOL    C5826896   7.757   0.525   6.495  0.5033 -0.0397  0.0933
  190MOL    C5926897   7.677   0.402   6.533 -0.0898  0.3511  0.3751
  190MOL    C6026898   7.773   0.289   6.553  0.0641  0.1451 -0.0604
  190MOL    N6126899   7.846   0.204   6.572  0.6542 -0.2534 -0.4365
  190MOL    H6226900   7.689   0.609   6.488 -0.4741 -0.9736 -2.4112
  190MOL    H6326901   7.801   0.508   6.397 -0.9794  3.5347 -1.2692
  190MOL    H6426902   7.626   0.363   6.444  1.3913  1.0997 -0.8219
  190MOL    C6526903   7.582   0.406   6.647 -0.3282  0.0130 -0.2660
  190MOL    C6626904   7.460   0.315   6.634  0.4603  0.1045 -0.2835
  190MOL    C6726905   7.494   0.169   6.641  0.1006 -0.3570  0.2393
  190MOL    N6826906   7.526   0.056   6.645 -0.3715  0.0947 -0.1521
  190MOL    H6926907   7.640   0.398   6.739  0.7297  2.0503 -0.7263
  190MOL    H7026908   7.552   0.510   6.656 -0.2922  0.0638 -0.7613
  190MOL    H7126909   7.428   0.334   6.531  0.0956 -0.3829 -0.2606
  190MOL    C7226910   7.335   0.346   6.718  0.2736  0.0272 -0.4561
  190MOL    C7326911   7.349   0.321   6.867  0.5793 -0.3313  0.1948
  190MOL    C7426912   7.410   0.443   6.932  0.4212  0.1562 -0.2486
  190MOL    N7526913   7.449   0.535   6.988  0.0384 -0.0625  0.2713
  190MOL    H7626914   7.285   0.443   6.713 -1.8682 -0.9155  1.5550
  190MOL    H7726915   7.262   0.272   6.685 -0.4394  1.4007 -2.0119
  190MOL    H7826916   7.414   0.236   6.887  0.6222 -0.6924 -1.4310
  190MOL    C7926917   7.217   0.284   6.929  0.4032  0.6540  0.7859
  190MOL    C8026918   7.165   0.134   6.903  0.3745  0.6999 -0.4080
  190MOL    C8126919   7.099   0.103   6.780 -0.2244  1.3347  0.1432
  190MOL    N8226920   7.043   0.081   6.677  0.1794  0.1391  0.3553
  190MOL    H8326921   7.231   0.293   7.037 -1.5624  1.0134  1.0282
  190MOL    H8426922   7.140   0.355   6.898  1.7212  1.6585 -0.2718
  190MOL    H8526923   7.085   0.114   6.974 -0.1952  1.8992 -0.7115
  190MOL    C8626924   7.272   0.032   6.949  0.3811 -0.4756  0.3931
  190MOL    C8726925   7.236   8.194   6.973 -0.1342 -0.7075  0.3838
  190MOL    C8826926   7.137   8.186   7.086 -0.4204 -0.8942  0.4021
  190MOL    N8926927   7.059   8.184   7.172 -0.3463 -0.1777  0.0320
  190MOL    H9026928   7.352   0.037   6.875 -0.6381  1.1919 -0.6355
  190MOL    H9126929   7.306   0.069   7.046 -1.4776  2.3784  0.0288
  190MOL    H9226930   7.330   8.144   6.997 -0.0471 -1.1607 -0.8529
  190MOL    C9326931   7.186   8.111   6.848 -0.4541 -0.0227  0.2378
  190MOL    C9426932   7.161   7.958   6.870  0.0849 -0.5153 -0.3103
  190MOL    C9526933   7.279   7.877   6.902  0.1638  0.7191 -0.2237
  190MOL    N9626934   7.372   7.815   6.925  0.2517  0.2045  0.0989
  190MOL    H9726935   7.093   8.160   6.818 -0.7268  0.3367  1.6567
  190MOL    H9826936   7.259   8.112   6.766 -1.7833 -0.3008 -0.9624
  190MOL    H9926937   7.136   7.924   6.769  2.9240 -0.6786 -1.0067
  190MOL   C10026938   7.033   7.932   6.947  0.2579 -0.3524  0.3622
  190MOL   C10126939   6.960   7.811   6.903 -0.8646  0.2250  1.3402
  190MOL   C10226940   7.048   7.689   6.883 -0.3951  0.1059  0.2896
  190MOL   N10326941   7.117   7.599   6.867  0.0765  0.8766 -0.2973
  190MOL   H10426942   7.066   7.913   7.049 -1.7842  0.5153  1.2193
  190MOL   H10526943   6.967   8.017   6.935  0.6559  0.1707  1.7537
  190MOL   H10626944   6.924   7.832   6.803  1.1988  1.4547  0.8267
  190MOL   C10726945   6.833   7.786   6.994  0.3465  0.2388 -0.6379
  190MOL   C10826946   6.721   7.706   6.931  0.5473  0.1867  0.5109
  190MOL   C10926947   6.759   7.620   6.818  0.2633 -0.3099  0.9306
  190MOL   N11026948   6.785   7.550   6.730 -0.1209 -0.4512  0.1599
  190MOL   H11126949   6.877   7.738   7.082  2.6772  1.6284 -1.0106
  190MOL   H11226950   6.792   7.882   7.024 -1.8847 -0.3504 -1.6949
  190MOL   H11326951   6.669   7.770   6.859  0.0866 -3.3881 -2.4907
  190MOL   C11426952   6.632   7.635   7.032 -0.4033  0.1877 -0.2160
  190MOL   C11526953   6.581   7.731   7.148  0.2570  0.0085  0.3961
  190MOL   C11626954   6.518   7.844   7.085  0.4293 -0.8351  0.3385
  190MOL   N11726955   6.468   7.933   7.027  0.2325  0.3059  0.5110
  190MOL   H11826956   6.558   7.584   6.970 -2.4923  1.2366  1.3326
  190MOL   H11926957   6.678   7.545   7.072 -1.8627  0.0121  1.1130
  190MOL   H12026958   6.669   7.771   7.198  0.6510  0.2018 -0.4489
  190MOL   C12126959   6.488   7.658   7.240 -0.1150  1.0903 -0.0911
  190MOL   C12226960   6.467   7.728   7.381 -0.6992  0.3299  0.1314
  190MOL   C12326961   6.476   7.874   7.366 -0.5123 -0.1345  0.3941
  190MOL   N12426962   6.487   7.987   7.351  0.3383 -0.0586  0.6611
  190MOL   H12526963   6.390   7.659   7.192 -1.3902 -0.9993  2.3748
  190MOL   H12626964   6.527   7.558   7.255 -2.5390  0.0175 -0.6692
  190MOL   H12726965   6.550   7.694   7.443  0.9328  0.5901 -1.8338
  190MOL   C12826966   6.338   7.697   7.453  0.9201  0.6976  0.1194
  190MOL   C12926967   6.340   7.719   7.603  0.3306  0.0990 -0.1874
  190MOL   C13026968   6.443   7.802   7.666  0.0660  0.4332 -0.5505
  190MOL   N13126969   6.530   7.862   7.709  0.2388  0.4780  0.2679
  190MOL   H13226970   6.266   7.761   7.401  0.8906 -0.2158 -0.9805
  190MOL   H13326971   6.305   7.596   7.431  2.8423 -0.1984  1.2443
  190MOL   H13426972   6.369   7.619   7.634  0.5344 -0.5954 -2.5078
  190MOL   C13526973   6.205   7.763   7.664 -0.3564 -0.0440  0.4298
  190MOL   C13626974   6.161   7.907   7.632 -0.3341 -0.0959  0.0340
  190MOL   C13726975   6.054   7.959   7.719 -1.1448 -0.4110 -0.1318
  190MOL   N13826976   5.968   7.993   7.783 -0.1424  0.4972  0.6737
  190MOL   H13926977   6.135   7.702   7.607 -0.7915  0.9285 -0.0860
  190MOL   H14026978   6.208   7.736   7.770  1.1794 -1.9037 -0.0556
  190MOL   H14126979   6.130   7.919   7.529 -1.9703 -0.2389  0.4927
  190MOL   H14226980   6.235   7.984   7.651  0.6569 -1.2535  0.9710
  191MOL     C126981   3.456   5.795   3.609 -0.1790 -0.0591  0.4077
  191MOL     C226982   3.567   5.764   3.510  0.3043  0.5139  0.2228
  191MOL     C326983   3.586   5.877   3.417 -0.0635 -0.4290  0.6716
  191MOL     N426984   3.606   5.966   3.346 -0.0403  0.3964 -0.4311
  191MOL     H526985   3.484   5.870   3.682 -0.1830 -1.9936  2.4530
  191MOL     H626986   3.434   5.710   3.673 -0.0319 -1.0936 -0.8885
  191MOL     H726987   3.543   5.673   3.456  0.9480  0.8652 -0.6802
  191MOL     H826988   3.369   5.836   3.558 -0.4706 -1.0809  0.0572
  191MOL     C926989   3.694   5.724   3.591  0.4156 -0.1506  0.3090
  191MOL    C1026990   3.693   5.580   3.651 -0.1742 -0.6959 -0.2094
  191MOL    C1126991   3.724   5.485   3.543  0.4368  0.5412 -0.3723
  191MOL    N1226992   3.752   5.414   3.455 -0.8511 -0.6101  0.1866
  191MOL    H1326993   3.781   5.732   3.526 -1.5366  0.0384 -2.3342
  191MOL    H1426994   3.707   5.797   3.671 -0.4144  0.8901 -0.4923
  191MOL    H1526995   3.595   5.549   3.687  0.5243  2.0760  4.5123
  191MOL    C1626996   3.786   5.566   3.780 -0.0192  1.1581 -0.2074
  191MOL    C1726997   3.773   5.663   3.906 -0.4515  0.6733  0.1195
  191MOL    C1826998   3.637   5.663   3.963  0.9436 -0.5308  0.0376
  191MOL    N1926999   3.531   5.666   4.007  0.0252  0.1675 -0.7169
  191MOL    H2027000   3.777   5.469   3.829 -1.8536  2.1335  1.4537
  191MOL    H2127001   3.885   5.586   3.739  0.0085 -0.9593 -1.2278
  191MOL    H2227002   3.776   5.758   3.852  2.6152 -0.0767 -1.1814
  191MOL    C2327003   3.888   5.647   4.003 -0.3502 -0.3093 -0.0422
  191MOL    C2427004   3.923   5.777   4.080 -0.3836 -0.2539  0.1153
  191MOL    C2527005   3.838   5.801   4.198 -0.3025 -0.2573 -0.1343
  191MOL    N2627006   3.769   5.818   4.289  0.4159  0.3477  0.2803
  191MOL    H2727007   3.881   5.560   4.069 -2.6462 -0.1581 -0.0454
  191MOL    H2827008   3.976   5.616   3.947 -0.9055 -0.7215 -0.7026
  191MOL    H2927009   3.909   5.869   4.023 -1.4348 -0.8332 -0.5912
  191MOL    C3027010   4.071   5.804   4.110  0.0060  0.2071  0.6755
  191MOL    C3127011   4.144   5.690   4.190  0.1976  0.6729  0.0816
  191MOL    C3227012   4.200   5.591   4.101  0.1997  0.2121  0.2034
  191MOL    N3327013   4.249   5.508   4.032  0.4915  0.2396  0.0085
  191MOL    H3427014   4.121   5.798   4.013 -1.9543 -2.8503 -0.2335
  191MOL    H3527015   4.085   5.892   4.171  1.2758 -1.0042  2.1802
  191MOL    H3627016   4.082   5.629   4.255 -1.2723  0.0273 -1.9055
  191MOL    C3727017   4.268   5.746   4.271 -0.9551 -0.3667  0.4833
  191MOL    C3827018   4.326   5.655   4.379  0.0888  0.1543 -0.5929
  191MOL    C3927019   4.372   5.518   4.338  0.4276  0.1239 -0.0327
  191MOL    N4027020   4.410   5.415   4.308 -0.2389  0.2845 -0.1816
  191MOL    H4127021   4.359   5.749   4.211  0.5047 -1.4726  2.5783
  191MOL    H4227022   4.248   5.843   4.316  1.2149  0.0274  0.6707
  191MOL    H4327023   4.245   5.648   4.452  0.1508 -1.0613 -0.6232
  191MOL    C4427024   4.439   5.736   4.446 -0.2577  0.0163 -0.2801
  191MOL    C4527025   4.508   5.666   4.567 -0.6304 -0.1878  0.5823
  191MOL    C4627026   4.639   5.724   4.591  0.6330 -0.0351 -0.1926
  191MOL    N4727027   4.741   5.773   4.603  0.6154 -0.2365 -0.1163
  191MOL    H4827028   4.513   5.773   4.375  0.1153 -1.2924 -0.5917
  191MOL    H4927029   4.403   5.834   4.479  0.9001  0.2152  0.4382
  191MOL    H5027030   4.536   5.562   4.549 -0.2821  0.0213 -0.0768
  191MOL    C5127031   4.407   5.656   4.680  0.5775  0.0630 -0.8141
  191MOL    C5227032   4.458   5.605   4.815 -0.1264  0.0049 -0.1819
  191MOL    C5327033   4.534   5.713   4.894 -0.2060  0.2022  0.2574
  191MOL    N5427034   4.589   5.798   4.955 -0.1633 -0.6241 -0.0451
  191MOL    H5527035   4.344   5.743   4.696 -0.9013 -1.3123  1.0744
  191MOL    H5627036   4.328   5.591   4.641  0.0861 -0.2851  0.7230
  191MOL    H5727037   4.529   5.527   4.791  1.9705  1.3303  1.4779
  191MOL    C5827038   4.358   5.535   4.910  0.8181 -0.4183  0.5039
  191MOL    C5927039   4.418   5.445   5.015 -0.6492 -0.5077  0.0368
  191MOL    C6027040   4.478   5.511   5.126  0.5312 -0.1247 -0.4888
  191MOL    N6127041   4.522   5.566   5.215 -0.0128 -0.2023 -0.5124
  191MOL    H6227042   4.288   5.609   4.951  2.5881  0.7930  1.3871
  191MOL    H6327043   4.292   5.477   4.845 -0.5281  0.4151  1.0920
  191MOL    H6427044   4.507   5.406   4.966  0.0553  0.4331  0.5820
  191MOL    C6527045   4.326   5.327   5.059 -0.5959 -0.0735  0.4001
  191MOL    C6627046   4.268   5.239   4.945 -0.3862  0.0457  0.2621
  191MOL    C6727047   4.381   5.184   4.872  0.3395  0.0403 -0.2786
  191MOL    N6827048   4.473   5.146   4.811  0.0123  0.1030  0.6844
  191MOL    H6927049   4.386   5.266   5.127  0.2070  0.3889  0.1127
  191MOL    H7027050   4.236   5.359   5.111  0.0676  2.5566 -0.0157
  191MOL    H7127051   4.218   5.308   4.876  0.2875  1.6247  1.3349
  191MOL    C7227052   4.172   5.133   4.986  0.3487 -0.2757 -0.0380
  191MOL    C7327053   4.102   5.082   4.854 -0.8510  0.4530  0.7234
  191MOL    C7427054   4.183   4.976   4.797  0.3485 -0.5914  0.2506
  191MOL    N7527055   4.249   4.891   4.757  1.0428 -0.1050  0.2872
  191MOL    H7627056   4.219   5.051   5.041  0.8987  0.3270  0.3970
  191MOL    H7727057   4.101   5.180   5.054 -0.0408 -0.7194 -0.1347
  191MOL    H7827058   4.111   5.169   4.789  2.5436  0.9454  1.7684
  191MOL    C7927059   3.957   5.038   4.876 -0.5786 -0.6129  0.0730
  191MOL    C8027060   3.840   5.142   4.869  0.5188 -0.1425 -0.1139
  191MOL    C8127061   3.841   5.232   4.755  0.9015 -0.0885 -0.3664
  191MOL    N8227062   3.852   5.314   4.667  0.0575 -0.0581 -1.1028
  191MOL    H8327063   3.940   4.964   4.798 -0.2980 -0.1519 -0.4363
  191MOL    H8427064   3.949   4.983   4.969  1.7545  1.5289  1.6001
  191MOL    H8527065   3.848   5.200   4.961  1.1958  1.6494 -1.2800
  191MOL    C8627066   3.698   5.061   4.878 -0.0165 -0.0612  0.6125
  191MOL    C8727067   3.684   4.970   5.003 -0.5246 -0.5071  0.3229
  191MOL    C8827068   3.718   5.041   5.130  1.2856 -0.5901 -0.0227
  191MOL    N8927069   3.734   5.102   5.223  0.1083  0.0353 -0.1242
  191MOL    H9027070   3.632   5.147   4.888  1.4206  1.0008  1.1324
  191MOL    H9127071   3.674   4.998   4.793  1.8290 -0.2525  0.2038
  191MOL    H9227072   3.754   4.887   5.000  1.6775  1.2429  1.0821
  191MOL    C9327073   3.548   4.914   5.009 -0.6293  0.2534 -0.2872
  191MOL    C9427074   3.529   4.770   5.068  1.2628  0.5125  0.0784
  191MOL    C9527075   3.568   4.768   5.218 -0.2032 -0.6336  0.3037
  191MOL    N9627076   3.592   4.768   5.330  0.3066  0.1281  0.0677
  191MOL    H9727077   3.493   4.982   5.074  0.4956  0.4854  0.4315
  191MOL    H9827078   3.495   4.931   4.915 -1.5250  0.4483  0.2482
  191MOL    H9927079   3.605   4.706   5.025  0.2046 -1.8541  1.6081
  191MOL   C10027080   3.382   4.731   5.051 -0.0794  0.3466  0.3286
  191MOL   C10127081   3.332   4.721   4.904  0.0193 -0.2145 -0.3157
  191MOL   C10227082   3.425   4.642   4.821 -0.0529 -0.1857  0.2862
  191MOL   N10327083   3.498   4.578   4.753  0.5250  0.0762 -0.2901
  191MOL   H10427084   3.370   4.632   5.095  1.5232  0.0829  0.1974
  191MOL   H10527085   3.315   4.800   5.102  0.7568  1.1409  0.3645
  191MOL   H10627086   3.348   4.823   4.867  0.8122 -0.2122  0.0430
  191MOL   C10727087   3.185   4.683   4.894  0.1210  0.4704  0.3258
  191MOL   C10827088   3.152   4.593   4.776  1.0484 -0.1455 -0.2389
  191MOL   C10927089   3.026   4.525   4.802 -0.4085 -0.1413 -1.0354
  191MOL   N11027090   2.928   4.469   4.827  0.7828  0.0247 -0.0767
  191MOL   H11127091   3.157   4.615   4.975 -2.3801 -0.7682 -1.5299
  191MOL   H11227092   3.128   4.775   4.891 -1.9228 -0.7223  1.4632
  191MOL   H11327093   3.226   4.514   4.766  0.8063 -0.2584 -1.1879
  191MOL   C11427094   3.134   4.666   4.640  0.5859 -0.6059  0.9208
  191MOL   C11527095   3.168   4.587   4.510  0.2019 -0.3000  0.5210
  191MOL   C11627096   3.118   4.448   4.521 -0.2999 -0.0479  0.1018
  191MOL   N11727097   3.075   4.345   4.526  0.2024 -0.3579 -0.0641
  191MOL   H11827098   3.028   4.689   4.631  0.2447 -2.0936  0.9550
  191MOL   H11927099   3.191   4.758   4.631 -1.2415  0.3590 -1.2348
  191MOL   H12027100   3.276   4.574   4.511  0.6675  2.7707 -1.6908
  191MOL   C12127101   3.106   4.650   4.383  0.2562  0.3605  0.4472
  191MOL   C12227102   3.148   4.590   4.242 -0.2672  0.0293 -0.2769
  191MOL   C12327103   3.094   4.450   4.223  0.3314 -0.3087 -0.0666
  191MOL   N12427104   3.054   4.344   4.210  0.3584  0.2320 -0.1316
  191MOL   H12527105   2.999   4.643   4.397  0.4935 -3.6009  0.9199
  191MOL   H12627106   3.138   4.754   4.379 -3.3146  1.4488 -1.8182
  191MOL   H12727107   3.256   4.583   4.256  0.0749  0.7276 -2.3732
  191MOL   C12827108   3.107   4.683   4.127  1.2412 -0.5484 -0.6390
  191MOL   C12927109   2.974   4.659   4.051 -0.6458 -0.6042  0.0749
  191MOL   C13027110   2.851   4.656   4.131 -0.5699  0.8833 -0.5671
  191MOL   N13127111   2.759   4.646   4.197  0.0932  0.0121 -0.0668
  191MOL   H13227112   3.102   4.786   4.163  1.9145 -0.9651  0.6737
  191MOL   H13327113   3.194   4.686   4.062  0.4699  0.5242 -1.6518
  191MOL   H13427114   2.982   4.567   3.994  0.4398 -0.5065  0.0590
  191MOL   C13527115   2.959   4.765   3.943 -0.2851 -0.3467  0.2037
  191MOL   C13627116   3.044   4.744   3.821 -0.7347 -0.2652  0.1396
  191MOL   C13727117   3.041   4.847   3.725  0.2105 -0.8814  0.2630
  191MOL   N13827118   3.048   4.927   3.644 -0.5267 -0.0002  0.3427
  191MOL   H13927119   2.855   4.756   3.909 -0.8308 -0.2597  1.8231
  191MOL   H14027120   2.960   4.855   4.003 -0.6515 -0.4144  0.3153
  191MOL   H14127121   3.012   4.654   3.769  2.3487 -1.3376 -0.0456
  191MOL   H14227122   3.147   4.727   3.854  0.2386 -0.2387 -2.6995
  192MOL     C127123   1.216   7.799   7.198 -0.3377 -0.0151  0.0374
  192MOL     C227124   1.314   7.704   7.274  0.2145  0.0253 -0.2657
  192MOL     C327125   1.455   7.762   7.268  0.5140  0.2359 -0.3405
  192MOL     N427126   1.564   7.808   7.257  0.3275 -0.3970  0.4329
  192MOL     H527127   1.112   7.768   7.189 -0.1809 -0.0058 -2.1096
  192MOL     H627128   1.249   7.813   7.095  0.1514  1.7295  0.4030
  192MOL     H727129   1.332   7.614   7.215  0.1189 -0.3555  0.2819
  192MOL     H827130   1.223   7.898   7.244 -3.5232  0.4183 -0.3002
  192MOL     C927131   1.255   7.654   7.406 -0.1232  0.3927  0.5963
  192MOL    C1027132   1.274   7.738   7.530  0.5548  0.4219 -0.5373
  192MOL    C1127133   1.411   7.733   7.577  0.0960  0.0123 -0.2430
  192MOL    N1227134   1.521   7.729   7.615  0.4384  0.0398  0.1456
  192MOL    H1327135   1.148   7.648   7.390  0.1345  0.4940 -1.2865
  192MOL    H1427136   1.283   7.553   7.434 -2.1966  0.1240  1.7943
  192MOL    H1527137   1.230   7.681   7.612  2.1244  0.6443  0.4823
  192MOL    C1627138   1.220   7.871   7.512  0.4490 -0.1536  0.0585
  192MOL    C1727139   1.188   7.943   7.640  0.5313  0.0576  0.5727
  192MOL    C1827140   1.168   8.089   7.619 -0.5162  0.1902  0.1896
  192MOL    N1927141   1.152   8.198   7.609  0.0308  0.1790 -0.1079
  192MOL    H2027142   1.296   7.929   7.458 -1.0535  1.9968  0.1864
  192MOL    H2127143   1.132   7.875   7.449 -1.1776  2.0109  2.3635
  192MOL    H2227144   1.267   7.912   7.709  0.0951  0.3145  1.1883
  192MOL    C2327145   1.066   7.890   7.713  0.2511 -0.5690 -0.3434
  192MOL    C2427146   1.049   7.923   7.863 -0.0079 -0.6226 -0.0879
  192MOL    C2527147   1.157   7.997   7.932  0.2369  0.1081 -0.1401
  192MOL    N2627148   1.244   8.053   7.985  0.0981  0.6989 -0.5270
  192MOL    H2727149   0.975   7.916   7.658 -0.3289 -3.3982 -0.8358
  192MOL    H2827150   1.080   7.782   7.707  2.0409 -0.2819 -1.7858
  192MOL    H2927151   1.046   7.822   7.903  0.3166 -0.7759 -0.4524
  192MOL    C3027152   0.909   7.995   7.892  0.0157 -0.2344 -0.4281
  192MOL    C3127153   0.844   7.971   8.035 -0.1451 -0.0421  0.3339
  192MOL    C3227154   0.945   7.972   8.146  0.8071 -0.3406  0.0762
  192MOL    N3327155   1.017   7.983   8.236 -0.3962  0.1658 -0.1421
  192MOL    H3427156   0.923   8.103   7.881  1.1181 -0.3726 -0.3996
  192MOL    H3527157   0.837   7.959   7.820 -0.5335 -0.4248  0.2085
  192MOL    H3627158   0.810   7.867   8.039  0.6855 -0.2884  1.1945
  192MOL    C3727159   0.725   8.065   8.077  0.7483 -0.1175  0.4412
  192MOL    C3827160   0.616   8.010   8.179 -0.3699  0.0163 -0.3625
  192MOL    C3927161   0.678   7.943   8.292  0.0116  0.0800  0.1573
  192MOL    N4027162   0.727   7.891   0.071  0.7888  0.2977 -0.3725
  192MOL    H4127163   0.775   8.151   8.121  1.0392 -0.0043 -0.1088
  192MOL    H4227164   0.664   8.098   7.993 -3.6626  0.3505  3.6218
  192MOL    H4327165   0.567   7.923   8.134  1.3919  0.7509 -3.8727
  192MOL    C4427166   0.520   8.109   8.247 -0.5172 -0.4403 -0.4814
  192MOL    C4527167   0.567   8.197   0.056  0.7976 -0.2857 -0.9960
  192MOL    C4627168   0.673   8.290   0.016  0.3835  0.3734  0.4537
  192MOL    N4727169   0.762   0.048   8.300 -0.0854 -0.2499 -0.3881
  192MOL    H4827170   0.488   8.188   8.179  0.6695  0.8455  0.4202
  192MOL    H4927171   0.431   8.055   8.281 -0.8821 -0.8219 -1.9921
  192MOL    H5027172   0.596   8.122   0.130  1.9935  0.6098 -0.5471
  192MOL    C5127173   0.440   8.265   0.113  0.2906  0.1327 -0.0409
  192MOL    C5227174   0.453   0.031   0.244  0.2960  0.9723  0.1251
  192MOL    C5327175   0.553   0.136   0.234 -0.8561 -0.3417 -0.4971
  192MOL    N5427176   0.633   0.220   0.228  0.2613  0.4569  0.0275
  192MOL    H5527177   0.413   0.030   0.041 -0.2183 -0.3225 -0.3374
  192MOL    H5627178   0.357   8.195   0.124  0.3347  0.2378  0.9303
  192MOL    H5727179   0.487   8.276   0.322  1.0685 -2.2839 -2.8950
  192MOL    C5827180   0.315   0.085   0.291  0.2119  0.2004 -0.3029
  192MOL    C5927181   0.306   0.112   0.441 -0.3052 -0.6314 -0.6871
  192MOL    C6027182   0.331   8.302   0.521  0.1813  0.3320  0.0044
  192MOL    N6127183   0.363   8.209   0.584  0.0306  0.0637  0.0521
  192MOL    H6227184   0.288   0.178   0.243  1.2410  1.2868  1.1795
  192MOL    H6327185   0.239   0.009   0.272  0.9808 -0.6786  0.1075
  192MOL    H6427186   0.200   0.124   0.465  0.2218 -1.1586  2.0898
  192MOL    C6527187   0.388   0.229   0.503 -0.2134 -1.3263  0.5718
  192MOL    C6627188   0.377   0.364   0.448 -0.4032 -0.2143 -0.6694
  192MOL    C6727189   0.236   0.386   0.405 -0.5525 -0.3709  0.5963
  192MOL    N6827190   0.127   0.397   0.374 -0.1533  0.3016  0.2225
  192MOL    H6927191   0.348   0.238   0.603 -1.4615 -0.0008 -0.0249
  192MOL    H7027192   0.489   0.194   0.526  0.1605  1.2799  3.1132
  192MOL    H7127193   0.432   0.358   0.354  2.1251  1.0441  0.6972
  192MOL    C7227194   0.442   0.486   0.528 -0.1538  0.2883  0.5960
  192MOL    C7327195   0.337   0.577   0.583 -0.2151  0.3110 -0.0204
  192MOL    C7427196   0.279   0.524   0.709  0.6005 -0.5413 -0.3711
  192MOL    N7527197   0.229   0.478   0.806 -0.3451  0.4714  0.3479
  192MOL    H7627198   0.512   0.442   0.599  1.3059 -1.3638 -1.7807
  192MOL    H7727199   0.505   0.543   0.460  1.5324  0.1892  2.0730
  192MOL    H7827200   0.257   0.588   0.510  1.0973  1.4311 -1.3182
  192MOL    C7927201   0.377   0.722   0.603  0.1959  0.3123  0.4194
  192MOL    C8027202   0.268   0.830   0.607 -0.6754  0.0290  0.5178
  192MOL    C8127203   0.169   0.797   0.715 -0.0157 -0.0861 -0.1419
  192MOL    N8227204   0.092   0.773   0.797 -0.0285  0.0376 -0.3262
  192MOL    H8327205   0.433   0.726   0.697 -1.0090  2.0897  1.0838
  192MOL    H8427206   0.452   0.746   0.527 -1.3095  1.0591 -0.8494
  192MOL    H8527207   0.216   0.831   0.512 -2.1555 -0.3631  1.3008
  192MOL    C8627208   0.331   0.965   0.631  0.9514  0.3589 -0.1594
  192MOL    C8727209   0.396   1.035   0.513  0.1589  0.2433 -0.5234
  192MOL    C8827210   0.312   1.039   0.393 -0.1949  0.3375 -0.4675
  192MOL    N8927211   0.248   1.037   0.292 -0.5073  0.2273  0.0717
  192MOL    H9027212   0.258   1.042   0.657 -0.3698 -0.7382 -0.5374
  192MOL    H9127213   0.390   0.967   0.722  1.3723 -1.0110 -0.3949
  192MOL    H9227214   0.480   0.972   0.486 -1.8459 -2.0742 -1.5509
  192MOL    C9327215   0.431   1.186   0.539 -0.5317  0.1407  0.3837
  192MOL    C9427216   0.509   1.274   0.443 -0.0704  0.5579  0.9068
  192MOL    C9527217   0.437   1.318   0.320  0.5991  0.3222 -0.1682
  192MOL    N9627218   0.378   1.357   0.229 -0.4542 -0.4097 -0.4212
  192MOL    H9727219   0.336   1.236   0.554 -1.5462 -1.2647 -1.1611
  192MOL    H9827220   0.491   1.183   0.630  1.8530  3.0450 -0.9972
  192MOL    H9927221   0.590   1.221   0.393 -2.1410  1.2483 -3.4253
  192MOL   C10027222   0.562   1.394   0.514 -0.7600  0.3794  0.0220
  192MOL   C10127223   0.640   1.495   0.420  0.1552  0.5273  0.8832
  192MOL   C10227224   0.599   1.629   0.459  0.2747  0.1477  0.0475
  192MOL   N10327225   0.558   1.734   0.488  0.0809  0.9712  0.1065
  192MOL   H10427226   0.478   1.448   0.559 -0.9057 -0.8416  1.2250
  192MOL   H10527227   0.629   1.359   0.593 -0.5108  2.0707  0.5760
  192MOL   H10627228   0.619   1.467   0.317 -0.0970 -1.1835  1.3862
  192MOL   C10727229   0.800   1.474   0.433 -0.3895 -0.4197  0.2415
  192MOL   C10827230   0.881   1.593   0.397 -0.8863  0.0824 -0.9567
  192MOL   C10927231   0.859   1.643   0.261  0.0791  0.5902  0.2607
  192MOL   N11027232   0.837   1.681   0.152 -0.3708 -0.4419 -0.5099
  192MOL   H11127233   0.830   1.434   0.530 -0.3825 -0.2314  0.3176
  192MOL   H11227234   0.815   1.381   0.377  0.6430  0.3067 -0.7103
  192MOL   H11327235   0.979   1.545   0.393 -1.9691 -2.2533 -0.2409
  192MOL   C11427236   0.886   1.706   0.507  0.0539  0.1217 -0.0680
  192MOL   C11527237   0.983   1.690   0.626 -0.1520  0.2742  0.4402
  192MOL   C11627238   1.115   1.661   0.581 -0.0961 -1.0168  0.2857
  192MOL   N11727239   1.215   1.630   0.536  0.2147 -0.1502 -0.1110
  192MOL   H11827240   0.890   1.803   0.457 -0.2049  0.3830  0.4201
  192MOL   H11927241   0.790   1.713   0.559 -0.8603 -0.5694 -1.6099
  192MOL   H12027242   0.946   1.602   0.679 -0.9109  1.0002  1.1153
  192MOL   C12127243   0.988   1.820   0.713  0.6857  0.2372  0.4525
  192MOL   C12227244   0.850   1.872   0.769  0.6754 -0.7544  0.0677
  192MOL   C12327245   0.765   1.762   0.832 -0.7569 -0.1512  0.0059
  192MOL   N12427246   0.706   1.672   0.880  0.5848  0.0460  0.7459
  192MOL   H12527247   1.058   1.808   0.796 -0.1757 -1.7251  0.9276
  192MOL   H12627248   1.027   1.904   0.655 -1.4738  1.9783  1.4681
  192MOL   H12727249   0.787   1.912   0.689 -1.3255  1.2326  2.5501
  192MOL   C12827250   0.864   1.984   0.874 -0.5184  0.4147  0.4043
  192MOL   C12927251   0.928   2.115   0.823 -0.1547 -0.0058  0.3651
  192MOL   C13027252   0.865   2.164   0.700  0.9340  0.8112  0.2251
  192MOL   N13127253   0.812   2.207   0.607 -0.5692 -0.0566 -0.2376
  192MOL   H13227254   0.769   2.009   0.920 -0.0341  0.3798  1.4325
  192MOL   H13327255   0.918   1.944   0.960  0.8790  0.1489 -0.5661
  192MOL   H13427256   1.031   2.092   0.796  0.0950  0.8247  0.6161
  192MOL   C13527257   0.913   2.222   0.931 -0.0403  0.6571 -0.1556
  192MOL   C13627258   0.972   2.360   0.895 -0.0304  0.3214  0.2300
  192MOL   C13727259   0.937   2.456   1.000 -0.6031 -0.0000 -0.2266
  192MOL   N13827260   0.902   2.529   1.085  0.2369  0.0138  0.0541
  192MOL   H13927261   0.809   2.238   0.960 -0.6157 -1.9690 -0.7076
  192MOL   H14027262   0.971   2.183   1.014  0.4907 -1.5527 -1.5328
  192MOL   H14127263   0.934   2.398   0.800  0.4059  0.0297 -0.0647
  192MOL   H14227264   1.081   2.363   0.899  0.1711 -0.8438 -2.8899
  193MOL     C127265   7.486   4.631   3.067 -0.0387  0.0756  0.5191
  193MOL     C227266   7.425   4.673   2.935  0.3244  0.3362  0.6915
  193MOL     C327267   7.521   4.772   2.880  0.0592 -0.1797  0.0809
  193MOL     N427268   7.596   4.846   2.832 -0.2930  0.4153 -0.1785
  193MOL     H527269   7.498   4.723   3.124  0.7765 -0.6323  1.5216
  193MOL     H627270   7.586   4.592   3.050 -0.3660 -0.5858  0.1029
  193MOL     H727271   7.336   4.734   2.948 -0.3799 -0.6440  0.5625
  193MOL     H827272   7.425   4.560   3.124 -0.3147 -1.2770 -1.4336
  193MOL     C927273   7.395   4.556   2.844 -0.2036 -0.4750 -0.5501
  193MOL    C1027274   7.270   4.470   2.884 -0.1060 -0.1280  0.5883
  193MOL    C1127275   7.155   4.551   2.873  0.7479 -1.4519  0.0891
  193MOL    N1227276   7.061   4.618   2.856  0.4174 -0.3823 -0.5300
  193MOL    H1327277   7.383   4.602   2.746  1.6133  2.5390  0.5728
  193MOL    H1427278   7.481   4.490   2.847  0.1363 -0.0700 -1.2664
  193MOL    H1527279   7.283   4.434   2.986  0.5813 -0.2733  0.4571
  193MOL    C1627280   7.252   4.347   2.782  0.1563 -0.4453 -0.3999
  193MOL    C1727281   7.176   4.236   2.850  0.3128 -0.0969  0.0602
  193MOL    C1827282   7.103   4.149   2.759 -0.1443  0.0236 -0.9972
  193MOL    N1927283   7.045   4.079   2.691 -0.4949  0.3417  0.0578
  193MOL    H2027284   7.187   4.371   2.697  1.3278 -0.8812 -1.4268
  193MOL    H2127285   7.347   4.312   2.742  0.1766 -1.3297  0.4188
  193MOL    H2227286   7.091   4.274   2.906 -0.5227 -1.4967 -0.2240
  193MOL    C2327287   7.278   4.159   2.940  0.2583  0.1908 -0.0372
  193MOL    C2427288   7.220   4.036   3.011 -0.1478  0.2692  0.2778
  193MOL    C2527289   7.240   3.920   2.928  0.4386 -0.2395 -0.3228
  193MOL    N2627290   7.249   3.827   2.865  0.2133  0.2088 -0.7546
  193MOL    H2727291   7.367   4.126   2.886  0.4057 -0.8514  0.8219
  193MOL    H2827292   7.318   4.227   3.015  1.2467  0.4962 -0.8422
  193MOL    H2927293   7.113   4.033   3.034 -0.2513  0.0297 -0.2315
  193MOL    C3027294   7.285   4.020   3.155  0.5708  0.3498  0.0180
  193MOL    C3127295   7.219   4.096   3.275 -0.1795 -0.6642  0.1735
  193MOL    C3227296   7.069   4.075   3.271  0.1417  0.2689 -0.1257
  193MOL    N3327297   6.953   4.055   3.269 -0.3467 -0.0228 -0.6262
  193MOL    H3427298   7.273   3.914   3.178  0.7272 -0.5361 -3.6751
  193MOL    H3527299   7.393   4.038   3.156  0.6399  0.2978  4.5360
  193MOL    H3627300   7.224   4.201   3.245  2.6048 -0.8337 -0.1150
  193MOL    C3727301   7.289   4.090   3.407  0.9452 -0.0742 -0.0985
  193MOL    C3827302   7.292   4.224   3.481 -0.7157  0.2213 -0.0359
  193MOL    C3927303   7.169   4.303   3.490  0.2982  0.0997 -0.4259
  193MOL    N4027304   7.070   4.364   3.493 -0.2081 -0.1172 -0.6105
  193MOL    H4127305   7.249   4.009   3.469  1.5230 -1.2210 -1.2153
  193MOL    H4227306   7.389   4.050   3.390  0.2101 -1.5722 -1.0030
  193MOL    H4327307   7.359   4.294   3.431 -1.7070 -0.1891 -1.9647
  193MOL    C4427308   7.381   4.208   3.612 -0.0019 -0.3735  0.2541
  193MOL    C4527309   7.422   4.328   3.696 -0.2817 -0.4944 -0.0904
  193MOL    C4627310   7.310   4.385   3.766  0.5587  0.7028  0.3520
  193MOL    N4727311   7.216   4.425   3.818 -0.0513  0.2568  0.8734
  193MOL    H4827312   7.336   4.137   3.680  0.3331 -0.4432  0.4070
  193MOL    H4927313   7.469   4.152   3.579  1.3338 -0.2171  3.4188
  193MOL    H5027314   7.445   4.414   3.633 -3.0411 -0.7282 -1.4918
  193MOL    C5127315   7.537   4.302   3.793 -0.0493  0.4468 -0.2182
  193MOL    C5227316   7.592   4.415   3.877 -0.0074 -0.1365 -0.1905
  193MOL    C5327317   7.697   4.360   3.970 -0.4776  0.2048  0.1972
  193MOL    N5427318   7.781   4.322   4.038  0.6461 -0.7431 -0.5561
  193MOL    H5527319   7.495   4.232   3.866  0.1911  0.1989 -0.3163
  193MOL    H5627320   7.614   4.240   3.746  0.0102 -0.0713  0.5493
  193MOL    H5727321   7.506   4.450   3.934 -0.6333 -1.0399 -0.5539
  193MOL    C5827322   7.642   4.533   3.797 -0.0732 -1.2203  0.4448
  193MOL    C5927323   7.770   4.522   3.703 -0.2233 -0.0618  0.3550
  193MOL    C6027324   7.754   4.418   3.606  0.2780 -0.9655  0.2576
  193MOL    N6127325   7.740   4.334   3.530  0.1584 -0.4154 -0.3901
  193MOL    H6227326   7.555   4.580   3.750  1.2254  2.8522  1.9330
  193MOL    H6327327   7.683   4.603   3.869 -2.9649  0.4439  0.5608
  193MOL    H6427328   7.851   4.490   3.769  0.4398 -1.6185 -1.1645
  193MOL    C6527329   7.800   4.660   3.641  0.5351 -0.5015 -0.0827
  193MOL    C6627330   7.896   4.657   3.523  0.4384 -0.1307 -0.5494
  193MOL    C6727331   7.832   4.631   3.395 -0.6842 -1.0814 -0.4002
  193MOL    N6827332   7.776   4.609   3.295  0.2581 -0.1118 -0.4581
  193MOL    H6927333   7.705   4.695   3.601  0.5674  0.3571  0.5851
  193MOL    H7027334   7.839   4.724   3.721 -0.8877 -0.8345  0.9034
  193MOL    H7127335   7.959   4.569   3.537 -0.2557 -0.5482 -0.0723
  193MOL    C7227336   7.999   4.775   3.529  0.1671  0.6847 -0.8540
  193MOL    C7327337   7.944   4.919   3.498  0.5919  0.9508  0.4694
  193MOL    C7427338   7.838   4.957   3.588  0.5469 -0.2641  0.2352
  193MOL    N7527339   7.749   4.995   3.654  0.2899  0.0827  0.3558
  193MOL    H7627340   8.057   4.767   3.621  0.0204 -2.7612 -1.0151
  193MOL    H7727341   8.075   4.750   3.454  1.8665  2.2981  0.2979
  193MOL    H7827342   7.896   4.914   3.400  4.8201 -2.1695 -1.6570
  193MOL    C7927343   8.062   5.020   3.478 -0.2865  0.3113  0.1120
  193MOL    C8027344   8.028   5.169   3.447 -0.2067  0.2253  0.4847
  193MOL    C8127345   7.946   5.244   3.543  0.4875  0.2379  0.1707
  193MOL    N8227346   7.885   5.299   3.622 -0.8533 -0.3689  0.4861
  193MOL    H8327347   8.119   5.022   3.571 -1.0687  0.5432  0.5848
  193MOL    H8427348   8.128   4.977   3.402 -0.7479 -2.3404  1.1804
  193MOL    H8527349   7.966   5.164   3.357  0.1611  3.8916 -0.0496
  193MOL    C8627350   8.153   5.247   3.401  0.3088 -0.1986 -0.6358
  193MOL    C8727351   8.200   5.346   3.508  0.1128 -0.6534 -0.6513
  193MOL    C8827352   8.199   5.294   3.647  0.1670 -0.1315 -0.1798
  193MOL    N8927353   8.203   5.254   3.756  0.2235 -0.0157 -0.7510
  193MOL    H9027354   8.231   5.188   3.354 -0.1204 -0.9685 -0.3854
  193MOL    H9127355   8.112   5.301   3.316 -1.1155  1.1575  0.8403
  193MOL    H9227356   8.141   5.437   3.521 -1.3380 -1.5752 -0.6552
  193MOL    C9327357   0.010   5.420   3.461 -0.2154 -0.4031  0.2397
  193MOL    C9427358   0.001   5.491   3.331 -0.1049 -0.0525 -0.1308
  193MOL    C9527359   8.209   5.594   3.321  0.1587  0.4135  0.1588
  193MOL    N9627360   8.130   5.673   3.309  0.1962  0.1219  0.5735
  193MOL    H9727361   0.051   5.490   3.535  1.6099 -1.6599  0.4659
  193MOL    H9827362   0.089   5.346   3.444  0.5028 -0.0579  1.8656
  193MOL    H9927363   8.287   5.419   3.253 -1.7543  0.3739  0.0116
  193MOL   C10027364   0.137   5.549   3.290  0.4915 -0.4323 -0.3595
  193MOL   C10127365   0.137   5.664   3.190 -0.0799 -0.6301  0.2699
  193MOL   C10227366   0.266   5.723   3.166 -0.1200  0.1733  0.5392
  193MOL   N10327367   0.362   5.778   3.141  0.4948  0.1440  0.1110
  193MOL   H10427368   0.188   5.592   3.376 -0.3028 -0.8622  0.3247
  193MOL   H10527369   0.213   5.475   3.262  0.5968 -0.4000 -0.1574
  193MOL   H10627370   0.078   5.749   3.225 -0.4207 -0.9972  0.5851
  193MOL   C10727371   0.073   5.636   3.050 -0.0350  0.6135 -0.4462
  193MOL   C10827372   0.127   5.516   2.968  0.0799  0.2353  0.6296
  193MOL   C10927373   0.104   5.388   3.030 -0.2266  0.0330 -0.6680
  193MOL   N11027374   0.082   5.285   3.078  0.1335 -0.0489  0.2899
  193MOL   H11127375   8.278   5.622   3.050  0.1569 -0.9834  0.6379
  193MOL   H11227376   0.076   5.725   2.987 -2.1415  0.0349 -1.4078
  193MOL   H11327377   0.233   5.541   2.958  0.0611 -0.1829 -0.8230
  193MOL   C11427378   0.064   5.505   2.824 -0.3913  0.0401 -0.1829
  193MOL   C11527379   0.102   5.379   2.753 -0.1298  0.2931  0.0849
  193MOL   C11627380   0.001   5.275   2.774 -0.7162 -0.1589  0.0528
  193MOL   N11727381   8.237   5.189   2.792  0.3252  0.6306  0.7516
  193MOL   H11827382   8.268   5.506   2.836 -0.3406 -2.6360  0.6359
  193MOL   H11927383   0.096   5.585   2.757  1.2798 -1.0114 -0.6589
  193MOL   H12027384   0.188   5.342   2.808  0.9146 -1.5362 -2.6807
  193MOL   C12127385   0.131   5.390   2.600  0.1173 -0.2008 -0.5948
  193MOL   C12227386   0.168   5.253   2.532 -0.7314  0.6193 -0.0849
  193MOL   C12327387   0.176   5.268   2.389  0.9829  0.2083 -0.5712
  193MOL   N12427388   0.188   5.279   2.278 -0.5886 -0.3671  0.1366
  193MOL   H12527389   0.048   5.432   2.544 -0.7276 -2.3181 -0.9972
  193MOL   H12627390   0.218   5.455   2.596  0.1326 -0.0726  1.2254
  193MOL   H12727391   0.082   5.191   2.557 -2.2520  3.2181  1.3817
  193MOL   C12827392   0.283   5.188   2.607 -1.0162  0.1963 -0.3193
  193MOL   C12927393   0.340   5.064   2.542  0.9944  0.5007 -0.0614
  193MOL   C13027394   0.475   5.055   2.592 -0.1088 -0.5339 -0.0390
  193MOL   N13127395   0.586   5.051   2.628  0.6186 -1.1245 -0.3498
  193MOL   H13227396   0.372   5.250   2.603 -1.0817  0.3636  0.6827
  193MOL   H13327397   0.262   5.169   2.712  0.5547  0.0626 -0.0160
  193MOL   H13427398   0.351   5.090   2.437 -1.5177 -2.9162 -1.2475
  193MOL   C13527399   0.256   4.937   2.565 -0.0964 -1.0373 -0.2537
  193MOL   C13627400   0.319   4.813   2.513 -0.3135  0.3793  0.1053
  193MOL   C13727401   0.396   4.832   2.387  0.0164 -0.4356  0.2358
  193MOL   N13827402   0.449   4.845   2.287 -0.2488 -1.0238 -0.0157
  193MOL   H13927403   0.240   4.923   2.672 -1.9379  1.8708 -0.0947
  193MOL   H14027404   0.153   4.955   2.537  0.3880  1.6273 -0.4189
  193MOL   H14127405   0.239   4.748   2.479 -1.4497  1.2164  1.1180
  193MOL   H14227406   0.391   4.778   2.586  0.9751  0.2211 -1.2261
  194MOL     C127407   3.603   5.759   0.438  0.0240 -0.0517  0.5873
  194MOL     C227408   3.750   5.708   0.449 -0.1241  0.3139 -0.4545
  194MOL     C327409   3.826   5.783   0.346 -0.6129 -0.0679  0.0404
  194MOL     N427410   3.883   5.836   0.263 -0.4447 -0.1853 -0.0957
  194MOL     H527411   3.519   5.702   0.476 -1.1901  1.5614  0.3668
  194MOL     H627412   3.569   5.764   0.335 -2.4109 -2.3244  1.2062
  194MOL     H727413   3.752   5.604   0.417  0.6155  0.2849 -0.3369
  194MOL     H827414   3.591   5.861   0.475 -0.8214  0.1340 -0.1753
  194MOL     C927415   3.800   5.723   0.595  0.6126  0.6104  0.0238
  194MOL    C1027416   3.785   5.593   0.680 -0.3598 -0.0942 -0.9214
  194MOL    C1127417   3.856   5.613   0.809 -0.4736 -0.0177  0.1681
  194MOL    N1227418   3.910   5.625   0.908 -0.3188  0.5595  0.2235
  194MOL    H1327419   3.904   5.754   0.594  0.5591  0.8294  0.8659
  194MOL    H1427420   3.747   5.805   0.645  0.8239 -0.6424  2.3909
  194MOL    H1527421   3.831   5.508   0.629  1.7045  0.3526  0.1231
  194MOL    C1627422   3.636   5.561   0.721  0.2295  0.3495 -0.3452
  194MOL    C1727423   3.609   5.415   0.744 -0.2282  0.3570 -0.4448
  194MOL    C1827424   3.685   5.358   0.863 -0.1554 -0.7199  0.8101
  194MOL    N1927425   3.744   5.317   0.954 -0.5502 -0.1965  0.5861
  194MOL    H2027426   3.603   5.630   0.799  3.7922  1.9557 -0.1579
  194MOL    H2127427   3.574   5.588   0.636 -0.1394  0.1188 -0.1491
  194MOL    H2227428   3.651   5.379   0.650 -1.2910 -0.2306 -0.7105
  194MOL    C2327429   3.458   5.381   0.746  0.3163 -0.3558  0.0483
  194MOL    C2427430   3.406   5.233   0.754 -0.5532 -0.2456 -0.1185
  194MOL    C2527431   3.448   5.166   0.626  0.2539  0.1408 -0.7036
  194MOL    N2627432   3.484   5.114   0.533  0.2335  0.3275 -0.0405
  194MOL    H2727433   3.426   5.444   0.829  3.1440  1.0323  0.1360
  194MOL    H2827434   3.421   5.418   0.651  0.9051 -1.4254 -0.6117
  194MOL    H2927435   3.297   5.231   0.743 -0.9276  0.2934  2.9150
  194MOL    C3027436   3.439   5.149   0.879  1.0531  0.2503 -0.7604
  194MOL    C3127437   3.412   4.998   0.885 -0.0623  0.1881  0.1995
  194MOL    C3227438   3.465   4.943   1.014 -0.4313  0.1530 -0.1455
  194MOL    N3327439   3.509   4.903   1.115  0.0597 -0.7094 -0.0809
  194MOL    H3427440   3.546   5.165   0.897  0.9381  0.9216 -0.6838
  194MOL    H3527441   3.398   5.183   0.974 -0.2948  2.2255 -2.0291
  194MOL    H3627442   3.464   4.960   0.797 -2.3087  0.9345 -1.4918
  194MOL    C3727443   3.266   4.956   0.864  0.1149 -0.0253 -0.5541
  194MOL    C3827444   3.164   5.001   0.976  0.3639  0.3691  0.3359
  194MOL    C3927445   3.143   5.149   0.970 -0.6596  0.4233 -0.4398
  194MOL    N4027446   3.122   5.264   0.957 -0.3844  0.6438  0.0752
  194MOL    H4127447   3.234   4.991   0.767  0.1651 -0.0437 -0.5773
  194MOL    H4227448   3.270   4.848   0.847  0.7409 -0.1032  0.0119
  194MOL    H4327449   3.203   4.962   1.070  0.9598 -1.4828 -0.6624
  194MOL    C4427450   3.030   4.929   0.950 -0.7072  0.3124  0.1919
  194MOL    C4527451   2.939   4.935   1.081  0.0835 -0.2500 -1.0424
  194MOL    C4627452   3.015   4.922   1.209  0.1667 -0.5281 -0.3064
  194MOL    N4727453   3.073   4.924   1.309 -0.4175 -0.4749  0.1089
  194MOL    H4827454   2.985   4.983   0.866  0.8457 -1.0591 -1.5526
  194MOL    H4927455   3.041   4.829   0.910 -1.7420 -1.2171  3.5485
  194MOL    H5027456   2.875   4.847   1.085  0.4146 -0.3826  3.0762
  194MOL    C5127457   2.852   5.065   1.091  0.0100 -0.6281 -0.3339
  194MOL    C5227458   2.766   5.103   1.208  0.2809  0.1424 -0.2631
  194MOL    C5327459   2.700   5.226   1.169  0.0224 -0.3201  0.8277
  194MOL    N5427460   2.658   5.329   1.136  0.1606 -0.1082  0.1730
  194MOL    H5527461   2.905   5.159   1.074  0.5305 -1.0090 -0.8186
  194MOL    H5627462   2.792   5.066   1.000 -4.0313  0.1645  2.2214
  194MOL    H5727463   2.836   5.122   1.289  0.7970  2.9721 -1.3161
  194MOL    C5827464   2.669   4.991   1.255 -0.0121 -0.2233 -0.3512
  194MOL    C5927465   2.538   4.961   1.185 -0.4538 -0.1649 -0.3062
  194MOL    C6027466   2.552   4.951   1.039  0.1402 -0.5378 -0.3463
  194MOL    N6127467   2.559   4.946   0.926 -0.7249  0.1003  0.2617
  194MOL    H6227468   2.723   4.903   1.289  0.6616 -0.6436 -2.4584
  194MOL    H6327469   2.632   5.017   1.355  2.1336  1.5119  0.0538
  194MOL    H6427470   2.487   5.056   1.197 -0.2430  0.0361 -1.0007
  194MOL    C6527471   2.462   4.838   1.242 -0.7556 -0.1200 -0.2253
  194MOL    C6627472   2.303   4.842   1.217 -0.1278 -0.6815  1.3073
  194MOL    C6727473   2.240   4.705   1.221  0.3593  0.1462  0.0759
  194MOL    N6827474   2.191   4.600   1.224  0.3771  0.5337  0.1175
  194MOL    H6927475   2.497   4.752   1.185 -2.5612 -3.4131  3.3737
  194MOL    H7027476   2.489   4.809   1.344  3.2860 -0.1058 -1.2088
  194MOL    H7127477   2.285   4.884   1.118 -0.2469 -0.4055  1.4463
  194MOL    C7227478   2.219   4.926   1.313 -0.3450 -0.8000 -0.1737
  194MOL    C7327479   2.171   4.858   1.448 -0.0396  0.1607 -0.2318
  194MOL    C7427480   2.292   4.829   1.522  0.0758 -0.9535  0.3558
  194MOL    N7527481   2.392   4.811   1.582  0.3636 -0.2778 -0.0047
  194MOL    H7627482   2.278   5.016   1.330 -0.8968 -0.7498  1.6235
  194MOL    H7727483   2.131   4.959   1.260  1.1706  0.7564 -1.7717
  194MOL    H7827484   2.114   4.767   1.426  0.4124 -0.5883  1.6585
  194MOL    C7927485   2.082   4.945   1.543 -0.7997  0.8402  0.4720
  194MOL    C8027486   1.968   5.006   1.469 -0.1896  0.5695  0.1296
  194MOL    C8127487   1.868   4.924   1.406  0.4240  0.6365  0.7211
  194MOL    N8227488   1.783   4.859   1.361 -0.8136 -0.1991  0.5684
  194MOL    H8327489   2.043   4.876   1.618 -0.3422 -2.1611 -1.9233
  194MOL    H8427490   2.151   5.021   1.580  0.0877  1.3575 -2.1263
  194MOL    H8527491   2.006   5.070   1.390  0.2984 -0.6584 -0.6350
  194MOL    C8627492   1.892   5.095   1.566 -0.2745  0.1228  0.0814
  194MOL    C8727493   1.776   5.175   1.493  0.0367 -0.1903 -0.5655
  194MOL    C8827494   1.696   5.231   1.602  0.1032 -1.1864 -0.1657
  194MOL    N8927495   1.636   5.284   1.688  0.4677 -0.8626  0.0984
  194MOL    H9027496   1.844   5.024   1.633 -0.5984 -1.3000 -1.6075
  194MOL    H9127497   1.954   5.173   1.610 -0.7335  1.0938 -0.9667
  194MOL    H9227498   1.715   5.107   1.433  0.6653 -1.1388 -0.1425
  194MOL    C9327499   1.829   5.285   1.391  0.0516  0.9679 -0.4662
  194MOL    C9427500   1.724   5.360   1.304 -0.0423 -0.5217 -0.4182
  194MOL    C9527501   1.600   5.413   1.372  0.1373 -0.4925  0.1287
  194MOL    N9627502   1.503   5.453   1.421  0.2826 -0.2009 -0.6180
  194MOL    H9727503   1.886   5.361   1.445 -1.1097  1.4518  0.0913
  194MOL    H9827504   1.907   5.250   1.323  0.0698  1.8525 -0.9019
  194MOL    H9927505   1.680   5.284   1.240  1.0030 -1.5492  0.0647
  194MOL   C10027506   1.791   5.476   1.230 -0.0603 -0.1362 -0.5200
  194MOL   C10127507   1.862   5.430   1.108  0.8898  0.6380  0.9681
  194MOL   C10227508   1.768   5.369   1.008  0.0541  0.5990 -0.7841
  194MOL   N10327509   1.693   5.327   0.929 -1.0457 -0.0036  0.0536
  194MOL   H10427510   1.727   5.559   1.201 -0.9952 -1.3189 -1.9527
  194MOL   H10527511   1.860   5.521   1.302  0.2581 -0.9449 -0.3119
  194MOL   H10627512   1.928   5.353   1.150 -0.5810 -0.4682  1.3001
  194MOL   C10727513   1.943   5.541   1.037 -0.1528 -0.1765 -0.2595
  194MOL   C10827514   2.069   5.484   0.975 -0.2095  0.3478 -0.2942
  194MOL   C10927515   2.029   5.395   0.870  0.0663 -0.6389 -0.8541
  194MOL   N11027516   1.990   5.330   0.782  0.1568  0.0946  0.1338
  194MOL   H11127517   1.884   5.599   0.966  0.0470 -0.9731 -1.0773
  194MOL   H11227518   1.972   5.610   1.116 -0.1079 -2.1869  1.5081
  194MOL   H11327519   2.122   5.424   1.049 -0.5684  0.7277  0.2757
  194MOL   C11427520   2.164   5.590   0.908 -0.7361  0.8769 -0.6731
  194MOL   C11527521   2.278   5.529   0.825  0.4596 -0.0533  0.0487
  194MOL   C11627522   2.335   5.638   0.748  0.3289  0.4593 -0.7700
  194MOL   N11727523   2.380   5.725   0.684 -0.1577 -0.0532  0.2918
  194MOL   H11827524   2.095   5.643   0.842 -0.2429  0.3423 -1.6207
  194MOL   H11927525   2.203   5.657   0.984  1.8576 -1.1592 -0.1180
  194MOL   H12027526   2.242   5.458   0.750  0.2067 -0.7641  0.8411
  194MOL   C12127527   2.393   5.471   0.917 -0.2246 -0.4789  0.3695
  194MOL   C12227528   2.504   5.390   0.843  0.0719 -0.0583 -0.1944
  194MOL   C12327529   2.449   5.288   0.749  0.2603  0.3843 -0.2219
  194MOL   N12427530   2.408   5.209   0.676  0.5223  0.2193 -0.6000
  194MOL   H12527531   2.433   5.551   0.978  0.8591 -1.5113  1.0147
  194MOL   H12627532   2.346   5.416   0.998 -1.9277  1.7157  0.8994
  194MOL   H12727533   2.556   5.326   0.914 -1.4044 -0.4562  0.5505
  194MOL   C12827534   2.605   5.474   0.763  0.2256  0.8809  0.3162
  194MOL   C12927535   2.744   5.422   0.773  0.0395 -0.3087 -0.7006
  194MOL   C13027536   2.758   5.273   0.740 -0.6062 -0.4902  0.8695
  194MOL   N13127537   2.768   5.165   0.710  0.8099  0.1021 -0.6266
  194MOL   H13227538   2.584   5.489   0.657  3.0219  0.1408 -0.3778
  194MOL   H13327539   2.601   5.573   0.809 -0.5354  1.7757 -1.6329
  194MOL   H13427540   2.766   5.417   0.880  3.8269 -0.0428 -1.3911
  194MOL   C13527541   2.850   5.515   0.712 -0.2484  1.1129 -0.9580
  194MOL   C13627542   2.995   5.470   0.736 -0.0603  0.5720 -0.0538
  194MOL   C13727543   3.038   5.342   0.673  0.5015 -0.3721  0.4788
  194MOL   N13827544   3.066   5.240   0.626  0.1408  0.9014  0.0674
  194MOL   H13927545   2.829   5.524   0.606 -0.6458 -1.1304 -1.0931
  194MOL   H14027546   2.836   5.617   0.748 -0.3090  0.7096  0.2043
  194MOL   H14127547   3.025   5.473   0.840  0.5130  1.2437 -0.2358
  194MOL   H14227548   3.057   5.552   0.698 -0.0024 -0.0343 -1.3098
  195MOL     C127549   6.183   2.838   3.605  0.0014  0.6116 -0.2808
  195MOL     C227550   6.163   2.742   3.715 -0.0097  0.0584  0.0763
  195MOL     C327551   6.141   2.823   3.839 -0.1766  0.5208 -0.7319
  195MOL     N427552   6.122   2.885   3.935 -0.0787 -0.3098 -0.0064
  195MOL     H527553   6.218   2.804   3.507 -1.1275 -1.0737 -0.1002
  195MOL     H627554   6.264   2.906   3.633  1.2749 -0.5802 -0.9890
  195MOL     H727555   6.261   2.694   3.714 -0.3086 -0.5831 -2.3777
  195MOL     H827556   6.091   2.897   3.599  0.6046  1.6881  0.7131
  195MOL     C927557   6.053   2.639   3.698 -0.3747 -0.0913  0.2931
  195MOL    C1027558   6.077   2.493   3.760 -0.0289  0.0566 -0.0815
  195MOL    C1127559   6.146   2.492   3.893  0.1771  0.6361 -0.2863
  195MOL    N1227560   6.197   2.482   4.002 -0.1234  0.6380 -0.8477
  195MOL    H1327561   5.957   2.669   3.742  0.6669  1.0591  1.8183
  195MOL    H1427562   6.048   2.627   3.590  0.8965 -0.5173  0.2789
  195MOL    H1527563   6.153   2.441   3.702  1.2618  2.0422 -0.2301
  195MOL    C1627564   5.948   2.404   3.752  0.1865  0.5070  0.4247
  195MOL    C1727565   5.913   2.372   3.602  0.5791 -0.3748 -0.3185
  195MOL    C1827566   5.874   2.229   3.597 -0.3214  0.2606 -0.4761
  195MOL    N1927567   5.840   2.117   3.600 -1.1741  0.4827 -0.1347
  195MOL    H2027568   5.972   2.308   3.799 -0.2112 -0.8650 -2.0974
  195MOL    H2127569   5.856   2.437   3.800 -1.8033 -3.8382 -0.0774
  195MOL    H2227570   5.998   2.369   3.534  1.6077  0.9956  0.8922
  195MOL    C2327571   5.803   2.461   3.533 -0.3992 -0.4266 -0.1556
  195MOL    C2427572   5.658   2.444   3.590 -0.5101 -0.1461  0.4220
  195MOL    C2527573   5.651   2.500   3.727  0.1127 -0.0477  0.0699
  195MOL    N2627574   5.642   2.547   3.834 -0.1175 -0.0242  0.2714
  195MOL    H2727575   5.830   2.565   3.550  0.3879 -0.8761  1.3672
  195MOL    H2827576   5.814   2.454   3.425  1.2899 -2.7806  0.1432
  195MOL    H2927577   5.637   2.338   3.607  0.4679 -0.5285 -0.6120
  195MOL    C3027578   5.537   2.487   3.501  0.3328 -0.1624 -0.3530
  195MOL    C3127579   5.511   2.634   3.508  0.3421  0.1174  0.9046
  195MOL    C3227580   5.626   2.708   3.453 -0.4936 -0.4568  0.5637
  195MOL    N3327581   5.715   2.766   3.409  0.0471 -0.0691  0.3317
  195MOL    H3427582   5.553   2.437   3.405 -1.1925  1.1432 -1.3095
  195MOL    H3527583   5.444   2.440   3.535 -0.2873  1.6643  0.5054
  195MOL    H3627584   5.516   2.662   3.613 -1.7728 -0.9366  1.2944
  195MOL    C3727585   5.375   2.675   3.440  0.6334 -0.1816 -0.6266
  195MOL    C3827586   5.365   2.680   3.284  0.6871 -0.5873  0.2438
  195MOL    C3927587   5.400   2.545   3.235 -0.6256 -0.3151 -0.2143
  195MOL    N4027588   5.422   2.440   3.198  1.1527  0.3486  0.6083
  195MOL    H4127589   5.291   2.616   3.478  0.0564 -0.3501 -2.1321
  195MOL    H4227590   5.363   2.775   3.482  2.2846 -0.1518 -0.2240
  195MOL    H4327591   5.448   2.742   3.250 -0.9178  1.1806 -0.5036
  195MOL    C4427592   5.234   2.742   3.230  0.0378 -0.0378 -0.2983
  195MOL    C4527593   5.208   2.714   3.077 -0.0639 -0.8030 -0.2470
  195MOL    C4627594   5.080   2.771   3.032 -0.7240 -0.3243  0.2691
  195MOL    N4727595   4.982   2.820   2.994 -0.4553  0.5781 -0.3285
  195MOL    H4827596   5.148   2.704   3.284 -0.6908  1.4744 -0.3614
  195MOL    H4927597   5.241   2.848   3.256  2.3714 -0.6973  1.9488
  195MOL    H5027598   5.180   2.609   3.078 -2.8428 -0.1084  2.0807
  195MOL    C5127599   5.335   2.752   2.994 -0.2382  0.1504 -0.4012
  195MOL    C5227600   5.323   2.752   2.843  0.0348  0.6759  0.1718
  195MOL    C5327601   5.352   2.886   2.789 -0.1108  0.4847  0.2437
  195MOL    N5427602   5.375   2.990   2.743 -0.2033  0.8322  0.6867
  195MOL    H5527603   5.377   2.847   3.027 -1.5363  0.9133 -0.9007
  195MOL    H5627604   5.420   2.686   3.012  0.3841  1.3980  1.3367
  195MOL    H5727605   5.224   2.738   2.799  0.6044 -1.2643 -0.5431
  195MOL    C5827606   5.406   2.650   2.779 -0.3895 -0.1679 -0.1190
  195MOL    C5927607   5.389   2.638   2.620  0.5785 -0.3902 -1.1924
  195MOL    C6027608   5.485   2.732   2.561 -0.4129 -0.0234 -0.5939
  195MOL    N6127609   5.562   2.810   2.520  0.0686  0.2263 -0.2381
  195MOL    H6227610   5.511   2.664   2.804  0.4965 -2.3828 -2.3363
  195MOL    H6327611   5.384   2.546   2.806  0.4425 -0.3292 -0.0688
  195MOL    H6427612   5.286   2.665   2.595  0.2177  0.1040  0.7817
  195MOL    C6527613   5.405   2.491   2.563  0.0299 -0.3135  0.7437
  195MOL    C6627614   5.323   2.483   2.431 -0.3044  0.4146 -0.5895
  195MOL    C6727615   5.378   2.577   2.335  0.2508  0.3586 -0.1855
  195MOL    N6827616   5.418   2.653   2.256  0.4578 -0.7450 -0.3577
  195MOL    H6927617   5.512   2.472   2.560  0.3392  1.5132 -0.6578
  195MOL    H7027618   5.363   2.421   2.635 -1.2801  0.0731  0.3726
  195MOL    H7127619   5.221   2.513   2.452  0.7706  1.7512  3.0882
  195MOL    C7227620   5.336   2.336   2.375  0.7632  0.8453  0.3720
  195MOL    C7327621   5.242   2.292   2.263  0.8476  0.2768 -0.5981
  195MOL    C7427622   5.263   2.347   2.133 -0.0823 -0.8836 -0.0131
  195MOL    N7527623   5.271   2.396   2.029 -0.4148 -0.6060  0.4086
  195MOL    H7627624   5.437   2.302   2.351  0.5134 -0.9896  1.8135
  195MOL    H7727625   5.312   2.269   2.457 -1.3525 -1.8982 -2.3569
  195MOL    H7827626   5.154   2.347   2.296  2.2430  1.9669  0.4171
  195MOL    C7927627   5.211   2.146   2.264 -0.0623  0.1380 -0.1174
  195MOL    C8027628   5.332   2.056   2.255 -0.9121 -0.2876 -0.0438
  195MOL    C8127629   5.297   1.913   2.261  0.3143 -0.3732 -1.0141
  195MOL    N8227630   5.267   1.803   2.260  0.4975  0.2537 -0.0923
  195MOL    H8327631   5.160   2.114   2.355  0.4421 -0.4291 -0.0273
  195MOL    H8427632   5.159   2.124   2.171  1.7361  0.4376 -1.2178
  195MOL    H8527633   5.395   2.082   2.340 -0.2062  0.6776 -0.8462
  195MOL    C8627634   5.421   2.095   2.133  0.0674 -0.2767  0.4548
  195MOL    C8727635   5.556   2.026   2.124 -0.0440  0.3660  0.5668
  195MOL    C8827636   5.595   2.012   1.987 -0.5531 -1.0399  0.4484
  195MOL    N8927637   5.626   2.006   1.877  0.3141  0.4875  0.6384
  195MOL    H9027638   5.364   2.094   2.040  1.7089 -2.4017 -0.5708
  195MOL    H9127639   5.450   2.198   2.152 -0.1394  0.2641 -1.9358
  195MOL    H9227640   5.547   1.920   2.147  0.3975  0.4204  0.9913
  195MOL    C9327641   5.657   2.092   2.214  0.1715  0.2419  0.2954
  195MOL    C9427642   5.763   1.998   2.279 -0.1380 -0.2338  0.4597
  195MOL    C9527643   5.693   1.893   2.362  0.3994  0.2657 -0.0286
  195MOL    N9627644   5.650   1.807   2.431 -0.6654  0.1116 -0.3364
  195MOL    H9727645   5.705   2.170   2.154  2.0003 -0.0768  1.3151
  195MOL    H9827646   5.606   2.142   2.296 -1.1955  1.2658 -1.1385
  195MOL    H9927647   5.822   2.065   2.341 -1.2829  0.2735  1.0235
  195MOL   C10027648   5.858   1.925   2.184 -0.5317 -0.1847  0.0621
  195MOL   C10127649   5.942   2.025   2.105  0.1847  0.4035  0.7405
  195MOL   C10227650   6.009   2.111   2.199  0.1441 -0.0083 -0.2309
  195MOL   N10327651   6.055   2.171   2.285 -0.4386 -0.2059 -0.1508
  195MOL   H10427652   5.928   1.865   2.243 -0.9814 -1.6398 -0.8643
  195MOL   H10527653   5.809   1.856   2.116  1.9263 -1.4796 -0.4295
  195MOL   H10627654   5.875   2.091   2.049 -0.0075 -2.1974 -2.2694
  195MOL   C10727655   6.038   1.950   2.011  0.4268  0.2302 -0.0062
  195MOL   C10827656   6.120   2.041   1.920 -0.2154  0.0438  0.1132
  195MOL   C10927657   6.242   1.976   1.874  0.0587  0.0608 -0.1484
  195MOL   N11027658   6.340   1.926   1.834  0.1217  0.2647 -0.0358
  195MOL   H11127659   6.112   1.888   2.062 -1.1123 -1.5374  0.1493
  195MOL   H11227660   5.967   1.890   1.954 -0.2889  0.4958  0.5994
  195MOL   H11327661   6.166   2.114   1.988  0.4253 -1.5428  1.4085
  195MOL   C11427662   6.049   2.121   1.813 -0.2094 -0.1028 -0.0530
  195MOL   C11527663   6.137   2.205   1.719  0.8269  0.3624 -0.3855
  195MOL   C11627664   6.108   2.173   1.581  0.4884 -0.2197  0.5250
  195MOL   N11727665   6.082   2.152   1.469 -0.0446 -0.3578  0.1501
  195MOL   H11827666   6.010   2.044   1.745  0.8451  2.9664 -4.3572
  195MOL   H11927667   5.965   2.180   1.849 -0.3326  0.2333 -0.8802
  195MOL   H12027668   6.236   2.163   1.735  0.4352 -0.9294 -1.3252
  195MOL   C12127669   6.137   2.353   1.774 -0.2850  0.7452 -0.0336
  195MOL   C12227670   6.233   2.450   1.703 -0.6522  0.0483  0.2882
  195MOL   C12327671   6.260   2.564   1.795  0.6094  0.1969 -0.3318
  195MOL   N12427672   6.277   2.652   1.865  0.0702  0.4316 -0.2230
  195MOL   H12527673   6.035   2.388   1.793 -1.4426 -2.0921 -0.7202
  195MOL   H12627674   6.183   2.329   1.870  1.0149 -1.1989 -1.1233
  195MOL   H12727675   6.191   2.485   1.609 -3.8760 -0.1709  1.5945
  195MOL   C12827676   6.374   2.392   1.676  0.4689 -0.3809  0.0786
  195MOL   C12927677   6.489   2.492   1.636  0.3070  0.1845 -0.5220
  195MOL   C13027678   6.612   2.435   1.688 -0.4205  0.1354 -0.1654
  195MOL   N13127679   6.702   2.392   1.737 -0.6111 -0.2118  0.0208
  195MOL   H13227680   6.405   2.337   1.765  0.6062 -0.3130  0.0718
  195MOL   H13327681   6.350   2.317   1.600 -3.3972  0.5664  0.2299
  195MOL   H13427682   6.469   2.588   1.683 -0.5466 -0.5593  0.6492
  195MOL   C13527683   6.499   2.504   1.481  0.8051 -0.7604  0.1401
  195MOL   C13627684   6.559   2.637   1.430 -0.1678  0.1454  0.6188
  195MOL   C13727685   6.595   2.650   1.284  0.4674  1.0984  0.3156
  195MOL   N13827686   6.620   2.663   1.172  0.4423  0.5861 -0.1419
  195MOL   H13927687   6.558   2.420   1.444  0.2083 -1.2676  0.3278
  195MOL   H14027688   6.400   2.494   1.435  0.4231  3.2321 -0.0870
  195MOL   H14127689   6.636   2.671   1.500 -0.6171  1.6208  0.4030
  195MOL   H14227690   6.482   2.714   1.438  0.8031  0.9567  2.5191
  196MOL     C127691   6.996   7.200   6.692 -0.1596  0.1861  0.3977
  196MOL     C227692   7.140   7.170   6.736  0.0969  0.6246 -1.0944
  196MOL     C327693   7.222   7.154   6.615 -0.6826  0.6774  0.2243
  196MOL     N427694   7.292   7.147   6.518 -0.6588  0.0172 -0.7781
  196MOL     H527695   6.979   7.155   6.594 -0.6459  2.4238 -0.5862
  196MOL     H627696   6.976   7.306   6.678  0.0939  0.2452  0.4696
  196MOL     H727697   7.134   7.071   6.782 -0.8032  0.0954 -2.3070
  196MOL     H827698   6.933   7.153   6.767 -0.8937  1.3265  0.5013
  196MOL     C927699   7.203   7.275   6.836 -0.0497  0.2066  0.5801
  196MOL    C1027700   7.117   7.290   6.970  0.1039 -0.2097 -0.2275
  196MOL    C1127701   7.040   7.165   6.999  0.5363 -0.3067 -0.4559
  196MOL    N1227702   6.989   7.064   7.020 -0.9911 -0.2482  0.2548
  196MOL    H1327703   7.305   7.238   6.847  1.4507  2.6044 -4.2153
  196MOL    H1427704   7.205   7.375   6.793 -0.6207 -0.9941 -2.3629
  196MOL    H1527705   7.038   7.363   6.955  1.3721  0.9211 -1.5343
  196MOL    C1627706   7.218   7.343   7.079 -0.2295 -0.1687 -0.3422
  196MOL    C1727707   7.170   7.310   7.227 -0.1201 -0.4169 -0.4913
  196MOL    C1827708   7.283   7.366   7.310  0.1688 -0.0874 -0.0210
  196MOL    N1927709   7.371   7.408   7.377 -0.0328  0.1233 -0.2540
  196MOL    H2027710   7.321   7.310   7.066 -0.5789 -0.5200 -2.3198
  196MOL    H2127711   7.225   7.451   7.092  0.2315 -0.3970  1.4737
  196MOL    H2227712   7.168   7.204   7.251 -1.2373  0.1122  1.9270
  196MOL    C2327713   7.040   7.379   7.259 -0.9225 -0.2299 -0.9186
  196MOL    C2427714   6.985   7.382   7.404 -0.5272 -0.0417  0.1089
  196MOL    C2527715   6.880   7.489   7.405 -0.6171  0.5758  0.0598
  196MOL    N2627716   6.802   7.573   7.413 -0.3398 -0.5432  0.5396
  196MOL    H2727717   7.056   7.485   7.239 -0.4247  0.2898  1.9394
  196MOL    H2827718   6.962   7.343   7.192  0.2478 -2.5635 -1.0777
  196MOL    H2927719   7.067   7.423   7.464 -0.1585 -0.9128  0.2069
  196MOL    C3027720   6.944   7.243   7.437 -0.2696  0.2305 -0.1415
  196MOL    C3127721   6.902   7.213   7.585 -0.0697  0.5045  0.4396
  196MOL    C3227722   6.796   7.303   7.628  0.1619 -0.6660  0.3080
  196MOL    N3327723   6.709   7.375   7.664 -0.3197 -0.1080 -0.1614
  196MOL    H3427724   6.875   7.207   7.361  0.9444  0.1748 -1.2351
  196MOL    H3527725   7.033   7.183   7.416  0.4161  0.4707  1.9108
  196MOL    H3627726   6.988   7.236   7.648  0.1186 -1.6381  0.9940
  196MOL    C3727727   6.859   7.067   7.606 -0.4406 -0.1140  0.7426
  196MOL    C3827728   6.958   6.953   7.577  0.2172 -0.3580  0.1008
  196MOL    C3927729   7.092   6.968   7.639  0.4434  0.7517  0.1204
  196MOL    N4027730   7.199   6.984   7.681 -0.9488  0.0894 -0.0747
  196MOL    H4127731   6.822   7.066   7.708  1.2975 -2.2529  1.3768
  196MOL    H4227732   6.770   7.051   7.544 -1.5946  1.4182  1.9631
  196MOL    H4327733   6.972   6.943   7.470 -0.5591  1.9125 -0.2286
  196MOL    C4427734   6.903   6.816   7.612 -0.1143  0.3504 -0.3018
  196MOL    C4527735   6.945   6.768   7.758 -0.1690  0.2870 -0.4732
  196MOL    C4627736   6.904   6.862   7.861  0.0640  0.3993  0.4974
  196MOL    N4727737   6.867   6.937   7.947 -0.3948  0.7929  0.5601
  196MOL    H4827738   6.795   6.817   7.607 -0.1421  1.4599  0.4278
  196MOL    H4927739   6.939   6.745   7.538  1.7477 -1.0979  1.9115
  196MOL    H5027740   7.053   6.769   7.774 -0.2631 -1.0832  0.3274
  196MOL    C5127741   6.908   6.625   7.786  0.3236 -0.6418  0.5595
  196MOL    C5227742   6.973   6.521   7.702  0.6175  0.0138 -0.8002
  196MOL    C5327743   7.116   6.550   7.672  0.1054 -0.5827 -1.4250
  196MOL    N5427744   7.223   6.581   7.648 -0.2583  0.0353  0.2358
  196MOL    H5527745   6.935   6.610   7.891  1.9492 -3.6102 -0.2461
  196MOL    H5627746   6.801   6.603   7.789  0.2118 -0.0982  0.7671
  196MOL    H5727747   6.925   6.528   7.604 -0.0311 -1.0021 -0.5652
  196MOL    C5827748   6.950   6.383   7.757  0.2843 -0.2762 -0.2132
  196MOL    C5927749   6.961   6.270   7.644 -0.7256 -0.0914  0.3325
  196MOL    C6027750   7.061   6.296   7.540  0.7797  0.3079  0.3836
  196MOL    N6127751   7.140   6.308   7.460  0.0797  0.5938 -0.3874
  196MOL    H6227752   7.019   6.372   7.840 -0.0190 -0.6479 -0.0111
  196MOL    H6327753   6.846   6.370   7.787  0.4631 -0.4269  0.3404
  196MOL    H6427754   6.869   6.261   7.588 -0.7682  1.4681  0.1314
  196MOL    C6527755   6.982   6.135   7.706  0.0528  0.1939  0.3599
  196MOL    C6627756   6.870   6.106   7.811  0.1724  0.5509  0.6001
  196MOL    C6727757   6.738   6.082   7.748  0.1461  0.7416  0.2446
  196MOL    N6827758   6.630   6.066   7.697 -0.5978  0.2242  0.4465
  196MOL    H6927759   6.986   6.063   7.624  0.8009 -0.3795  0.8918
  196MOL    H7027760   7.077   6.126   7.759  0.0761 -0.5735  0.2008
  196MOL    H7127761   6.864   6.191   7.879 -1.1547  1.3229 -0.4740
  196MOL    C7227762   6.922   5.982   7.893  0.0589 -0.4528  0.0533
  196MOL    C7327763   6.818   5.905   7.982 -0.7182  0.7049 -0.0181
  196MOL    C7427764   6.889   5.805   8.059 -0.0203  0.5727  0.1882
  196MOL    N7527765   6.950   5.726   8.117 -0.4054 -0.1932  0.7775
  196MOL    H7627766   6.988   5.915   7.838  0.4433 -0.6594  0.7599
  196MOL    H7727767   6.994   6.021   7.965 -1.6456  0.9267  1.0501
  196MOL    H7827768   6.764   5.858   7.900  0.8186 -0.8819 -0.1509
  196MOL    C7927769   6.744   6.002   8.080 -0.2344 -0.0968  0.6001
  196MOL    C8027770   6.621   5.934   8.139  0.3762 -0.8189 -0.0046
  196MOL    C8127771   6.555   6.031   8.230  0.4167 -0.3151  0.0803
  196MOL    N8227772   6.503   6.097   8.307  0.3471  0.0128 -0.5308
  196MOL    H8327773   6.814   6.030   8.159  0.3359  1.9000 -0.5842
  196MOL    H8427774   6.707   6.098   8.044 -0.2973  0.0968  1.1797
  196MOL    H8527775   6.649   5.845   8.196  0.8578  0.2129  1.3973
  196MOL    C8627776   6.525   5.898   8.020 -0.2005  0.1359  0.9255
  196MOL    C8727777   6.379   5.853   8.061  0.3382  0.1605 -0.5532
  196MOL    C8827778   6.296   5.966   8.100 -0.4326 -0.0407  1.1133
  196MOL    N8927779   6.238   6.062   8.122 -0.4102 -0.1337 -0.7143
  196MOL    H9027780   6.529   5.981   7.950 -0.8130  0.1190  0.8680
  196MOL    H9127781   6.566   5.817   7.959 -0.7609  3.4377 -4.0589
  196MOL    H9227782   6.387   5.784   8.145  0.3253  1.2962  0.4122
  196MOL    C9327783   6.309   5.765   7.951 -0.1524  0.2824  0.4225
  196MOL    C9427784   6.180   5.698   8.008 -0.9131 -0.3245 -0.2173
  196MOL    C9527785   6.065   5.786   8.018 -0.2878 -0.1453  0.2400
  196MOL    N9627786   5.976   5.855   8.014  0.1031  0.3176 -0.4054
  196MOL    H9727787   6.278   5.832   7.871 -1.5475 -0.7671  0.0744
  196MOL    H9827788   6.375   5.692   7.905  0.2543  1.7172 -1.3221
  196MOL    H9927789   6.220   5.660   8.102 -3.2366 -0.7597  0.6311
  196MOL   C10027790   6.147   5.578   7.911 -0.7751 -0.6263 -0.7512
  196MOL   C10127791   6.088   5.466   7.998 -0.1280  0.0949  0.1481
  196MOL   C10227792   5.989   5.506   8.092  0.5153 -0.2977 -0.2777
  196MOL   N10327793   5.912   5.540   8.167 -0.0092  0.2563 -0.2237
  196MOL   H10427794   6.077   5.599   7.830  1.2255  0.3982 -2.2554
  196MOL   H10527795   6.237   5.533   7.869  0.9199  1.2978  0.6723
  196MOL   H10627796   6.161   5.412   8.057  1.0767  0.5920 -0.8704
  196MOL   C10727797   6.032   5.352   7.900 -0.7655 -0.1493  0.2222
  196MOL   C10827798   5.975   5.230   7.980 -0.4861 -0.4497 -0.0359
  196MOL   C10927799   5.862   5.167   7.910 -0.1510  0.1644  0.0692
  196MOL   N11027800   5.772   5.114   7.853 -0.2417 -0.5737 -0.3482
  196MOL   H11127801   5.945   5.387   7.845 -0.0813  0.5193 -0.4606
  196MOL   H11227802   6.108   5.325   7.826 -0.3607 -1.3812  1.0831
  196MOL   H11327803   5.939   5.260   8.078 -0.4152 -1.7028  0.3813
  196MOL   C11427804   6.097   5.140   7.999 -0.1580  0.6828 -0.8637
  196MOL   C11527805   6.061   5.005   8.066 -0.5805 -0.2521  0.4252
  196MOL   C11627806   6.152   4.902   8.022 -0.0241  0.1314  0.3306
  196MOL   N11727807   6.230   4.817   7.994 -0.2492 -0.2595  0.1489
  196MOL   H11827808   6.142   5.117   7.902  1.6293 -1.7194  0.4946
  196MOL   H11927809   6.174   5.194   8.054  0.0849  1.0404 -1.5481
  196MOL   H12027810   5.962   4.971   8.035  0.3160 -0.6091 -2.1634
  196MOL   C12127811   6.063   5.032   8.220  0.5929 -0.5101 -0.2405
  196MOL   C12227812   6.015   4.922   8.305 -0.1686  0.2232  0.3077
  196MOL   C12327813   6.122   4.821   0.016  0.5260 -0.0325 -0.4296
  196MOL   N12427814   6.206   4.750   0.034  0.1824  0.8256 -1.0149
  196MOL   H12527815   6.169   5.047   8.242  0.6100  0.0419 -0.6852
  196MOL   H12627816   6.017   5.126   8.251  1.8357  0.3190 -0.8783
  196MOL   H12727817   5.929   4.869   8.262 -1.9229  1.6575  1.9829
  196MOL   C12827818   5.965   4.973   0.128 -0.3823 -0.1248  0.4544
  196MOL   C12927819   5.920   4.867   0.226  0.1603  0.3166 -0.3431
  196MOL   C13027820   5.899   4.930   0.358  0.4453 -0.1528 -0.6506
  196MOL   N13127821   5.890   4.987   0.463 -0.1871  0.0308  0.0434
  196MOL   H13227822   6.046   5.027   0.178  1.9862 -1.1367 -2.1624
  196MOL   H13327823   5.886   5.046   0.113  0.7135  1.3141  1.5631
  196MOL   H13427824   6.008   4.809   0.252  0.2303  1.1681  1.3888
  196MOL   C13527825   5.815   4.770   0.179  0.3240 -0.3447  0.5953
  196MOL   C13627826   5.762   4.674   0.286  0.4267 -0.0791  0.5256
  196MOL   C13727827   5.860   4.625   0.382  0.3913  0.5823 -0.7956
  196MOL   N13827828   5.935   4.591   0.461 -0.3798 -0.4302  0.3061
  196MOL   H13927829   5.727   4.817   0.135  1.2707 -1.4632 -2.6341
  196MOL   H14027830   5.862   4.707   0.104 -1.1858 -0.2147 -0.4784
  196MOL   H14127831   5.717   4.589   0.235  2.4001 -1.3857  0.9211
  196MOL   H14227832   5.685   4.718   0.349 -0.5538 -2.1481  0.7961
  197MOL     C127833   2.034   0.060   6.990  0.3912 -0.7666 -0.1646
  197MOL     C227834   2.096   8.241   6.951  0.3159  0.2759 -0.5474
  197MOL     C327835   2.227   8.250   6.884  0.7971  0.2066 -0.3944
  197MOL     N427836   2.326   8.245   6.831 -0.3522  0.2490 -0.3687
  197MOL     H527837   1.989   0.120   6.911  0.9467  0.5026  0.4754
  197MOL     H627838   2.104   0.127   7.038 -0.1999  0.1715 -0.5893
  197MOL     H727839   2.027   8.205   6.875  1.4490  0.5766 -1.7343
  197MOL     H827840   1.958   0.054   7.068  1.2629 -2.4157  0.5936
  197MOL     C927841   2.087   8.140   7.071  0.1854  0.2137 -0.3222
  197MOL    C1027842   2.173   8.161   7.201 -0.4479 -0.0654  0.1748
  197MOL    C1127843   2.119   8.279   7.274 -0.2089  0.8892  0.3227
  197MOL    N1227844   2.078   0.057   7.332  0.0781 -0.0477 -0.3078
  197MOL    H1327845   1.982   8.123   7.095  0.7001  0.9553  2.5257
  197MOL    H1427846   2.101   8.041   7.028  0.3892 -0.8668  2.1820
  197MOL    H1527847   2.277   8.180   7.177  0.1866 -0.2070  2.6263
  197MOL    C1627848   2.166   8.035   7.294 -0.4269  0.0660  0.0703
  197MOL    C1727849   2.305   8.006   7.357 -0.5438 -0.1187  0.3149
  197MOL    C1827850   2.355   8.121   7.419 -0.0962 -0.3912 -0.9412
  197MOL    N1927851   2.395   8.218   7.468 -0.0729  0.3234  0.6249
  197MOL    H2027852   2.103   8.056   7.381  1.3371 -0.4238  1.4891
  197MOL    H2127853   2.119   7.951   7.245  0.5719 -0.6335  0.2978
  197MOL    H2227854   2.371   7.993   7.271 -0.4193  1.2359  0.2060
  197MOL    C2327855   2.312   7.870   7.439 -0.0625 -0.3026  0.6278
  197MOL    C2427856   2.242   7.857   7.578 -0.5552 -0.0180 -0.2235
  197MOL    C2527857   2.105   7.835   7.549 -1.0192 -0.8154 -0.4043
  197MOL    N2627858   1.994   7.826   7.520 -0.5790 -0.6449 -0.7413
  197MOL    H2727859   2.303   7.790   7.365  1.3448  1.2971 -1.3183
  197MOL    H2827860   2.420   7.867   7.456  0.2446  0.6786 -1.0231
  197MOL    H2927861   2.247   7.945   7.642  0.4832  0.5345 -1.0440
  197MOL    C3027862   2.300   7.738   7.651  0.3714 -0.7407  0.3499
  197MOL    C3127863   2.442   7.756   7.696  0.2160  0.4603  0.2815
  197MOL    C3227864   2.457   7.879   7.769 -0.3173  0.2652 -0.2985
  197MOL    N3327865   2.463   7.979   7.829  0.4501  0.4578  0.5890
  197MOL    H3427866   2.232   7.706   7.730  0.2479  0.0602  0.5777
  197MOL    H3527867   2.298   7.648   7.590 -1.7021 -0.2900 -0.3032
  197MOL    H3627868   2.507   7.774   7.611  1.9702 -1.6031  1.1287
  197MOL    C3727869   2.489   7.633   7.776 -0.0965  0.7018 -0.3013
  197MOL    C3827870   2.644   7.647   7.810  0.0816  0.6239 -0.5799
  197MOL    C3927871   2.668   7.725   7.928 -0.3464 -0.6728 -0.7043
  197MOL    N4027872   2.690   7.794   8.025  0.0368  0.3378  0.2546
  197MOL    H4127873   2.425   7.639   7.863  1.1973 -1.2065  0.8285
  197MOL    H4227874   2.468   7.536   7.729  1.5927  0.5363 -0.7514
  197MOL    H4327875   2.709   7.696   7.738  3.4248 -1.5768  0.8357
  197MOL    C4427876   2.703   7.510   7.850  0.2889 -0.9574 -0.2357
  197MOL    C4527877   2.858   7.485   7.826  0.5509  0.0692  0.3092
  197MOL    C4627878   2.946   7.578   7.896 -0.4506  0.2608 -0.0442
  197MOL    N4727879   3.010   7.655   7.954 -0.0160  0.6688 -0.7560
  197MOL    H4827880   2.675   7.494   7.954 -1.1993  1.6447 -0.1867
  197MOL    H4927881   2.652   7.429   7.799 -2.5875  0.9378 -0.4958
  197MOL    H5027882   2.871   7.519   7.724 -2.0514 -1.6546 -0.6409
  197MOL    C5127883   2.899   7.337   7.817  0.2620  0.2424 -1.0717
  197MOL    C5227884   2.858   7.281   7.675 -0.1544  0.0344 -0.4988
  197MOL    C5327885   2.950   7.329   7.576  0.0280 -1.0059  0.2229
  197MOL    N5427886   3.018   7.371   7.492 -0.5669 -0.0718  0.0268
  197MOL    H5527887   3.007   7.334   7.831  0.1308 -0.4702 -0.1483
  197MOL    H5627888   2.849   7.282   7.896 -2.0260  0.7668 -2.1016
  197MOL    H5727889   2.757   7.315   7.650  0.2144  0.4258 -1.4998
  197MOL    C5827890   2.859   7.130   7.666  0.0106  0.6607  0.0803
  197MOL    C5927891   2.740   7.061   7.743  0.5667  0.2790 -0.3748
  197MOL    C6027892   2.605   7.114   7.728 -0.5934 -0.2615  0.1812
  197MOL    N6127893   2.499   7.157   7.701  0.3264  0.0716 -0.6211
  197MOL    H6227894   2.848   7.098   7.562 -1.9980 -0.4295  0.5890
  197MOL    H6327895   2.952   7.081   7.695 -0.2495 -1.3473 -2.3053
  197MOL    H6427896   2.759   7.057   7.850 -2.0332 -1.5690  0.0701
  197MOL    C6527897   2.731   6.911   7.707 -0.1700 -0.3213  0.7993
  197MOL    C6627898   2.848   6.820   7.753 -0.1160  0.2402 -0.7555
  197MOL    C6727899   2.889   6.834   7.894  0.5268  0.0602 -0.4001
  197MOL    N6827900   2.923   6.852   8.000  0.0702  0.1984  0.6324
  197MOL    H6927901   2.636   6.877   7.747 -0.4795 -1.1454 -0.6008
  197MOL    H7027902   2.717   6.901   7.599  0.4595 -0.0006  0.6852
  197MOL    H7127903   2.937   6.850   7.698  0.6555  0.7325  0.7404
  197MOL    C7227904   2.810   6.681   7.698 -0.2017 -0.3697  0.0692
  197MOL    C7327905   2.901   6.562   7.736 -0.1151 -0.2300  0.2074
  197MOL    C7427906   2.879   6.520   7.878 -0.5578 -0.5854  0.2669
  197MOL    N7527907   2.865   6.490   7.987 -0.1923 -0.7418 -0.8842
  197MOL    H7627908   2.710   6.659   7.735 -0.5447 -1.7028 -1.5825
  197MOL    H7727909   2.804   6.684   7.589  1.3235 -1.3276 -0.0485
  197MOL    H7827910   2.999   6.610   7.735 -0.7874  1.1999  1.0671
  197MOL    C7927911   2.898   6.443   7.637  0.8750 -0.0347 -0.4495
  197MOL    C8027912   2.981   6.313   7.660 -0.5367 -0.0936 -0.3874
  197MOL    C8127913   2.933   6.203   7.579 -0.0116 -0.1058  0.4392
  197MOL    N8227914   2.896   6.115   7.514  0.9119 -0.1168  0.0025
  197MOL    H8327915   2.793   6.415   7.633 -0.0935  3.0235  1.6118
  197MOL    H8427916   2.915   6.486   7.538 -0.0844 -1.8633 -1.4283
  197MOL    H8527917   2.969   6.282   7.763  0.6057  1.1662  0.1340
  197MOL    C8627918   3.130   6.339   7.629 -0.3039  0.5234  0.1058
  197MOL    C8727919   3.232   6.255   7.719 -0.8904 -0.1687 -0.4623
  197MOL    C8827920   3.208   6.270   7.866  0.6925  0.1119 -0.0346
  197MOL    N8927921   3.180   6.275   7.979  0.0473  0.7600  0.3106
  197MOL    H9027922   3.158   6.320   7.526  0.0063 -3.8352  0.8967
  197MOL    H9127923   3.154   6.442   7.654 -0.0192  0.5752 -0.3764
  197MOL    H9227924   3.324   6.312   7.710 -0.5626 -0.3762  1.3320
  197MOL    C9327925   3.266   6.114   7.661  0.1558 -0.2018  0.6210
  197MOL    C9427926   3.374   6.033   7.736  0.7288  0.4019 -0.2826
  197MOL    C9527927   3.332   5.977   7.867  0.5952  0.0809  0.6461
  197MOL    N9627928   3.297   5.933   7.966  0.0234  0.6144  0.2214
  197MOL    H9727929   3.175   6.053   7.663 -1.1136  1.5091 -1.8315
  197MOL    H9827930   3.307   6.115   7.560  1.2530 -0.4747  1.0648
  197MOL    H9927931   3.447   6.111   7.759 -1.0310  1.6425  1.3078
  197MOL   C10027932   3.428   5.920   7.648 -0.3992 -0.8110 -0.4396
  197MOL   C10127933   3.537   5.966   7.552 -0.4556 -0.0824 -1.0363
  197MOL   C10227934   3.641   6.043   7.627 -0.4615  0.1582 -0.0149
  197MOL   N10327935   3.722   6.097   7.685 -0.1568  0.2456 -0.1855
  197MOL   H10427936   3.474   5.850   7.718 -1.5824 -2.4815 -1.2842
  197MOL   H10527937   3.348   5.860   7.605 -1.4040  1.5746 -2.0229
  197MOL   H10627938   3.497   6.042   7.484 -0.5143  1.6220  0.8453
  197MOL   C10727939   3.601   5.848   7.473 -0.0638 -0.5677  0.6942
  197MOL   C10827940   3.663   5.897   7.346  0.4449  0.9156  0.2193
  197MOL   C10927941   3.800   5.939   7.365 -0.2593  0.0085 -0.0488
  197MOL   N11027942   3.909   5.971   7.378 -0.5314  0.5129 -0.7048
  197MOL   H11127943   3.676   5.795   7.532 -0.1535  0.1031  1.4238
  197MOL   H11227944   3.525   5.776   7.444  1.1432 -1.3743 -0.5646
  197MOL   H11327945   3.626   5.998   7.330  2.1593  1.8009  1.6330
  197MOL   C11427946   3.642   5.805   7.219  0.0294  0.4949  0.1471
  197MOL   C11527947   3.752   5.700   7.195  0.2132  0.5342 -0.9491
  197MOL   C11627948   3.780   5.622   7.323  0.6943  0.1653  0.3414
  197MOL   N11727949   3.800   5.556   7.418 -0.1886 -0.4737 -0.0438
  197MOL   H11827950   3.541   5.766   7.216 -0.0655  0.8649 -2.4861
  197MOL   H11927951   3.653   5.869   7.132 -1.5239 -2.6916 -2.4897
  197MOL   H12027952   3.840   5.763   7.182  1.4051 -0.6209  1.1421
  197MOL   C12127953   3.718   5.624   7.062  0.0674 -0.3358  0.1545
  197MOL   C12227954   3.822   5.526   7.014  0.2187  0.5198 -0.5602
  197MOL   C12327955   3.814   5.390   7.076  0.4495  0.7790  0.2398
  197MOL   N12427956   3.801   5.281   7.120  0.4050 -0.8112  0.2376
  197MOL   H12527957   3.625   5.566   7.064  0.4123 -0.9880 -2.3014
  197MOL   H12627958   3.702   5.701   6.987  0.1696 -0.2792  0.1918
  197MOL   H12727959   3.919   5.565   7.047  1.1656 -1.4543 -0.9438
  197MOL   C12827960   3.844   5.529   6.859 -0.0135  0.8122 -0.7425
  197MOL   C12927961   3.959   5.434   6.811  0.9752  0.2236 -0.3165
  197MOL   C13027962   3.968   5.452   6.665 -0.1410 -0.4580 -0.4954
  197MOL   N13127963   3.976   5.472   6.553 -0.6241  0.2482 -0.9770
  197MOL   H13227964   3.752   5.495   6.810 -0.4205  2.4524 -1.1571
  197MOL   H13327965   3.864   5.633   6.832  1.2910  1.0710  1.0972
  197MOL   H13427966   3.931   5.329   6.823  3.3623 -0.5282 -1.1716
  197MOL   C13527967   4.097   5.457   6.876 -0.6022  0.0058 -0.1348
  197MOL   C13627968   4.166   5.587   6.838  0.7385  0.3706 -0.6665
  197MOL   C13727969   4.290   5.606   6.923  0.1358 -0.0311 -0.4354
  197MOL   N13827970   4.387   5.625   6.988 -0.0095  0.2295  0.4605
  197MOL   H13927971   4.083   5.445   6.983  0.1769 -1.4326 -0.1880
  197MOL   H14027972   4.172   5.382   6.855  0.2576  0.7016  0.4289
  197MOL   H14127973   4.100   5.671   6.860 -0.9866 -1.0597 -0.3237
  197MOL   H14227974   4.200   5.583   6.734  1.0090 -1.9407 -0.4998
  198MOL     C127975   2.856   1.134   2.251  0.6152 -0.6494 -0.0918
  198MOL     C227976   2.833   1.059   2.384  0.2322 -0.7499 -0.2309
  198MOL     C327977   2.747   0.945   2.361 -0.0738  0.0130 -0.3392
  198MOL     N427978   2.676   0.851   2.348 -0.4210 -0.4661  0.1001
  198MOL     H527979   2.934   1.210   2.241 -0.5664  0.5719 -0.0653
  198MOL     H627980   2.762   1.179   2.221  0.8970 -0.0299 -0.0513
  198MOL     H727981   2.785   1.126   2.455  0.8519  0.2539 -0.7298
  198MOL     H827982   2.875   1.078   2.159 -4.0869 -0.5863 -1.1844
  198MOL     C927983   2.980   1.031   2.441  0.4327 -0.1664  0.5243
  198MOL    C1027984   2.988   0.970   2.584  0.6579  0.4133 -0.0569
  198MOL    C1127985   2.981   0.824   2.565  0.7339 -0.1566  0.5689
  198MOL    N1227986   2.972   0.711   2.541 -0.4983 -0.0111 -0.8105
  198MOL    H1327987   3.027   0.960   2.374  0.0378 -1.0381  1.1576
  198MOL    H1427988   3.027   1.129   2.451  0.0810  0.0734 -0.1822
  198MOL    H1527989   2.903   1.013   2.638  0.6200  0.2232  0.0344
  198MOL    C1627990   3.118   1.023   2.652  0.2769  0.4284 -0.0967
  198MOL    C1727991   3.117   1.015   2.807  0.6141  1.0363  0.0079
  198MOL    C1827992   3.052   0.891   2.860  0.0186 -0.3381  0.2834
  198MOL    N1927993   3.001   0.798   2.898 -0.2846 -0.2871  0.4457
  198MOL    H2027994   3.197   0.963   2.608 -0.4598  0.4418 -1.4650
  198MOL    H2127995   3.131   1.129   2.629 -0.4041  0.2628 -1.2754
  198MOL    H2227996   3.067   1.098   2.857  0.1974  0.3091  0.8149
  198MOL    C2327997   3.262   1.022   2.857 -0.1099 -0.9200 -0.2726
  198MOL    C2427998   3.326   1.164   2.863 -0.0036 -0.9303  0.5595
  198MOL    C2527999   3.347   1.238   2.738  0.5935 -0.1516  0.0770
  198MOL    N2628000   3.354   1.293   2.633 -0.1928 -0.3716  0.1027
  198MOL    H2728001   3.255   0.982   2.958  3.1414  1.1548  0.8538
  198MOL    H2828002   3.326   0.948   2.810 -0.8746 -0.5708 -1.8967
  198MOL    H2928003   3.432   1.150   2.882 -0.2188  0.0560  2.6421
  198MOL    C3028004   3.270   1.253   2.974 -0.3920  0.0478  0.1428
  198MOL    C3128005   3.342   1.249   3.109 -0.3424 -0.4014 -0.4142
  198MOL    C3228006   3.481   1.294   3.090 -0.0061  0.8893  0.2590
  198MOL    N3328007   3.591   1.322   3.069  0.7282 -0.1326 -0.8031
  198MOL    H3428008   3.270   1.354   2.933  0.2303  0.6506  1.5910
  198MOL    H3528009   3.164   1.236   2.989 -0.1874 -0.6069  0.8611
  198MOL    H3628010   3.341   1.150   3.157  0.2185  0.1566  0.7773
  198MOL    C3728011   3.270   1.333   3.207 -0.5251 -0.5551 -0.8826
  198MOL    C3828012   3.330   1.326   3.349 -0.4782 -0.1779 -0.2563
  198MOL    C3928013   3.381   1.459   3.392 -0.0066  0.5155 -0.0828
  198MOL    N4028014   3.412   1.565   3.425  0.4530  0.2596 -0.3505
  198MOL    H4128015   3.257   1.436   3.173 -0.8531 -0.1335  0.5049
  198MOL    H4228016   3.167   1.298   3.217 -0.4735 -0.3166  0.5086
  198MOL    H4328017   3.415   1.259   3.348 -0.8256 -0.6386  0.4503
  198MOL    C4428018   3.234   1.265   3.448 -0.1508 -0.6146 -0.2763
  198MOL    C4528019   3.206   1.116   3.444 -0.1290  0.2002 -0.3172
  198MOL    C4628020   3.324   1.041   3.503  0.0510  0.0617  0.4416
  198MOL    N4728021   3.409   0.973   3.541  0.1125 -0.7732  0.3733
  198MOL    H4828022   3.261   1.292   3.550  0.1141  0.8576 -0.7329
  198MOL    H4928023   3.136   1.312   3.436 -0.8587 -1.7873  0.7535
  198MOL    H5028024   3.209   1.091   3.338  0.1849  1.0104 -0.5027
  198MOL    C5128025   3.070   1.072   3.510  0.4686 -1.0997 -0.2104
  198MOL    C5228026   3.004   0.942   3.459  0.0586 -0.1769  0.1694
  198MOL    C5328027   2.978   0.956   3.312 -0.5105  0.6384 -0.4343
  198MOL    N5428028   2.965   0.966   3.194  0.3369 -0.4881  0.5378
  198MOL    H5528029   3.077   1.071   3.619  2.3167  0.2231 -0.2781
  198MOL    H5628030   3.008   1.156   3.477  1.4572  0.0658  0.8119
  198MOL    H5728031   2.902   0.944   3.497  0.0597 -2.3461  0.3457
  198MOL    C5828032   3.071   0.807   3.479  0.5178  0.0744  0.6421
  198MOL    C5928033   3.025   0.729   3.609 -0.3535 -0.4048 -0.0801
  198MOL    C6028034   2.901   0.777   3.678  0.3687 -0.0083  0.7403
  198MOL    N6128035   2.805   0.817   3.729 -0.8603  0.0091  0.1131
  198MOL    H6228036   3.049   0.734   3.401  3.1604 -0.7160  0.5785
  198MOL    H6328037   3.177   0.827   3.468  0.3735 -0.2245 -1.3511
  198MOL    H6428038   3.097   0.763   3.684 -1.5476 -1.3852  1.5569
  198MOL    C6528039   3.040   0.572   3.592 -0.3267  0.3401  0.0662
  198MOL    C6628040   2.995   0.493   3.713  0.4376 -0.7078 -0.2474
  198MOL    C6728041   2.847   0.487   3.738 -0.3887  0.0084 -0.1109
  198MOL    N6828042   2.733   0.481   3.764  0.4425  0.9354 -0.2299
  198MOL    H6928043   2.977   0.538   3.510 -0.3525 -0.6585  0.4943
  198MOL    H7028044   3.140   0.546   3.557 -0.6637  0.2295 -0.8213
  198MOL    H7128045   3.036   0.541   3.802 -1.7697 -1.6840  1.3505
  198MOL    C7228046   3.061   0.357   3.721 -0.3732 -0.2677 -0.6359
  198MOL    C7328047   3.052   0.282   3.848  0.3169 -0.1783 -0.3634
  198MOL    C7428048   3.125   0.160   3.839  0.4106  0.8170 -0.2966
  198MOL    N7528049   3.179   0.057   3.827 -0.4375  0.7473 -0.3637
  198MOL    H7628050   3.020   0.286   3.650  0.1606 -0.7891 -0.4267
  198MOL    H7728051   3.165   0.362   3.692  0.3653  0.1775  1.9248
  198MOL    H7828052   2.950   0.248   3.860 -0.1189 -0.2132 -3.5809
  198MOL    C7928053   3.092   0.351   3.982 -0.3125 -0.5401  0.3274
  198MOL    C8028054   3.105   0.264   4.109 -0.1426 -0.0323  0.1667
  198MOL    C8128055   3.170   0.350   4.209 -0.2842  0.2943 -0.7172
  198MOL    N8228056   3.225   0.417   4.288  0.8668  0.7460 -0.1417
  198MOL    H8328057   3.191   0.395   3.968 -0.5453  0.2888  1.2795
  198MOL    H8428058   3.017   0.427   4.005 -0.4837 -1.2890  2.3049
  198MOL    H8528059   3.170   0.181   4.083 -1.0560 -0.4099 -0.9756
  198MOL    C8628060   2.973   0.203   4.162  0.0641  0.6672 -0.0167
  198MOL    C8728061   2.982   0.107   4.285 -0.8084 -0.5538  0.3044
  198MOL    C8828062   3.093   0.132   4.380 -0.4081 -0.3964  0.1041
  198MOL    N8928063   3.184   0.148   4.450 -0.3500 -0.0733  0.2445
  198MOL    H9028064   2.909   0.289   4.177  1.3568  1.6871 -0.2490
  198MOL    H9128065   2.928   0.156   4.074  1.6649 -0.4218 -0.2934
  198MOL    H9228066   3.035   0.023   4.240 -1.2222  1.2144 -3.6492
  198MOL    C9328067   2.846   0.054   4.353 -0.6182  0.7675  0.5784
  198MOL    C9428068   2.785   0.153   4.457  0.0108  0.0582  0.6918
  198MOL    C9528069   2.641   0.141   4.457  0.4237 -0.4280 -0.0633
  198MOL    N9628070   2.523   0.136   4.461  0.5772  0.1697  0.3946
  198MOL    H9728071   2.773   0.031   4.276 -0.0299 -1.6480  0.7163
  198MOL    H9828072   2.868   8.273   4.405 -2.5084 -0.4300 -0.7132
  198MOL    H9928073   2.812   0.251   4.417 -0.1222 -0.1402  0.1180
  198MOL   C10028074   2.847   0.148   4.601  0.2591 -0.5733  0.3029
  198MOL   C10128075   2.782   0.224   4.724 -0.8975 -0.5015  0.7922
  198MOL   C10228076   2.750   0.363   4.687  0.6872  0.2929  0.8284
  198MOL   N10328077   2.729   0.476   4.666  0.5506  0.4413 -0.0179
  198MOL   H10428078   2.863   0.045   4.633  1.8250 -0.4420 -0.0574
  198MOL   H10528079   2.944   0.196   4.611 -1.1449  2.6460 -0.9436
  198MOL   H10628080   2.865   0.244   4.792  0.8044  1.4293 -1.7223
  198MOL   C10728081   2.656   0.139   4.775  0.1952 -0.0087 -0.6273
  198MOL   C10828082   2.606   0.184   4.912  0.1746  0.3702  0.2278
  198MOL   C10928083   2.458   0.160   4.932  0.4955  0.2428  0.4739
  198MOL   N11028084   2.344   0.146   4.954 -0.0292 -0.4387  0.8534
  198MOL   H11128085   2.579   0.137   4.698  1.0081 -0.4085 -1.4353
  198MOL   H11228086   2.686   0.034   4.777  4.1897  0.9700 -3.2648
  198MOL   H11328087   2.611   0.293   4.915 -1.2504  0.4144  2.4327
  198MOL   C11428088   2.679   0.123   5.035  0.0559  0.5135 -0.6519
  198MOL   C11528089   2.831   0.169   5.056  0.6930 -0.2586 -0.1761
  198MOL   C11628090   2.827   0.314   5.058 -0.4774 -0.1110 -0.1289
  198MOL   N11728091   2.819   0.429   5.058 -0.0167 -0.6585  0.5173
  198MOL   H11828092   2.632   0.146   5.130  1.4499  0.1581  0.1432
  198MOL   H11928093   2.688   0.014   5.035 -0.4513  0.4722 -0.9118
  198MOL   H12028094   2.897   0.140   4.974 -0.1855  0.3893 -1.1216
  198MOL   C12128095   2.900   0.097   5.174  0.2052  0.2790  0.2785
  198MOL   C12228096   2.832   0.106   5.316 -0.2361  0.5145  0.0140
  198MOL   C12328097   2.917   0.038   5.415 -0.1113 -1.0939  0.0501
  198MOL   N12428098   2.984   8.309   5.499  0.1349 -0.1849  0.5109
  198MOL   H12528099   2.934   0.000   5.139 -2.3208 -0.5215 -0.0575
  198MOL   H12628100   2.997   0.146   5.185 -0.4306  1.0672  2.8166
  198MOL   H12728101   2.746   0.040   5.318  1.6877 -2.0520  0.8179
  198MOL   C12828102   2.788   0.241   5.363  0.1336  0.5741 -1.0211
  198MOL   C12928103   2.893   0.330   5.431 -0.2262 -0.1693  0.1087
  198MOL   C13028104   3.033   0.300   5.395  0.0373 -0.4210 -0.4064
  198MOL   N13128105   3.143   0.276   5.371 -0.3232 -0.0624  0.6343
  198MOL   H13228106   2.731   0.283   5.280  1.7159  0.0346 -2.4088
  198MOL   H13328107   2.708   0.232   5.437  0.8540  0.7542 -0.2132
  198MOL   H13428108   2.876   0.319   5.538 -0.7340  1.2033  0.1803
  198MOL   C13528109   2.860   0.480   5.416  0.5233  0.1336 -0.6787
  198MOL   C13628110   2.949   0.582   5.489 -0.3234 -0.4000 -0.2109
  198MOL   C13728111   3.082   0.593   5.422 -0.5474 -0.5439  0.0234
  198MOL   N13828112   3.185   0.604   5.368  1.2418 -0.2293  0.5992
  198MOL   H13928113   2.853   0.491   5.307  2.4317 -2.0995 -1.0663
  198MOL   H14028114   2.756   0.494   5.444  1.6437  2.7260  2.3779
  198MOL   H14128115   2.967   0.547   5.591  1.8103  0.5788 -0.2307
  198MOL   H14228116   2.895   0.677   5.482 -0.1376 -0.2614  0.2054
  199MOL     C128117   2.704   0.022   2.295  0.2628 -0.5430 -0.1076
  199MOL     C228118   2.686   8.185   2.303  0.0432 -0.3818 -0.0610
  199MOL     C328119   2.604   8.148   2.414  0.6418 -0.0836 -0.0707
  199MOL     N428120   2.534   8.118   2.503  0.0677  0.2474 -0.2233
  199MOL     H528121   2.775   0.047   2.216  1.4170  0.1339  1.1229
  199MOL     H628122   2.740   0.074   2.384  0.6524 -1.8904  0.5305
  199MOL     H728123   2.786   8.150   2.331 -0.5383  0.3109  3.0234
  199MOL     H828124   2.606   0.064   2.273 -1.5944 -3.2930  2.4352
  199MOL     C928125   2.641   8.100   2.178  0.6912 -0.8321  1.1038
  199MOL    C1028126   2.729   8.096   2.057  0.3849  0.5424  0.7585
  199MOL    C1128127   2.855   8.035   2.104  0.0509 -0.2569 -0.6420
  199MOL    N1228128   2.953   7.989   2.140  0.3324  0.0973  0.5321
  199MOL    H1328129   2.637   7.996   2.213  1.0809 -1.1064  0.3511
  199MOL    H1428130   2.542   8.116   2.136  2.5297 -1.2683 -3.7232
  199MOL    H1528131   2.751   8.193   2.013  1.0924 -0.4583 -1.1251
  199MOL    C1628132   2.669   8.010   1.950  0.3395  0.5325 -0.2120
  199MOL    C1728133   2.749   7.996   1.814 -0.1830 -0.4521 -0.4252
  199MOL    C1828134   2.891   7.946   1.818  0.1543  0.4122  0.1627
  199MOL    N1928135   3.000   7.905   1.819  0.5546 -0.4287 -0.9611
  199MOL    H2028136   2.652   7.910   1.987 -2.3261  1.2855  0.6961
  199MOL    H2128137   2.574   8.056   1.924 -0.2948 -0.6917 -0.0395
  199MOL    H2228138   2.761   8.099   1.783 -0.5209 -0.1827  0.3305
  199MOL    C2328139   2.659   7.919   1.711  0.3283 -0.2747 -0.2133
  199MOL    C2428140   2.674   7.762   1.704 -0.6036  0.1714  0.3029
  199MOL    C2528141   2.670   7.702   1.836 -0.4005  0.7818 -0.4965
  199MOL    N2628142   2.662   7.649   1.939  0.0390 -0.5100 -0.2559
  199MOL    H2728143   2.559   7.953   1.736  0.2764 -0.4034 -0.2465
  199MOL    H2828144   2.675   7.955   1.609 -1.8551 -0.1167 -0.5142
  199MOL    H2928145   2.771   7.739   1.661 -1.0506 -2.2849  0.5131
  199MOL    C3028146   2.568   7.705   1.609 -0.7554  0.2973  0.3701
  199MOL    C3128147   2.585   7.749   1.462 -0.0825  0.8357  0.3314
  199MOL    C3228148   2.724   7.720   1.420  0.6943 -0.5208  0.1108
  199MOL    N3328149   2.831   7.702   1.383  0.6129  0.0041  0.7612
  199MOL    H3428150   2.573   7.596   1.618 -0.8552  0.2384 -0.2906
  199MOL    H3528151   2.471   7.734   1.649 -0.9389 -1.6532  1.4270
  199MOL    H3628152   2.568   7.856   1.456  0.0985  0.9184  1.2271
  199MOL    C3728153   2.478   7.670   1.381  0.1145 -0.6796  0.0590
  199MOL    C3828154   2.494   7.684   1.228  0.4608  0.4386  0.0887
  199MOL    C3928155   2.373   7.622   1.161  0.1098  0.4089 -0.2743
  199MOL    N4028156   2.276   7.573   1.112 -0.5749 -0.3018  0.4425
  199MOL    H4128157   2.493   7.565   1.403  1.8979 -0.3354  0.5507
  199MOL    H4228158   2.379   7.693   1.421  0.4899 -1.1685  1.2842
  199MOL    H4328159   2.575   7.616   1.204  0.5033  0.9963 -1.3595
  199MOL    C4428160   2.527   7.826   1.173 -0.3956 -0.4183 -0.1265
  199MOL    C4528161   2.606   7.833   1.045  0.0591 -0.1173  0.2561
  199MOL    C4628162   2.751   7.847   1.068 -0.4856  0.2843 -0.1463
  199MOL    N4728163   2.866   7.860   1.081  0.1325  0.2525  0.1474
  199MOL    H4828164   2.426   7.867   1.167 -0.8624 -1.5057  0.2392
  199MOL    H4928165   2.579   7.892   1.243  0.6355  0.3068 -1.5482
  199MOL    H5028166   2.597   7.935   1.007  0.3203 -0.4448 -0.7024
  199MOL    C5128167   2.567   7.724   0.932 -0.8804  0.7077 -0.1643
  199MOL    C5228168   2.600   7.769   0.781  0.4975  0.7982 -0.7415
  199MOL    C5328169   2.741   7.820   0.761  0.5603  0.3407 -0.7660
  199MOL    N5428170   2.847   7.861   0.738  0.2762 -0.2625 -0.1933
  199MOL    H5528171   2.622   7.631   0.948 -1.2120  0.7740  1.4170
  199MOL    H5628172   2.462   7.692   0.932 -0.1073 -1.9797 -0.1781
  199MOL    H5728173   2.544   7.860   0.760  0.7748  1.4718  1.3298
  199MOL    C5828174   2.572   7.657   0.677  0.5098 -0.1767  0.5040
  199MOL    C5928175   2.506   7.690   0.540 -0.2582  0.6390  0.1193
  199MOL    C6028176   2.560   7.815   0.488 -0.0043  0.4107  0.5379
  199MOL    N6128177   2.600   7.912   0.443 -0.0196 -0.2823 -0.4621
  199MOL    H6228178   2.674   7.619   0.665  1.0117  1.0189  0.9788
  199MOL    H6328179   2.515   7.574   0.718 -1.0747  0.1482 -0.9688
  199MOL    H6428180   2.399   7.708   0.553 -0.7773 -1.1889 -1.3292
  199MOL    C6528181   2.504   7.580   0.432 -0.3428 -0.0938  0.1493
  199MOL    C6628182   2.411   7.464   0.461 -0.3024  0.1784 -0.1492
  199MOL    C6728183   2.282   7.509   0.432  0.2562 -0.3382  0.2492
  199MOL    N6828184   2.178   7.547   0.404 -0.2776  0.6122 -0.3286
  199MOL    H6928185   2.481   7.627   0.337  0.1102 -0.9371 -0.3826
  199MOL    H7028186   2.610   7.558   0.422  0.0017  1.7590 -0.5366
  199MOL    H7128187   2.425   7.437   0.565  0.6143  0.6152 -0.1603
  199MOL    C7228188   2.437   7.334   0.390  0.7605  0.4570 -0.2965
  199MOL    C7328189   2.311   7.252   0.358  0.0952  0.1836 -0.6891
  199MOL    C7428190   2.269   7.286   0.224 -0.1700  0.7142  0.5833
  199MOL    N7528191   2.233   7.311   0.119  0.1772 -0.0587  0.4328
  199MOL    H7628192   2.484   7.363   0.296  1.4669  1.1991  0.2787
  199MOL    H7728193   2.512   7.274   0.440  0.3539  1.2632  1.3310
  199MOL    H7828194   2.233   7.270   0.431 -0.4958 -1.0463 -0.9914
  199MOL    C7928195   2.342   7.094   0.349  0.3088  0.2699  0.7812
  199MOL    C8028196   2.222   7.007   0.326 -0.5816  0.9990 -0.0026
  199MOL    C8128197   2.172   7.007   0.184  0.7559  0.3858 -1.1122
  199MOL    N8228198   2.136   7.007   0.077  0.0480  0.2553 -0.0265
  199MOL    H8328199   2.430   7.063   0.292  0.4826 -0.5452  1.4831
  199MOL    H8428200   2.382   7.070   0.447  0.6421 -1.8693  0.1477
  199MOL    H8528201   2.135   7.027   0.390 -1.2898  2.5559 -1.4180
  199MOL    C8628202   2.263   6.865   0.371 -0.2588 -0.2121  0.5708
  199MOL    C8728203   2.301   6.825   0.518  0.1886 -0.4613 -0.2528
  199MOL    C8828204   2.203   6.870   0.614 -0.1549  0.0849  0.0431
  199MOL    N8928205   2.122   6.906   0.692 -0.5448 -0.0374 -0.1449
  199MOL    H9028206   2.185   6.799   0.335  0.2742  0.0240 -1.0558
  199MOL    H9128207   2.343   6.833   0.304 -1.3387 -0.0321 -0.8332
  199MOL    H9228208   2.397   6.865   0.548 -1.2896  2.1771  1.1844
  199MOL    C9328209   2.308   6.674   0.533 -0.5393 -0.0134  0.8077
  199MOL    C9428210   2.397   6.605   0.428 -0.0574 -0.2484 -0.4282
  199MOL    C9528211   2.536   6.657   0.430 -0.2595 -0.7656  0.1100
  199MOL    N9628212   2.645   6.702   0.438 -0.3315 -0.4549  0.0491
  199MOL    H9728213   2.342   6.647   0.633  1.6989  0.9033  0.3100
  199MOL    H9828214   2.207   6.634   0.524 -0.2643 -0.3081 -1.2000
  199MOL    H9928215   2.360   6.635   0.330  0.3125  2.3485  0.2003
  199MOL   C10028216   2.374   6.453   0.430  0.2866 -0.8379  0.4871
  199MOL   C10128217   2.493   6.376   0.491 -0.1491 -0.2910  0.3025
  199MOL   C10228218   2.518   6.434   0.624 -0.1913 -0.0259 -0.3285
  199MOL   N10328219   2.543   6.480   0.726  0.7449 -0.2904 -0.2035
  199MOL   H10428220   2.275   6.423   0.466 -0.0528 -0.9569 -0.5130
  199MOL   H10528221   2.371   6.410   0.329  0.3100 -0.0981  0.1716
  199MOL   H10628222   2.580   6.402   0.432 -0.5758  2.0886  0.6808
  199MOL   C10728223   2.466   6.229   0.499  0.3950 -0.4264 -0.2795
  199MOL   C10828224   2.574   6.126   0.498  0.4142 -0.0112  0.4975
  199MOL   C10928225   2.674   6.144   0.601 -0.4652  0.4042  0.2954
  199MOL   N11028226   2.759   6.160   0.682 -0.2827  0.5720  0.2901
  199MOL   H11128227   2.415   6.203   0.592 -0.6360 -1.7826 -1.2053
  199MOL   H11228228   2.393   6.199   0.424  0.5125  3.0537 -1.8695
  199MOL   H11328229   2.631   6.160   0.411  0.2185  0.1667  0.4375
  199MOL   C11428230   2.525   5.978   0.474 -0.4908 -0.0444  0.3548
  199MOL   C11528231   2.631   5.870   0.502 -0.6037  0.3823  0.3749
  199MOL   C11628232   2.659   5.844   0.647  0.0719  0.1856 -0.7109
  199MOL   N11728233   2.679   5.829   0.760  0.3682  0.6490 -0.0189
  199MOL   H11828234   2.442   5.950   0.540 -0.2300  0.2993  0.8331
  199MOL   H11928235   2.477   5.984   0.377 -0.6871  0.0521  0.4586
  199MOL   H12028236   2.727   5.899   0.460 -0.3160 -1.6214 -0.4306
  199MOL   C12128237   2.594   5.738   0.426  0.1630 -0.2712 -0.0599
  199MOL   C12228238   2.621   5.715   0.266  0.2539 -0.4132 -0.7199
  199MOL   C12328239   2.517   5.785   0.192 -0.3797 -0.0521  0.5250
  199MOL   N12428240   2.439   5.845   0.127 -0.1067 -0.1225  0.4557
  199MOL   H12528241   2.639   5.653   0.479 -1.6107  0.0029  1.9732
  199MOL   H12628242   2.492   5.700   0.441  0.1067 -0.1269 -0.0777
  199MOL   H12728243   2.603   5.610   0.240 -0.5134 -0.2436 -0.8881
  199MOL   C12828244   2.764   5.764   0.218  0.3012  0.5893 -0.6969
  199MOL   C12928245   2.829   5.669   0.119  0.1748 -0.1292  0.1315
  199MOL   C13028246   2.732   5.650   0.010 -0.2480  0.1904  0.6938
  199MOL   N13128247   2.663   5.631   8.233  0.2998 -0.1719  0.2772
  199MOL   H13228248   2.759   5.867   0.182 -2.8725  0.2584 -1.3942
  199MOL   H13328249   2.825   5.764   0.309  2.9105  0.0475 -2.4215
  199MOL   H13428250   2.843   5.570   0.162  2.6728  0.3298  0.4334
  199MOL   C13528251   2.979   5.702   0.078  0.2207  1.0700 -0.0593
  199MOL   C13628252   3.070   5.703   0.203  0.0310 -0.3285 -0.0246
  199MOL   C13728253   3.162   5.821   0.199 -0.3127 -0.2278  0.0758
  199MOL   N13828254   3.233   5.918   0.198  0.0430 -0.2461 -0.0010
  199MOL   H13928255   3.008   5.638   8.307  0.3162  0.5081  0.4099
  199MOL   H14028256   2.979   5.802   0.033  0.2704  1.3519  0.5690
  199MOL   H14128257   3.134   5.615   0.213 -2.0357 -1.6870  1.5465
  199MOL   H14228258   3.024   5.715   0.301 -0.8804  2.2327 -0.7243
  200MOL     C128259   2.707   2.033   7.794 -0.4121  0.0150  0.1331
  200MOL     C228260   2.834   2.102   7.756 -0.3747  0.1412  0.6389
  200MOL     C328261   2.826   2.121   7.607  1.4206 -0.4293  1.0911
  200MOL     N428262   2.817   2.142   7.492  0.8345 -0.7777 -0.0864
  200MOL     H528263   2.715   2.002   7.898 -2.0030 -0.9821 -0.0358
  200MOL     H628264   2.689   1.946   7.731  1.8872 -1.2031  1.1168
  200MOL     H728265   2.919   2.034   7.764 -0.3096  0.3504  1.9071
  200MOL     H828266   2.628   2.108   7.786  0.0483  0.5679  0.7019
  200MOL     C928267   2.866   2.231   7.839 -0.4147  0.2024  0.2770
  200MOL    C1028268   2.885   2.195   7.991  0.1819  0.3312 -0.0959
  200MOL    C1128269   3.019   2.144   8.010 -0.2113  0.1264 -0.4184
  200MOL    N1228270   3.119   2.100   8.038 -0.0324  0.2583 -0.0967
  200MOL    H1328271   2.954   2.283   7.801 -0.3732  0.3759  0.6186
  200MOL    H1428272   2.770   2.279   7.818 -1.4320 -1.5104  0.8321
  200MOL    H1528273   2.825   2.113   8.029  0.0075  0.8227  0.7043
  200MOL    C1628274   2.863   2.315   8.086  0.8592 -0.5685 -0.5943
  200MOL    C1728275   2.718   2.379   8.089  0.3466 -0.3521 -0.5366
  200MOL    C1828276   2.620   2.265   8.115 -0.7765 -0.0378  0.4670
  200MOL    N1928277   2.550   2.179   8.142 -0.5707 -0.3124 -0.5537
  200MOL    H2028278   2.869   2.265   8.182 -0.3987 -0.1616 -0.2929
  200MOL    H2128279   2.937   2.395   8.077 -2.4801  2.7382  0.0783
  200MOL    H2228280   2.712   2.427   7.991  1.0025 -3.2596 -2.0582
  200MOL    C2328281   2.724   2.496   8.190  0.0716 -0.6063  0.2649
  200MOL    C2428282   2.595   2.585   8.217  0.4324 -0.1132  0.2226
  200MOL    C2528283   2.547   2.643   8.098 -0.0865 -0.1675 -0.3717
  200MOL    N2628284   2.509   2.693   7.998 -0.1713  0.4314  0.4368
  200MOL    H2728285   2.756   2.447   8.282  1.6074  1.0813  0.6602
  200MOL    H2828286   2.806   2.560   8.158  0.2351  0.1079  2.0422
  200MOL    H2928287   2.628   2.676   8.267  1.3830  0.1492 -0.8548
  200MOL    C3028288   2.485   2.520   8.308  0.3870 -0.6008 -0.7647
  200MOL    C3128289   2.507   2.533   0.144  0.0810 -0.9007 -0.7768
  200MOL    C3228290   2.520   2.678   0.172 -0.4991 -0.0395 -0.2025
  200MOL    N3328291   2.534   2.789   0.199  0.3571 -1.0464  0.5713
  200MOL    H3428292   2.390   2.568   8.280 -0.2965  1.1053  4.0114
  200MOL    H3528293   2.483   2.414   8.282 -0.1653 -0.8125  0.1426
  200MOL    H3628294   2.611   2.500   0.152 -0.0223 -1.9023 -3.3174
  200MOL    C3728295   2.409   2.456   0.237 -0.3530 -0.2415 -0.5392
  200MOL    C3828296   2.414   2.501   0.382 -0.0453 -0.3476  0.3345
  200MOL    C3928297   2.328   2.421   0.474  0.4539 -0.7515 -0.4519
  200MOL    N4028298   2.263   2.361   0.553  0.4791  0.0408  0.4111
  200MOL    H4128299   2.305   2.460   0.203 -0.7922  0.7400  0.8660
  200MOL    H4228300   2.436   2.350   0.230  0.5323 -0.0079 -0.6336
  200MOL    H4328301   2.372   2.601   0.379 -0.4101 -0.4999  0.4080
  200MOL    C4428302   2.552   2.514   0.449 -0.1028  0.3052  0.1387
  200MOL    C4528303   2.557   2.594   0.577  0.4798  0.1402  0.3241
  200MOL    C4628304   2.538   2.503   0.691 -0.2653 -0.9641 -0.1279
  200MOL    N4728305   2.516   2.433   0.783 -0.9586 -0.3444  0.2674
  200MOL    H4828306   2.617   2.427   0.440  0.2776  0.6468 -0.4507
  200MOL    H4928307   2.606   2.582   0.384 -1.6877 -0.2500 -1.8225
  200MOL    H5028308   2.481   2.672   0.580  2.8751  2.5703 -0.9527
  200MOL    C5128309   2.684   2.673   0.603  0.2382 -0.1535  0.6310
  200MOL    C5228310   2.709   2.737   0.743 -0.0087  0.9357  0.7412
  200MOL    C5328311   2.853   2.718   0.776 -0.4039 -0.5216 -0.2074
  200MOL    N5428312   2.966   2.707   0.794 -0.0830  0.4273 -0.2296
  200MOL    H5528313   2.769   2.605   0.593  0.1449 -0.1639 -0.1202
  200MOL    H5628314   2.697   2.745   0.523 -0.2590  1.2306  1.7646
  200MOL    H5728315   2.660   2.689   0.828 -1.5267  2.0755  0.5301
  200MOL    C5828316   2.664   2.886   0.745 -0.3399  0.0489 -0.1759
  200MOL    C5928317   2.665   2.961   0.888  0.2355  0.3226  0.5181
  200MOL    C6028318   2.782   2.929   0.971  0.1693 -0.0750  0.3257
  200MOL    N6128319   2.870   2.903   1.042  0.0871  0.7777 -0.3904
  200MOL    H6228320   2.729   2.940   0.676  1.2235 -0.3660  0.9455
  200MOL    H6328321   2.563   2.897   0.705 -1.9069 -0.8187  3.3095
  200MOL    H6428322   2.595   2.903   0.948  0.3259  1.2501  1.5451
  200MOL    C6528323   2.629   3.112   0.886  0.0638 -0.1256  0.1830
  200MOL    C6628324   2.741   3.207   0.929 -0.1094 -0.4865  0.4338
  200MOL    C6728325   2.855   3.191   0.838 -0.2331  0.5195 -0.1848
  200MOL    N6828326   2.948   3.174   0.768 -0.2003  0.1641  0.2815
  200MOL    H6928327   2.604   3.137   0.782 -0.1768 -0.0158  0.2657
  200MOL    H7028328   2.538   3.127   0.945 -1.6788 -1.1362 -2.1349
  200MOL    H7128329   2.774   3.187   1.031 -0.6179 -0.3005  0.6397
  200MOL    C7228330   2.678   3.346   0.924 -0.4775  0.0477 -0.2510
  200MOL    C7328331   2.730   3.454   1.025 -0.1868 -0.0651  0.1151
  200MOL    C7428332   2.871   3.473   0.991 -0.2636  0.2275 -0.0034
  200MOL    N7528333   2.984   3.488   0.963  0.5004  0.8524 -0.2012
  200MOL    H7628334   2.689   3.386   0.823 -1.4955  0.2498 -0.2904
  200MOL    H7728335   2.571   3.344   0.948 -0.2736 -0.9262  0.6094
  200MOL    H7828336   2.718   3.414   1.125 -0.8433 -2.7191 -0.9700
  200MOL    C7928337   2.652   3.589   1.009  0.1001  0.5798  0.3105
  200MOL    C8028338   2.639   3.662   1.144  0.7529 -0.2044 -0.2732
  200MOL    C8128339   2.767   3.690   1.208 -0.3168  0.7343  0.2026
  200MOL    N8228340   2.871   3.711   1.256  0.2882 -0.5798  0.2911
  200MOL    H8328341   2.695   3.653   0.932  0.0669  0.7732  0.4552
  200MOL    H8428342   2.551   3.578   0.969 -0.2667  0.7498  1.1809
  200MOL    H8528343   2.597   3.586   1.209  0.8514  0.9758  1.1967
  200MOL    C8628344   2.530   3.781   1.145 -0.3383 -0.2312  0.0213
  200MOL    C8728345   2.569   3.933   1.129  0.0166  0.2846  0.2975
  200MOL    C8828346   2.639   3.945   0.993 -0.2426  0.3204 -0.1435
  200MOL    N8928347   2.698   3.954   0.896 -0.2772 -0.2548 -0.2338
  200MOL    H9028348   2.454   3.763   1.070  0.7491 -1.2165 -0.8630
  200MOL    H9128349   2.478   3.786   1.241 -0.3031  1.3242 -0.0187
  200MOL    H9228350   2.648   3.957   1.200  2.0670 -1.6781 -1.2078
  200MOL    C9328351   2.449   4.034   1.142  0.0656  0.2423  0.3423
  200MOL    C9428352   2.492   4.179   1.111 -0.1175  0.3467 -0.4802
  200MOL    C9528353   2.619   4.217   1.179  0.3003 -0.7281 -0.6176
  200MOL    N9628354   2.720   4.252   1.224  0.2881  0.1341  0.5933
  200MOL    H9728355   2.357   4.007   1.091  0.5754 -0.2818 -0.3048
  200MOL    H9828356   2.409   4.025   1.243 -0.3406  0.6980  0.2234
  200MOL    H9928357   2.410   4.236   1.156  0.7603 -1.8096  4.1645
  200MOL   C10028358   2.492   4.220   0.963  0.5947 -0.1101  0.1258
  200MOL   C10128359   2.475   4.369   0.931  0.1658  0.1381 -0.1428
  200MOL   C10228360   2.491   4.454   1.045  0.2568 -0.4032 -0.0252
  200MOL   N10328361   2.507   4.521   1.133  0.6967  0.0725  0.0022
  200MOL   H10428362   2.586   4.187   0.918  0.7769 -0.3170  0.6545
  200MOL   H10528363   2.410   4.161   0.923  0.4105  0.2751 -0.0634
  200MOL   H10628364   2.366   4.377   0.924  0.1735  0.0140 -0.4436
  200MOL   C10728365   2.535   4.417   0.803  0.1591  0.7798  1.0551
  200MOL   C10828366   2.462   4.533   0.731 -0.3497 -0.3950  1.3439
  200MOL   C10928367   2.393   4.629   0.822  0.6154 -0.0933  0.5239
  200MOL   N11028368   2.333   4.698   0.893 -0.3057 -0.1616 -0.9769
  200MOL   H11128369   2.642   4.432   0.812  0.3403  0.0784  0.1317
  200MOL   H11228370   2.522   4.329   0.740 -0.5010  1.2433  0.5299
  200MOL   H11328371   2.381   4.487   0.674  0.8527 -0.6435 -0.2182
  200MOL   C11428372   2.557   4.594   0.620  0.8309 -0.3910  0.5448
  200MOL   C11528373   2.642   4.714   0.672 -0.1919  0.1886  0.6052
  200MOL   C11628374   2.717   4.692   0.798  0.0043 -0.7214 -0.3675
  200MOL   N11728375   2.773   4.672   0.901 -0.7319  0.2447  0.2907
  200MOL   H11828376   2.622   4.520   0.574  1.1522  1.0307 -1.3732
  200MOL   H11928377   2.490   4.634   0.544  0.6403 -1.5355  0.0989
  200MOL   H12028378   2.571   4.795   0.690  1.4240  2.3962 -2.4182
  200MOL   C12128379   2.750   4.778   0.578 -0.0953  0.2470  0.1044
  200MOL   C12228380   2.867   4.689   0.539 -0.0929  0.1425  0.2476
  200MOL   C12328381   2.812   4.617   0.425 -0.1057  0.3908  0.5927
  200MOL   N12428382   2.768   4.563   0.332  0.2810  0.3934 -0.3882
  200MOL   H12528383   2.683   4.785   0.492 -0.4256  0.7332  0.3959
  200MOL   H12628384   2.781   4.878   0.608 -0.0891 -0.2931  1.9272
  200MOL   H12728385   2.890   4.611   0.612 -1.6149  1.7290  2.5214
  200MOL   C12828386   2.996   4.762   0.512  0.2250  0.1327  0.4047
  200MOL   C12928387   3.106   4.665   0.467 -1.8130 -0.5930 -0.3985
  200MOL   C13028388   3.204   4.724   0.373 -0.2454 -0.3217  0.0635
  200MOL   N13128389   3.280   4.777   0.300 -0.2658  0.6560 -0.0932
  200MOL   H13228390   2.986   4.846   0.443  1.6999  0.6064  0.7568
  200MOL   H13328391   3.017   4.801   0.611 -0.1437 -1.8759  1.3004
  200MOL   H13428392   3.065   4.594   0.395 -0.4347 -2.4354  0.5879
  200MOL   C13528393   3.174   4.595   0.586  0.3156 -0.6853  0.5061
  200MOL   C13628394   3.294   4.508   0.541 -0.6980 -0.1889 -0.0509
  200MOL   C13728395   3.376   4.447   0.650 -0.4582  0.1499  0.2428
  200MOL   N13828396   3.435   4.397   0.741  0.0995  0.7415  0.3035
  200MOL   H13928397   3.221   4.667   0.654 -0.6477  1.6456 -1.2200
  200MOL   H14028398   3.105   4.537   0.646 -0.0198 -3.1775 -2.1802
  200MOL   H14128399   3.363   4.561   0.475  1.3521 -0.3179  1.9374
  200MOL   H14228400   3.258   4.427   0.478  1.4233 -1.2944  0.1105
  201MOL     C128401   2.401   4.377   1.424  0.0058  0.3076 -0.2069
  201MOL     C228402   2.412   4.284   1.550 -0.2293 -0.1370  0.7526
  201MOL     C328403   2.514   4.336   1.638  0.3722 -0.6679  0.0729
  201MOL     N428404   2.591   4.373   1.718  0.4350  0.6900  0.5317
  201MOL     H528405   2.365   4.478   1.444  0.1794  0.5346 -1.0253
  201MOL     H628406   2.349   4.318   1.348  0.9122 -1.5355  0.5857
  201MOL     H728407   2.453   4.186   1.525 -0.0906 -0.3441  1.7791
  201MOL     H828408   2.501   4.392   1.383 -0.6962 -2.0997 -2.9874
  201MOL     C928409   2.277   4.257   1.618 -0.6679 -0.1742 -0.2721
  201MOL    C1028410   2.217   4.366   1.704 -0.1457 -0.0825 -0.3089
  201MOL    C1128411   2.143   4.462   1.621 -0.0501 -0.9791  0.2323
  201MOL    N1228412   2.084   4.540   1.559  0.1062  0.2160  0.3290
  201MOL    H1328413   2.210   4.222   1.540 -0.6644  0.8301 -0.7338
  201MOL    H1428414   2.296   4.168   1.679 -2.6896  1.0901  2.2524
  201MOL    H1528415   2.301   4.421   1.746 -0.8781 -0.7349  2.0353
  201MOL    C1628416   2.147   4.306   1.826  0.0654  0.1300  0.0689
  201MOL    C1728417   2.093   4.401   1.929 -0.7251  0.7762  0.6738
  201MOL    C1828418   2.203   4.486   1.961 -0.5037 -0.4988  0.0941
  201MOL    N1928419   2.289   4.559   1.983  0.0421  0.8154  0.2117
  201MOL    H2028420   2.071   4.236   1.793  0.2218 -0.3238  0.6590
  201MOL    H2128421   2.222   4.242   1.873  0.1190 -0.0764 -0.2923
  201MOL    H2228422   2.085   4.345   2.022  1.1148 -1.3352 -0.3911
  201MOL    C2328423   1.968   4.487   1.904 -0.5183 -0.0673 -0.2960
  201MOL    C2428424   1.847   4.404   1.860  0.1683  0.7297 -1.2755
  201MOL    C2528425   1.840   4.290   1.953  0.2165  0.3966  0.0023
  201MOL    N2628426   1.837   4.204   2.025 -0.3969 -0.0970  0.6810
  201MOL    H2728427   1.950   4.559   1.983 -1.2943 -0.5691 -0.0150
  201MOL    H2828428   1.993   4.555   1.822  0.5984 -0.7745 -0.5490
  201MOL    H2928429   1.844   4.361   1.760 -2.1394  1.2366 -1.4471
  201MOL    C3028430   1.708   4.468   1.873 -0.3177  0.6953 -0.1100
  201MOL    C3128431   1.678   4.593   1.786  0.2306 -0.3564 -0.5025
  201MOL    C3228432   1.757   4.709   1.815 -0.1738  0.3897 -0.6649
  201MOL    N3328433   1.821   4.806   1.827  0.1276 -0.1599 -0.3744
  201MOL    H3428434   1.622   4.400   1.868 -1.2881  2.0022 -1.6378
  201MOL    H3528435   1.697   4.507   1.974  0.5178  2.0213 -0.5156
  201MOL    H3628436   1.576   4.626   1.808  0.3009 -0.8884  0.6588
  201MOL    C3728437   1.688   4.547   1.643  0.3513  0.1203  0.1994
  201MOL    C3828438   1.583   4.606   1.546  0.3042 -0.2642  0.0120
  201MOL    C3928439   1.614   4.583   1.407 -0.0789 -0.3419  1.1444
  201MOL    N4028440   1.635   4.557   1.297  0.1626 -0.2793 -0.8933
  201MOL    H4128441   1.789   4.567   1.609  0.1363  0.3952 -0.2893
  201MOL    H4228442   1.675   4.440   1.634  0.0693  0.2861 -1.6306
  201MOL    H4328443   1.610   4.711   1.561  2.5337 -0.7234 -0.5368
  201MOL    C4428444   1.435   4.573   1.585  0.4822  0.0695  0.1357
  201MOL    C4528445   1.368   4.452   1.514  0.1336 -0.6412 -0.6938
  201MOL    C4628446   1.453   4.335   1.505  0.2028  0.1717 -1.2203
  201MOL    N4728447   1.520   4.245   1.494  0.2294  0.5881  0.1914
  201MOL    H4828448   1.435   4.555   1.692 -1.5819 -1.6014 -0.1135
  201MOL    H4928449   1.378   4.663   1.561 -0.5458 -0.2760  1.2398
  201MOL    H5028450   1.354   4.493   1.414 -1.3835 -0.3349 -0.3758
  201MOL    C5128451   1.231   4.425   1.561  1.6675 -0.3602  0.2416
  201MOL    C5228452   1.216   4.326   1.686  0.1999 -0.1298 -0.2092
  201MOL    C5328453   1.266   4.392   1.806 -0.7785  0.7763 -0.1783
  201MOL    N5428454   1.304   4.440   1.905  0.6190  1.1168  0.2563
  201MOL    H5528455   1.167   4.513   1.569  0.2035 -1.4639  1.0955
  201MOL    H5628456   1.180   4.383   1.475 -1.0031 -0.3945  1.7739
  201MOL    H5728457   1.272   4.236   1.660 -0.9010 -0.9656  0.3124
  201MOL    C5828458   1.076   4.263   1.691  0.9115  0.0697  0.4704
  201MOL    C5928459   1.036   4.212   1.828 -0.2893  0.4365  0.0495
  201MOL    C6028460   0.894   4.179   1.818 -0.3445  0.1924 -0.2833
  201MOL    N6128461   0.783   4.145   1.813 -0.8550  0.3487  0.1817
  201MOL    H6228462   0.989   4.324   1.664 -0.1558 -1.8539 -0.5078
  201MOL    H6328463   1.068   4.186   1.615 -2.6154 -1.5437  2.3549
  201MOL    H6428464   1.047   4.290   1.904  0.0509 -0.1968  0.6586
  201MOL    C6528465   1.131   4.096   1.885 -0.0814  0.1208 -0.7396
  201MOL    C6628466   1.086   3.954   1.848  0.5579 -0.5177  0.4649
  201MOL    C6728467   1.080   3.928   1.704  0.0380 -0.2730 -0.0607
  201MOL    N6828468   1.075   3.921   1.590  0.5131  0.2038  0.1244
  201MOL    H6928469   1.237   4.105   1.860  0.3731  0.1464  1.1315
  201MOL    H7028470   1.136   4.099   1.993  0.3943  0.9264 -0.7718
  201MOL    H7128471   0.982   3.939   1.877  0.5565 -0.6893  0.3799
  201MOL    C7228472   1.171   3.848   1.920 -0.1308 -0.6620  0.0991
  201MOL    C7328473   1.130   3.702   1.923 -0.0396  0.3345  0.7365
  201MOL    C7428474   1.088   3.645   1.795 -0.5859 -0.0178 -0.4167
  201MOL    N7528475   1.054   3.599   1.692  0.2909 -0.0827 -0.0691
  201MOL    H7628476   1.266   3.845   1.866 -0.5634  0.2195 -0.7406
  201MOL    H7728477   1.198   3.881   2.020  0.0750  1.4811 -0.6342
  201MOL    H7828478   1.035   3.698   1.976  0.9038 -2.1690  2.3343
  201MOL    C7928479   1.239   3.623   1.987 -0.7066  0.1299 -0.5550
  201MOL    C8028480   1.213   3.472   1.995 -0.4670 -0.0058 -0.2526
  201MOL    C8128481   1.340   3.409   2.042 -0.5085  0.9116  0.0049
  201MOL    N8228482   1.435   3.357   2.083 -0.2567 -0.4908 -0.2961
  201MOL    H8328483   1.325   3.640   1.922  1.0517 -1.0950  1.3957
  201MOL    H8428484   1.254   3.650   2.091 -1.7613 -0.7174 -0.1661
  201MOL    H8528485   1.193   3.432   1.895 -2.8900  2.0647 -0.6521
  201MOL    C8628486   1.088   3.434   2.077 -0.5856  0.1663 -0.0354
  201MOL    C8728487   1.055   3.283   2.090  0.2822 -0.1431  0.0253
  201MOL    C8828488   1.137   3.209   2.184 -0.8469  0.0686 -0.6061
  201MOL    N8928489   1.204   3.148   2.257  0.0297  0.2779  0.0238
  201MOL    H9028490   1.086   3.467   2.181 -1.3260 -0.9370  0.3106
  201MOL    H9128491   1.008   3.489   2.027 -1.7443 -2.6281 -1.3793
  201MOL    H9228492   1.065   3.235   1.993 -0.9528 -0.3884  0.0127
  201MOL    C9328493   0.911   3.266   2.136  0.9968 -0.1967  0.0412
  201MOL    C9428494   0.840   3.157   2.051 -0.2625 -0.2428  0.3161
  201MOL    C9528495   0.922   3.037   2.046  0.6651  0.7492  0.3521
  201MOL    N9628496   0.995   2.951   2.049  0.1320 -0.0729 -0.2756
  201MOL    H9728497   0.906   3.238   2.241  2.9416  0.0152  0.2085
  201MOL    H9828498   0.851   3.357   2.128  0.6393 -0.4610 -0.3819
  201MOL    H9928499   0.824   3.194   1.950 -1.2103 -1.0740  0.1462
  201MOL   C10028500   0.697   3.128   2.099  0.1385 -0.6366  0.9098
  201MOL   C10128501   0.614   3.043   1.994  0.6492 -0.1362 -0.0402
  201MOL   C10228502   0.638   2.902   2.018  0.4681  0.3683  0.4997
  201MOL   N10328503   0.656   2.788   2.036 -0.2115  0.3744 -0.6842
  201MOL   H10428504   0.709   3.076   2.194 -0.3869 -1.3731  0.5792
  201MOL   H10528505   0.645   3.222   2.115 -1.6102 -1.3015 -0.6703
  201MOL   H10628506   0.657   3.068   1.897  0.1775  0.7186 -0.0283
  201MOL   C10728507   0.466   3.083   2.001  0.1353  0.4246 -0.3542
  201MOL   C10828508   0.382   3.067   1.874  0.3120 -0.1019 -0.3674
  201MOL   C10928509   0.378   2.921   1.835  0.1351 -0.0643 -0.1031
  201MOL   N11028510   0.386   2.809   1.814 -0.3868  0.5405  0.9443
  201MOL   H11128511   0.423   3.010   2.070 -0.6205  0.5110 -0.7297
  201MOL   H11228512   0.454   3.182   2.045  1.7093  0.1377  0.7511
  201MOL   H11328513   0.432   3.128   1.798  1.0192 -0.8506 -0.5109
  201MOL   C11428514   0.241   3.122   1.893 -1.0739 -0.7444 -0.6342
  201MOL   C11528515   0.146   3.111   1.771  0.5486 -0.1228 -0.8170
  201MOL   C11628516   0.109   2.972   1.752 -0.0500  0.3876  0.0247
  201MOL   N11728517   0.076   2.857   1.740  0.1522 -0.2722 -0.2601
  201MOL   H11828518   0.198   3.072   1.980 -0.6336  0.9829  0.5912
  201MOL   H11928519   0.246   3.226   1.923 -2.2957 -0.6251 -0.8080
  201MOL   H12028520   0.202   3.144   1.684 -1.5287  1.4108 -1.6112
  201MOL   C12128521   0.026   3.208   1.794  0.6027 -0.3915 -0.2205
  201MOL   C12228522   8.302   3.306   1.682 -0.9949 -0.3954 -0.3836
  201MOL   C12328523   8.165   3.363   1.696 -0.6469  0.5542  0.6267
  201MOL   N12428524   8.062   3.413   1.703  0.1419 -0.0872  0.1877
  201MOL   H12528525   8.242   3.169   1.827  0.2998  1.7902  1.6021
  201MOL   H12628526   0.035   3.266   1.885  0.4803  0.1396 -0.5445
  201MOL   H12728527   8.281   3.226   1.611 -0.6435 -0.8284 -0.0094
  201MOL   C12828528   0.112   3.404   1.656 -0.2971  0.2501  0.1421
  201MOL   C12928529   0.090   3.535   1.572  0.7049 -0.7204 -1.1435
  201MOL   C13028530   0.196   3.628   1.611 -0.6221 -0.2288 -0.9110
  201MOL   N13128531   0.278   3.698   1.649  0.2051 -0.7240  0.3193
  201MOL   H13228532   0.125   3.445   1.756  2.8995  0.1408 -0.1853
  201MOL   H13328533   0.208   3.356   1.638 -0.7576  0.0225 -1.8063
  201MOL   H13428534   8.307   3.581   1.599  2.0579  1.7255 -0.3702
  201MOL   C13528535   0.082   3.508   1.421 -0.3539  0.1725  0.2515
  201MOL   C13628536   0.000   3.612   1.340  0.0595  0.1118 -0.0749
  201MOL   C13728537   8.175   3.622   1.385  0.0036 -0.0560 -0.6200
  201MOL   N13828538   8.071   3.628   1.433 -0.7211 -0.0161  0.3427
  201MOL   H13928539   0.182   3.486   1.385 -1.2118 -1.3023 -1.3254
  201MOL   H14028540   0.027   3.414   1.421  0.8661 -0.5535  0.2008
  201MOL   H14128541   0.014   3.571   1.240 -1.5565  0.8544 -0.6122
  201MOL   H14228542   0.055   3.706   1.341 -0.7124  0.5769 -0.8849
  202MOL     C128543   1.458   0.634   0.382 -0.0452 -0.4492 -0.1259
  202MOL     C228544   1.514   0.761   0.323  0.0105  0.0512  0.0254
  202MOL     C328545   1.415   0.833   0.247 -0.5184  0.5409  0.0361
  202MOL     N428546   1.337   0.891   0.183  0.1729  0.2966 -0.0027
  202MOL     H528547   1.531   0.560   0.416 -0.2420 -0.6700 -0.1831
  202MOL     H628548   1.401   0.569   0.316  0.9214 -0.3304 -1.0930
  202MOL     H728549   1.587   0.733   0.247 -1.8685  1.8122 -2.4903
  202MOL     H828550   1.389   0.651   0.465 -1.1302 -1.6106 -0.7886
  202MOL     C928551   1.573   0.858   0.428 -0.0100 -0.4867  0.0999
  202MOL    C1028552   1.668   0.784   0.519  0.0406 -0.1967  0.1619
  202MOL    C1128553   1.786   0.736   0.441 -0.1818  0.9178 -0.1377
  202MOL    N1228554   1.877   0.699   0.378  0.1922  0.7167  0.1231
  202MOL    H1328555   1.624   0.948   0.393  1.4126 -1.3698 -0.1190
  202MOL    H1428556   1.488   0.895   0.487 -0.9708 -2.0657 -0.2830
  202MOL    H1528557   1.630   0.687   0.550 -3.5000  1.0645 -0.0007
  202MOL    C1628558   1.722   0.878   0.632  0.0624  0.1806  0.1962
  202MOL    C1728559   1.758   0.804   0.764 -0.2952  0.3977 -0.5857
  202MOL    C1828560   1.811   0.907   0.859  0.7121 -0.3160  0.5173
  202MOL    N1928561   1.853   0.986   0.935  0.3227 -0.2160 -0.0061
  202MOL    H2028562   1.793   0.954   0.601 -0.5765  1.4479  1.7577
  202MOL    H2128563   1.639   0.939   0.668  0.1519 -0.2832  1.2266
  202MOL    H2228564   1.841   0.735   0.748 -0.1706  0.5231 -0.4817
  202MOL    C2328565   1.639   0.732   0.825  0.8588  0.1710 -0.2242
  202MOL    C2428566   1.679   0.616   0.922 -0.1038  0.2536 -0.3506
  202MOL    C2528567   1.807   0.636   0.992 -0.1953  0.2160 -0.1855
  202MOL    N2628568   1.911   0.641   1.042  0.3470 -0.0572  0.5498
  202MOL    H2728569   1.582   0.811   0.874  1.1466  0.9540 -1.1220
  202MOL    H2828570   1.565   0.706   0.750  0.2157  1.0751  0.0838
  202MOL    H2928571   1.693   0.522   0.869 -3.9458 -0.5032 -0.1484
  202MOL    C3028572   1.560   0.598   1.026  0.5600 -0.3051  0.3159
  202MOL    C3128573   1.427   0.582   0.952  0.3013 -0.3936 -0.0992
  202MOL    C3228574   1.441   0.470   0.852  0.4093  0.2080 -0.3266
  202MOL    N3328575   1.453   0.390   0.771  1.0574 -0.5966 -0.2280
  202MOL    H3428576   1.576   0.512   1.092 -2.2200 -0.3441  0.9922
  202MOL    H3528577   1.559   0.690   1.085  0.2889  0.5353 -0.9944
  202MOL    H3628578   1.395   0.666   0.890  0.4284  1.4425  2.2303
  202MOL    C3728579   1.307   0.560   1.049  0.7784 -0.1523 -0.0630
  202MOL    C3828580   1.279   0.681   1.140 -0.1207  0.0031  0.1452
  202MOL    C3928581   1.322   0.802   1.084  0.9775  0.0421  0.8395
  202MOL    N4028582   1.368   0.899   1.040 -0.1700 -0.1050  0.4025
  202MOL    H4128583   1.216   0.546   0.991 -1.2311  3.4931  2.0152
  202MOL    H4228584   1.317   0.465   1.100  3.4978  0.4781  0.6492
  202MOL    H4328585   1.337   0.674   1.232  1.1846  1.0994 -0.5694
  202MOL    C4428586   1.133   0.681   1.194  0.2740 -0.3168 -0.2981
  202MOL    C4528587   1.111   0.776   1.309  0.1246  0.1034  0.4532
  202MOL    C4628588   1.110   0.916   1.267 -0.2907  0.2365  0.1550
  202MOL    N4728589   1.105   1.027   1.234 -0.6035 -0.2487 -0.2232
  202MOL    H4828590   1.074   0.710   1.106 -0.3231 -1.0011 -0.1252
  202MOL    H4928591   1.104   0.581   1.224 -0.5675  0.0896  0.2650
  202MOL    H5028592   1.190   0.766   1.384  1.2763 -1.2178 -0.9013
  202MOL    C5128593   0.985   0.737   1.385  0.0801  0.5435 -0.4140
  202MOL    C5228594   0.901   0.851   1.445 -0.0223  0.1513  0.1600
  202MOL    C5328595   0.769   0.799   1.492 -0.9631  0.3740  1.4259
  202MOL    N5428596   0.670   0.752   1.526  0.0105 -0.3684 -0.8183
  202MOL    H5528597   0.921   0.695   1.308 -3.1716  1.7876  1.5085
  202MOL    H5628598   1.000   0.661   1.461 -2.0759 -1.7946 -2.2346
  202MOL    H5728599   0.878   0.925   1.368  0.2057  1.1579  1.0354
  202MOL    C5828600   0.970   0.925   1.565  0.8818  0.0396  0.9051
  202MOL    C5928601   0.896   1.046   1.620 -0.2815  0.0538 -0.4174
  202MOL    C6028602   0.799   1.097   1.527  0.4817  0.3599  0.3412
  202MOL    N6128603   0.722   1.134   1.443  0.3953  0.7347 -0.8946
  202MOL    H6228604   0.995   0.856   1.644 -0.2163 -1.4364 -0.0094
  202MOL    H6328605   1.068   0.953   1.526  0.8602  0.3425  1.0631
  202MOL    H6428606   0.975   1.121   1.630 -0.4376  0.2430 -0.5847
  202MOL    C6528607   0.828   1.024   1.755  0.1002  0.0223 -0.2031
  202MOL    C6628608   0.846   1.148   1.850  0.0377  0.0048 -0.1013
  202MOL    C6728609   0.762   1.116   1.970  0.5429 -0.2746  0.5766
  202MOL    N6828610   0.703   1.095   2.066  0.0482  0.6199 -0.0369
  202MOL    H6928611   0.720   1.020   1.738 -0.4225  0.9079  2.6082
  202MOL    H7028612   0.860   0.926   1.790 -2.1529 -2.3866 -4.5193
  202MOL    H7128613   0.813   1.233   1.791  0.6422 -1.2157 -2.2355
  202MOL    C7228614   0.999   1.153   1.896 -0.0661  0.4751 -0.2673
  202MOL    C7328615   1.030   1.290   1.974 -0.2579  0.4893 -0.3467
  202MOL    C7428616   1.170   1.287   2.012  0.2810  0.6525 -0.0675
  202MOL    N7528617   1.284   1.284   2.027 -0.0741  0.1916  0.2670
  202MOL    H7628618   1.034   1.070   1.957  0.1200 -0.8957 -2.1871
  202MOL    H7728619   1.067   1.135   1.813  1.2858 -0.8114  1.1045
  202MOL    H7828620   0.967   1.279   2.063  0.1141 -0.0780 -0.1495
  202MOL    C7928621   1.001   1.425   1.909 -0.0403  0.2631  0.5233
  202MOL    C8028622   1.091   1.476   1.792  0.7000  0.7511 -0.3139
  202MOL    C8128623   1.093   1.385   1.673 -0.3313 -0.1003  0.0277
  202MOL    N8228624   1.088   1.313   1.580  0.7172 -0.4400 -0.7172
  202MOL    H8328625   0.895   1.433   1.885  0.0624 -4.2146 -2.0319
  202MOL    H8428626   1.019   1.495   1.990  0.6637  1.4197 -0.6304
  202MOL    H8528627   1.193   1.484   1.831  0.5808  0.7816 -0.0100
  202MOL    C8628628   1.037   1.619   1.753  0.3918  0.2268  0.2379
  202MOL    C8728629   1.104   1.675   1.629  0.7017  0.5643 -0.4820
  202MOL    C8828630   1.245   1.652   1.636  0.2467  0.5483 -0.0086
  202MOL    N8928631   1.355   1.641   1.639  0.5962 -0.0164  0.3964
  202MOL    H9028632   0.930   1.618   1.735  0.1936  3.9465  0.7293
  202MOL    H9128633   1.053   1.692   1.833 -1.3074 -1.1019  1.8203
  202MOL    H9228634   1.091   1.782   1.641 -1.2128  0.1770  1.0471
  202MOL    C9328635   1.051   1.617   1.497 -0.5735  0.0907  0.3562
  202MOL    C9428636   1.016   1.726   1.394  0.2414 -0.1856 -0.1141
  202MOL    C9528637   1.101   1.844   1.414  0.5232 -0.1261 -0.0915
  202MOL    N9628638   1.165   1.942   1.426 -0.0059  0.2831  0.1832
  202MOL    H9728639   1.130   1.556   1.454 -1.2232 -1.5169  1.4131
  202MOL    H9828640   0.964   1.556   1.520  1.2633 -2.5771  0.3876
  202MOL    H9928641   0.915   1.755   1.426 -0.3256  0.8929 -2.7872
  202MOL   C10028642   1.022   1.674   1.248  0.1257 -0.1878  0.0089
  202MOL   C10128643   0.928   1.556   1.224 -0.3516  0.0996 -0.1509
  202MOL   C10228644   0.785   1.575   1.273 -0.2033 -0.1020 -0.3553
  202MOL   N10328645   0.679   1.586   1.313  0.0812 -0.1854  0.1562
  202MOL   H10428646   1.007   1.752   1.174 -1.3632 -1.7789 -1.4203
  202MOL   H10528647   1.123   1.646   1.218 -0.5903 -2.0888 -0.7154
  202MOL   H10628648   0.962   1.464   1.273  0.7518 -0.8236 -2.5465
  202MOL   C10728649   0.924   1.511   1.073  0.6024 -0.7889 -0.7791
  202MOL   C10828650   0.817   1.409   1.046  0.5305 -0.1323 -0.2415
  202MOL   C10928651   0.809   1.390   0.902  0.3010 -0.1906 -0.2420
  202MOL   N11028652   0.800   1.368   0.788 -0.2836  0.0447 -0.3184
  202MOL   H11128653   0.898   1.599   1.016 -0.2433  0.2093  1.0993
  202MOL   H11228654   1.021   1.477   1.034  1.4121 -0.4219  0.8520
  202MOL   H11328655   0.721   1.453   1.070  1.8033  0.7089  3.6109
  202MOL   C11428656   0.832   1.273   1.120 -0.3739 -0.0166  0.5433
  202MOL   C11528657   0.732   1.173   1.089  0.1224  0.2405 -0.3714
  202MOL   C11628658   0.766   1.034   1.128  0.2416  0.2835  0.5167
  202MOL   N11728659   0.781   0.925   1.162  0.2433  1.0328 -0.9566
  202MOL   H11828660   0.925   1.240   1.074 -0.8094  1.8174 -1.8024
  202MOL   H11928661   0.842   1.293   1.227 -2.7975  0.7853  0.6545
  202MOL   H12028662   0.724   1.155   0.982 -0.9206 -1.2825 -0.0577
  202MOL   C12128663   0.590   1.219   1.126 -0.0195 -0.0206  0.0980
  202MOL   C12228664   0.478   1.111   1.114 -0.1567  0.0224 -0.2566
  202MOL   C12328665   0.488   1.007   1.217  0.8204  0.5727 -0.1912
  202MOL   N12428666   0.493   0.931   1.307 -0.2779  0.0093  0.7598
  202MOL   H12528667   0.588   1.256   1.229  3.3928 -1.5083  0.7622
  202MOL   H12628668   0.557   1.298   1.058 -0.0700 -0.6979 -0.6727
  202MOL   H12728669   0.484   1.058   1.019  0.4855 -2.3997  1.0744
  202MOL   C12828670   0.340   1.183   1.137 -0.1649 -0.0761  0.4258
  202MOL   C12928671   0.217   1.088   1.156  0.0799  0.4565 -0.2658
  202MOL   C13028672   0.124   1.151   1.252  0.1447  0.2367 -0.1992
  202MOL   N13128673   0.048   1.194   1.327 -0.0008 -0.1470 -0.0703
  202MOL   H13228674   0.351   1.231   1.234 -1.4053 -0.9268  0.9842
  202MOL   H13328675   0.325   1.264   1.065 -1.2473 -0.3099  0.3861
  202MOL   H13428676   0.241   1.017   1.235 -1.3363  0.6283  0.3195
  202MOL   C13528677   0.151   1.020   1.035 -0.0271 -0.3388  0.4817
  202MOL   C13628678   0.101   1.111   0.923 -0.6394  0.5901  0.2507
  202MOL   C13728679   8.310   1.208   0.974  0.3794  0.1903  0.8695
  202MOL   N13828680   8.231   1.282   1.017  0.5892  0.2823  0.1626
  202MOL   H13928681   0.215   0.945   0.987  0.9597  0.1719  0.9905
  202MOL   H14028682   0.062   0.968   1.072  1.2150 -1.4936  1.9407
  202MOL   H14128683   0.047   1.054   0.847 -1.4966 -1.7078  2.4768
  202MOL   H14228684   0.180   1.164   0.870 -0.0557 -1.9066 -1.4753
  203MOL     C128685   2.312   5.597   5.744  1.0280 -0.4409  0.1130
  203MOL     C228686   2.266   5.501   5.643  0.8017  0.5519  0.4052
  203MOL     C328687   2.384   5.420   5.600 -0.4107 -0.6304 -0.0646
  203MOL     N428688   2.471   5.351   5.564  0.2771 -0.1874 -0.2483
  203MOL     H528689   2.400   5.647   5.704  1.4340 -1.2851 -0.0549
  203MOL     H628690   2.351   5.546   5.832 -1.6197  0.4589  1.8726
  203MOL     H728691   2.249   5.560   5.553  0.0193 -0.8242 -0.3661
  203MOL     H828692   2.245   5.680   5.766 -1.1307 -1.9926 -0.4424
  203MOL     C928693   2.131   5.422   5.674 -0.5358  0.0606 -0.0860
  203MOL    C1028694   2.150   5.299   5.763 -0.8280 -0.5667  1.0222
  203MOL    C1128695   2.213   5.335   5.886 -0.2479 -0.2225  0.2039
  203MOL    N1228696   2.263   5.360   5.985  0.4059 -0.2073  0.0687
  203MOL    H1328697   2.058   5.493   5.714 -2.1046 -2.0403  0.8419
  203MOL    H1428698   2.108   5.394   5.571 -1.7806 -0.6000  0.3741
  203MOL    H1528699   2.223   5.230   5.721  0.8114  1.7430 -0.0259
  203MOL    C1628700   2.027   5.207   5.774 -0.1649 -0.1285  0.1775
  203MOL    C1728701   1.908   5.262   5.853 -0.0335 -0.4038  0.4512
  203MOL    C1828702   1.792   5.189   5.802 -0.0869 -0.3307 -0.5569
  203MOL    N1928703   1.704   5.125   5.766 -0.3038  0.0142  0.0251
  203MOL    H2028704   2.013   5.195   5.667  0.1935  0.2917  0.0809
  203MOL    H2128705   2.062   5.112   5.814  0.6042 -0.0948 -0.4060
  203MOL    H2228706   1.909   5.367   5.825  1.0336 -1.0476 -2.0740
  203MOL    C2328707   1.926   5.255   6.009 -0.2221 -0.2445 -0.5503
  203MOL    C2428708   1.818   5.336   6.084  0.2695 -0.0498  0.0774
  203MOL    C2528709   1.693   5.259   6.084 -0.1944 -0.3576  0.2217
  203MOL    N2628710   1.594   5.203   6.089  0.1479  0.5836 -0.1734
  203MOL    H2728711   1.925   5.150   6.036 -1.9524  0.1874  1.1480
  203MOL    H2828712   2.028   5.283   6.033  0.4266 -0.7885 -2.5415
  203MOL    H2928713   1.787   5.421   6.023 -2.8135 -0.8445  0.4376
  203MOL    C3028714   1.853   5.380   6.225 -0.0716  0.0835  0.1294
  203MOL    C3128715   1.743   5.461   6.298  0.0056 -0.3011 -0.4204
  203MOL    C3228716   1.753   5.462   6.446 -0.0345  0.5869  0.2246
  203MOL    N3328717   1.763   5.452   6.563  0.5338 -0.3979  0.3961
  203MOL    H3428718   1.885   5.294   6.283  3.3481  2.0424  1.2816
  203MOL    H3528719   1.947   5.434   6.232  0.0008 -0.0545  0.2240
  203MOL    H3628720   1.647   5.411   6.287 -1.3898  2.0139  1.0255
  203MOL    C3728721   1.737   5.613   6.256  0.1833  0.3765 -0.4127
  203MOL    C3828722   1.601   5.665   6.198 -0.1871 -0.1935 -0.7599
  203MOL    C3928723   1.499   5.626   6.300 -0.9260  0.3828 -0.4599
  203MOL    N4028724   1.417   5.596   6.377 -0.4423  0.6356  0.2813
  203MOL    H4128725   1.749   5.675   6.345 -2.9958  0.3574  0.0831
  203MOL    H4228726   1.809   5.646   6.180  1.0518  2.2476  1.1845
  203MOL    H4328727   1.586   5.612   6.104 -0.0685 -2.2493  0.3370
  203MOL    C4428728   1.606   5.806   6.181 -0.8102 -0.0860  0.7020
  203MOL    C4528729   1.469   5.863   6.141  0.6175 -0.0533 -0.2474
  203MOL    C4628730   1.466   6.007   6.186  0.0375  0.2724 -0.0744
  203MOL    N4728731   1.475   6.120   6.216  0.3921 -0.2960  0.1856
  203MOL    H4828732   1.618   5.843   6.283 -0.3976 -0.3934  0.7641
  203MOL    H4928733   1.694   5.827   6.119 -0.0815 -1.6149  1.1994
  203MOL    H5028734   1.382   5.816   6.186  1.0896 -1.8897 -1.2039
  203MOL    C5128735   1.450   5.849   5.988  0.2011  0.0118 -0.1897
  203MOL    C5228736   1.310   5.893   5.924 -0.6515 -0.3186  0.3459
  203MOL    C5328737   1.294   6.036   5.936 -0.0286 -1.2897  0.0819
  203MOL    N5428738   1.274   6.148   5.942  0.1756  0.0383 -0.4911
  203MOL    H5528739   1.529   5.900   5.933 -1.6135  3.2874  0.1261
  203MOL    H5628740   1.460   5.742   5.971  0.4687  0.0188 -0.0782
  203MOL    H5728741   1.238   5.836   5.981 -3.4408  1.8264 -0.9268
  203MOL    C5828742   1.303   5.880   5.767  0.6443  0.0144 -0.0868
  203MOL    C5928743   1.337   5.744   5.715  0.1399  0.9716  0.8504
  203MOL    C6028744   1.225   5.651   5.738  0.2255 -0.2016 -0.1766
  203MOL    N6128745   1.135   5.579   5.751  0.2869  0.7220 -0.6561
  203MOL    H6228746   1.201   5.904   5.739  0.1554 -0.0949  1.5113
  203MOL    H6328747   1.377   5.951   5.730  0.9560  0.3032  1.0683
  203MOL    H6428748   1.425   5.717   5.773 -0.8797 -1.9436  1.1555
  203MOL    C6528749   1.385   5.731   5.566  0.2820  1.1619  0.0775
  203MOL    C6628750   1.501   5.821   5.533  0.1611  0.0892  0.1397
  203MOL    C6728751   1.605   5.826   5.641  0.1850  0.6458  0.2624
  203MOL    N6828752   1.686   5.824   5.727  0.5368 -0.2040  0.7246
  203MOL    H6928753   1.424   5.630   5.568 -1.5148  0.4708  1.8468
  203MOL    H7028754   1.307   5.741   5.491  2.2439 -2.8631 -2.6520
  203MOL    H7128755   1.470   5.925   5.530  0.1769  0.1109  0.7800
  203MOL    C7228756   1.565   5.800   5.394 -0.1566  0.5043 -0.4083
  203MOL    C7328757   1.631   5.658   5.373  0.1441 -0.0360  0.1333
  203MOL    C7428758   1.528   5.560   5.361  1.1134  0.5896  0.1553
  203MOL    N7528759   1.440   5.481   5.343  0.8056 -0.4806 -0.0895
  203MOL    H7628760   1.507   5.833   5.307 -0.3074  0.3850 -0.3545
  203MOL    H7728761   1.642   5.877   5.393  1.6171 -1.2690 -1.4890
  203MOL    H7828762   1.691   5.630   5.460  1.2218 -0.1620 -0.6405
  203MOL    C7928763   1.714   5.650   5.245  0.3485 -0.4674 -0.2190
  203MOL    C8028764   1.853   5.724   5.251  0.0877  0.2123 -0.6268
  203MOL    C8128765   1.948   5.641   5.327  0.1193 -0.0231 -0.2553
  203MOL    N8228766   2.022   5.572   5.384 -0.4553  0.0230  0.1457
  203MOL    H8328767   1.737   5.546   5.219 -1.6955 -0.7645 -0.9273
  203MOL    H8428768   1.656   5.693   5.164  1.1658  0.5173 -0.2886
  203MOL    H8528769   1.848   5.807   5.322 -1.0878 -0.6370  0.3023
  203MOL    C8628770   1.896   5.765   5.111 -0.1498 -0.2541  0.6162
  203MOL    C8728771   2.049   5.800   5.097 -0.5993 -0.8618 -0.7627
  203MOL    C8828772   2.093   5.785   4.957  0.1951  0.0553 -0.7554
  203MOL    N8928773   2.125   5.773   4.848  0.6702 -0.6080 -0.3000
  203MOL    H9028774   1.872   5.676   5.053 -2.7937 -0.0196  1.2841
  203MOL    H9128775   1.835   5.839   5.060 -2.6893 -2.5781  0.1954
  203MOL    H9228776   2.112   5.727   5.148  1.6703  2.0847  0.8042
  203MOL    C9328777   2.080   5.934   5.169 -0.1168 -0.5297 -0.5562
  203MOL    C9428778   2.220   5.941   5.233  0.5566 -0.3790  0.2407
  203MOL    C9528779   2.326   5.906   5.136  0.0479  0.3069  0.0111
  203MOL    N9628780   2.408   5.883   5.060  0.2976 -0.5903  0.3655
  203MOL    H9728781   2.063   6.007   5.089  1.4785 -0.3551 -0.7463
  203MOL    H9828782   2.006   5.968   5.242 -1.0174  1.1588 -2.2125
  203MOL    H9928783   2.225   5.860   5.306 -0.9380 -0.4656  0.2567
  203MOL   C10028784   2.263   6.070   5.306  0.1722  0.0611  0.1032
  203MOL   C10128785   2.171   6.118   5.425  0.0952  0.9814 -0.5827
  203MOL   C10228786   2.119   6.004   5.508  0.4039 -0.3000 -0.5903
  203MOL   N10328787   2.079   5.921   5.568 -0.5193  0.1671 -0.4182
  203MOL   H10428788   2.358   6.049   5.356 -0.2692 -1.0398  0.4990
  203MOL   H10528789   2.276   6.148   5.232 -0.4098 -0.9165 -1.0434
  203MOL   H10628790   2.075   6.148   5.385 -0.9205 -0.5439  0.6531
  203MOL   C10728791   2.209   6.247   5.500  0.2319  0.0786  0.1249
  203MOL   C10828792   2.330   6.243   5.600 -0.3238  0.6029 -0.9650
  203MOL   C10928793   2.456   6.209   5.516  0.2689 -0.7476  0.2157
  203MOL   N11028794   2.554   6.181   5.457  0.5433  0.2872  0.1756
  203MOL   H11128795   2.242   6.330   5.438  2.1568  0.8034  2.0279
  203MOL   H11228796   2.124   6.282   5.558  0.4412  0.4019  0.2390
  203MOL   H11328797   2.299   6.167   5.672 -3.3891  2.4888 -0.2021
  203MOL   C11428798   2.332   6.375   5.684 -0.3761  0.4440 -0.1560
  203MOL   C11528799   2.436   6.471   5.623  0.1186 -0.1313 -0.0637
  203MOL   C11628800   2.379   6.535   5.508  0.8969  0.4713  0.6329
  203MOL   N11728801   2.341   6.589   5.414  0.5222 -0.1256 -0.1771
  203MOL   H11828802   2.237   6.427   5.695 -0.6119 -0.1578  0.6060
  203MOL   H11928803   2.355   6.340   5.784  0.8159  0.0246 -0.5622
  203MOL   H12028804   2.523   6.419   5.583  0.1709 -1.3059  1.5295
  203MOL   C12128805   2.488   6.575   5.717 -0.0605  0.1319  0.7733
  203MOL   C12228806   2.598   6.651   5.650 -0.5727  0.3418 -0.0131
  203MOL   C12328807   2.596   6.789   5.704 -0.1183  0.0170  0.6183
  203MOL   N12428808   2.596   6.896   5.742  1.0124 -0.3482  0.4567
  203MOL   H12528809   2.409   6.650   5.732 -0.6493  0.2158 -2.5063
  203MOL   H12628810   2.514   6.544   5.818  0.9534 -4.6649 -0.8434
  203MOL   H12728811   2.582   6.653   5.542 -0.6333  2.7218  0.0280
  203MOL   C12828812   2.731   6.564   5.683  0.1098  0.4666 -0.4629
  203MOL   C12928813   2.822   6.554   5.564 -0.1943  0.5541  0.0940
  203MOL   C13028814   2.949   6.509   5.616  0.2186  0.6023 -1.2856
  203MOL   N13128815   3.051   6.461   5.655 -0.1949  0.4645 -0.0114
  203MOL   H13228816   2.762   6.620   5.771 -0.2937 -0.8315  0.5224
  203MOL   H13328817   2.708   6.462   5.713 -0.9667  0.8849  0.1708
  203MOL   H13428818   2.834   6.658   5.532 -0.5523  0.1213 -1.4875
  203MOL   C13528819   2.771   6.461   5.456 -0.6828  0.0407  1.1719
  203MOL   C13628820   2.846   6.456   5.324  0.2681  0.0842 -0.5348
  203MOL   C13728821   2.800   6.351   5.233 -0.5688 -0.2429 -0.2709
  203MOL   N13828822   2.769   6.267   5.165  0.2904  0.7144  0.8536
  203MOL   H13928823   2.764   6.367   5.511 -0.7128  0.1957  1.4347
  203MOL   H14028824   2.666   6.466   5.429  0.1495 -1.6706 -2.8809
  203MOL   H14128825   2.949   6.427   5.342 -0.2151 -1.7212 -0.5776
  203MOL   H14228826   2.850   6.555   5.277  0.8384  0.3994  0.1744
  204MOL     C128827   2.776   7.954   5.027  1.1437  0.5699  0.3243
  204MOL     C228828   2.801   7.990   4.878  0.7750 -0.3493 -0.0378
  204MOL     C328829   2.883   8.116   4.880  0.1042  0.2158  0.5357
  204MOL     N428830   2.943   8.214   4.877  0.4762  0.0717  0.5591
  204MOL     H528831   2.690   7.889   5.042  0.3406  1.6286  0.3251
  204MOL     H628832   2.744   8.044   5.079  0.4135 -0.0772  1.0003
  204MOL     H728833   2.713   8.027   4.825  0.3048 -2.0532 -0.4844
  204MOL     H828834   2.861   7.915   5.083  0.8344  1.2721  1.2848
  204MOL     C928835   2.858   7.879   4.784 -0.6036 -0.2847 -0.0072
  204MOL    C1028836   2.778   7.747   4.800  0.2956 -0.0238 -0.3244
  204MOL    C1128837   2.646   7.762   4.744 -0.3585  0.8129  0.6808
  204MOL    N1228838   2.545   7.767   4.704 -0.1174 -0.5898  0.2656
  204MOL    H1328839   2.854   7.900   4.678  0.9269  0.0067 -0.0162
  204MOL    H1428840   2.963   7.869   4.813 -0.0937  1.4602 -1.2062
  204MOL    H1528841   2.759   7.731   4.907 -2.0382  1.7681 -0.4325
  204MOL    C1628842   2.858   7.634   4.741 -0.1553  0.2136  0.3250
  204MOL    C1728843   2.968   7.582   4.831  0.8017 -0.5099  0.8343
  204MOL    C1828844   2.900   7.533   4.953 -0.5438 -0.5769 -0.2239
  204MOL    N1928845   2.852   7.493   5.051 -0.0838  0.1103  0.0173
  204MOL    H2028846   2.792   7.551   4.718  1.1430 -0.5835 -0.5326
  204MOL    H2128847   2.902   7.659   4.645 -0.7939 -0.6690 -0.2033
  204MOL    H2228848   3.020   7.674   4.857 -0.5317  0.3037  0.6686
  204MOL    C2328849   3.060   7.477   4.766 -0.1748  0.2762 -0.5430
  204MOL    C2428850   3.004   7.344   4.720  0.4555 -1.2031  0.0152
  204MOL    C2528851   2.957   7.341   4.585  0.0647 -0.1210 -0.6088
  204MOL    N2628852   2.916   7.335   4.476 -0.0072  0.3477  0.6605
  204MOL    H2728853   3.114   7.531   4.688  1.6067 -0.1381  0.3835
  204MOL    H2828854   3.138   7.460   4.840  0.6553  2.2856 -0.9206
  204MOL    H2928855   2.911   7.343   4.778 -0.0632  0.2022 -0.7631
  204MOL    C3028856   3.075   7.218   4.773 -0.2011  0.3630 -0.8144
  204MOL    C3128857   3.016   7.079   4.731 -1.2152 -0.1739  0.9917
  204MOL    C3228858   3.034   7.032   4.588  0.0778  0.2278  0.3312
  204MOL    N3328859   3.045   6.994   4.479  0.4907 -0.0216 -0.3245
  204MOL    H3428860   3.174   7.228   4.729  0.1956 -0.0193 -0.0077
  204MOL    H3528861   3.087   7.233   4.880 -1.8073 -2.4023 -0.1966
  204MOL    H3628862   2.909   7.077   4.752 -0.8288  1.0000  3.1873
  204MOL    C3728863   3.085   6.978   4.822 -0.3853  0.3841  0.0407
  204MOL    C3828864   3.012   6.951   4.954 -0.0114  0.5909 -0.4378
  204MOL    C3928865   2.877   6.890   4.935  0.5468  0.5569 -0.2332
  204MOL    N4028866   2.774   6.846   4.909  0.3795 -0.3750  1.0209
  204MOL    H4128867   3.074   6.887   4.764  1.0461 -1.0412  1.9467
  204MOL    H4228868   3.191   6.994   4.840 -0.4367 -0.3325  1.0176
  204MOL    H4328869   2.990   7.047   5.001 -0.9103 -0.4301  1.2616
  204MOL    C4428870   3.093   6.859   5.042  0.0201 -0.3904 -0.0663
  204MOL    C4528871   3.038   6.875   5.189 -0.1966  0.0711  0.1595
  204MOL    C4628872   3.081   6.762   5.271 -0.1511  0.2844 -0.0060
  204MOL    N4728873   3.119   6.672   5.334  0.2438 -0.3969 -0.2471
  204MOL    H4828874   3.089   6.756   5.007  2.7914  0.2393 -2.5016
  204MOL    H4928875   3.196   6.895   5.044  0.1040 -0.6409  1.8229
  204MOL    H5028876   2.930   6.863   5.195 -0.2749  0.8833  0.4406
  204MOL    C5128877   3.088   7.008   5.257  0.0969 -0.4490  0.5310
  204MOL    C5228878   3.048   7.038   5.395  0.1797  0.2209 -0.1407
  204MOL    C5328879   3.137   7.143   5.439  0.5518  0.5691 -0.0641
  204MOL    N5428880   3.206   7.227   5.482 -0.0068 -0.0737 -0.8862
  204MOL    H5528881   3.197   7.012   5.253  0.1236 -1.6888 -0.5102
  204MOL    H5628882   3.049   7.094   5.201  2.1821  1.3143  1.7029
  204MOL    H5728883   3.069   6.951   5.457 -0.4635  0.6558  0.6999
  204MOL    C5828884   2.903   7.080   5.415 -0.2972 -0.1226  0.3787
  204MOL    C5928885   2.873   7.081   5.569  0.0704  0.4612  0.6802
  204MOL    C6028886   2.895   6.955   5.637  0.7198  0.1427 -0.9353
  204MOL    N6128887   2.910   6.854   5.688  0.2398  0.1314 -0.3436
  204MOL    H6228888   2.873   7.171   5.362  2.6984 -0.3655 -1.8878
  204MOL    H6328889   2.839   7.004   5.369  2.1133 -0.9341 -1.6968
  204MOL    H6428890   2.764   7.084   5.565 -0.0129 -2.2442 -0.2180
  204MOL    C6528891   2.925   7.207   5.647  0.2081  0.3129  0.4814
  204MOL    C6628892   2.846   7.266   5.762  0.0330  0.2541 -0.3615
  204MOL    C6728893   2.835   7.167   5.868  0.3668 -0.1473 -0.3562
  204MOL    N6828894   2.830   7.085   5.948 -0.1248 -0.1669 -0.7273
  204MOL    H6928895   3.024   7.185   5.688  1.7139  0.6126 -2.8019
  204MOL    H7028896   2.935   7.287   5.574  0.7711 -0.9250 -0.8275
  204MOL    H7128897   2.750   7.307   5.730 -0.3608  0.3004  0.8338
  204MOL    C7228898   2.927   7.390   5.819  0.4263  0.2148  0.3122
  204MOL    C7328899   2.863   7.470   5.938  0.0615  0.2340  0.4727
  204MOL    C7428900   2.932   7.599   5.942 -0.3308 -0.2448 -0.0773
  204MOL    N7528901   2.985   7.700   5.944  0.2807 -0.3380 -0.9033
  204MOL    H7628902   3.021   7.354   5.861  0.6888  0.4670 -0.0505
  204MOL    H7728903   2.952   7.450   5.732  3.2007 -2.6699 -1.0043
  204MOL    H7828904   2.880   7.421   6.034  2.4994 -1.8545 -0.9775
  204MOL    C7928905   2.710   7.485   5.931 -0.0426  0.8235 -0.4455
  204MOL    C8028906   2.645   7.558   6.046 -0.1018 -0.5449  0.4665
  204MOL    C8128907   2.681   7.500   6.179  0.2969 -0.3936 -0.6551
  204MOL    N8228908   2.715   7.463   6.284 -0.0701  0.4177 -0.1438
  204MOL    H8328909   2.683   7.522   5.832  1.1130  0.1840 -1.0087
  204MOL    H8428910   2.669   7.384   5.929  3.0305 -0.5327  0.9478
  204MOL    H8528911   2.538   7.537   6.038 -0.4375  2.0379 -3.0084
  204MOL    C8628912   2.670   7.713   6.055 -0.3232  0.2711 -0.7340
  204MOL    C8728913   2.549   7.783   6.116 -0.6887 -0.0737 -0.2593
  204MOL    C8828914   2.577   7.872   6.232  0.4788 -0.4156  0.6503
  204MOL    N8928915   2.597   7.942   6.322 -0.4705 -0.5190 -0.0669
  204MOL    H9028916   2.753   7.747   6.118  0.6091 -0.9432 -1.2985
  204MOL    H9128917   2.699   7.750   5.957  3.1926  0.0275  0.1502
  204MOL    H9228918   2.477   7.710   6.153 -0.7444 -0.6117 -1.3887
  204MOL    C9328919   2.469   7.860   6.008 -0.3220 -0.4473  0.1216
  204MOL    C9428920   2.326   7.896   6.043  0.3034 -1.5509 -0.6213
  204MOL    C9528921   2.280   8.008   5.971  0.1290  0.1485 -0.2094
  204MOL    N9628922   2.233   8.090   5.907  0.3175  0.0947 -0.5150
  204MOL    H9728923   2.536   7.945   5.990 -0.1348 -0.9993 -1.9074
  204MOL    H9828924   2.471   7.806   5.913  1.3755 -0.4319  0.1303
  204MOL    H9928925   2.316   7.934   6.145 -1.4531  0.2383 -1.4123
  204MOL   C10028926   2.231   7.777   6.020  0.1566  0.5191  0.2454
  204MOL   C10128927   2.109   7.779   6.108 -0.3949 -0.2952  0.0268
  204MOL   C10228928   2.021   7.892   6.072 -0.1008  0.0967  0.1547
  204MOL   N10328929   1.948   7.974   6.046  0.2888  0.3056 -0.9445
  204MOL   H10428930   2.213   7.756   5.915  0.2536  1.7409 -0.0149
  204MOL   H10528931   2.295   7.692   6.044  0.2356 -0.2666 -2.5412
  204MOL   H10628932   2.148   7.793   6.209 -1.2171  0.4481  0.2427
  204MOL   C10728933   2.028   7.643   6.107 -0.2035 -0.0373  0.5467
  204MOL   C10828934   1.898   7.625   6.029 -0.0062 -0.4793 -0.1214
  204MOL   C10928935   1.904   7.690   5.898  0.0631  0.8699  0.2730
  204MOL   N11028936   1.912   7.743   5.793 -0.3298 -0.4903 -0.1035
  204MOL   H11128937   2.104   7.572   6.075 -0.1329 -0.6168  1.9485
  204MOL   H11228938   1.999   7.606   6.205 -1.7935 -1.4893 -0.4451
  204MOL   H11328939   1.826   7.679   6.091  1.8930  1.8439  0.1210
  204MOL   C11428940   1.853   7.474   6.008  0.1235 -0.1889  0.2797
  204MOL   C11528941   1.714   7.448   5.955  0.1490  0.0306  0.0443
  204MOL   C11628942   1.692   7.305   5.930 -0.1398  0.2084 -0.9565
  204MOL   N11728943   1.680   7.190   5.915  0.3148  0.2758 -0.3244
  204MOL   H11828944   1.919   7.415   5.944  0.6013 -0.5738  1.1178
  204MOL   H11928945   1.843   7.433   6.108 -2.1530  0.5215  0.3771
  204MOL   H12028946   1.709   7.494   5.855  0.7393 -0.5868 -0.2678
  204MOL   C12128947   1.604   7.523   6.031  0.4716  0.3563 -0.2288
  204MOL   C12228948   1.540   7.453   6.152  0.1964  0.3510  0.9282
  204MOL   C12328949   1.635   7.450   6.264 -1.2406 -0.6835  0.0688
  204MOL   N12428950   1.716   7.457   6.343 -0.9528 -0.0520  0.7496
  204MOL   H12528951   1.636   7.624   6.057 -0.2688  0.1557  1.5113
  204MOL   H12628952   1.531   7.542   5.952  1.7348 -0.7587 -1.6927
  204MOL   H12728953   1.520   7.353   6.114  2.2596  0.1173  0.3617
  204MOL   C12828954   1.397   7.497   6.193 -0.6211  0.5794  0.0319
  204MOL   C12928955   1.321   7.399   6.288 -0.3114  0.3753  0.3766
  204MOL   C13028956   1.400   7.358   6.404  1.1338  0.5507 -0.4887
  204MOL   N13128957   1.454   7.330   6.504  0.6221 -0.0746 -0.0454
  204MOL   H13228958   1.392   7.584   6.258  0.4615  0.0104  0.8862
  204MOL   H13328959   1.340   7.519   6.103 -1.4752  0.1235  0.4544
  204MOL   H13428960   1.314   7.309   6.228 -1.1650 -1.3017  2.9389
  204MOL   C13528961   1.183   7.455   6.321 -0.7941  0.2507  0.1043
  204MOL   C13628962   1.095   7.357   6.408  0.7016  1.2713  0.2838
  204MOL   C13728963   1.057   7.232   6.336  0.2297 -0.4283  0.7392
  204MOL   N13828964   1.033   7.136   6.276 -0.4878 -0.6009  0.9398
  204MOL   H13928965   1.203   7.547   6.376 -0.6198  0.3355 -0.1045
  204MOL   H14028966   1.135   7.480   6.227  0.0534  0.3841 -0.2975
  204MOL   H14128967   0.996   7.395   6.431  0.7439  1.3853  0.2763
  204MOL   H14228968   1.155   7.329   6.495 -0.1864 -0.1772  0.4474
  205MOL     C128969   3.417   2.077   1.875 -0.0103  0.0995  1.0002
  205MOL     C228970   3.423   1.938   1.936  0.4667 -0.2155  0.0160
  205MOL     C328971   3.541   1.903   2.020  0.5324 -0.5547  0.1123
  205MOL     N428972   3.633   1.876   2.088  0.3361  0.1328 -0.5020
  205MOL     H528973   3.507   2.114   1.826  0.5219 -0.0789  1.8256
  205MOL     H628974   3.407   2.145   1.960  3.8724  0.2428  1.4386
  205MOL     H728975   3.425   1.869   1.852  0.5343  1.3780 -1.3131
  205MOL     H828976   3.329   2.105   1.817 -0.4511 -2.5910  0.2992
  205MOL     C928977   3.295   1.911   2.016  0.0540  0.7189  0.3664
  205MOL    C1028978   3.176   1.885   1.918  0.1301  0.1192 -0.6591
  205MOL    C1128979   3.201   1.770   1.831  0.3488  0.1386 -0.6336
  205MOL    N1228980   3.220   1.676   1.764 -0.0281 -0.2011  0.7864
  205MOL    H1328981   3.305   1.815   2.068 -3.9917  0.8054  1.4837
  205MOL    H1428982   3.283   1.990   2.090 -1.8353 -0.7255  1.6746
  205MOL    H1528983   3.162   1.976   1.859 -0.6003  0.3904 -0.0718
  205MOL    C1628984   3.031   1.871   1.980  0.1607  0.2652  0.0441
  205MOL    C1728985   2.916   1.907   1.884 -0.2765  0.0702 -0.4861
  205MOL    C1828986   2.892   1.799   1.785  0.2005  0.0179  0.1860
  205MOL    N1928987   2.874   1.712   1.712  0.2842  0.2471 -0.0330
  205MOL    H2028988   3.017   1.766   2.009  0.3544 -0.5772 -2.7819
  205MOL    H2128989   3.033   1.924   2.075 -0.5104 -1.4923  1.0652
  205MOL    H2228990   2.940   1.994   1.822  1.2986  0.9356  1.3001
  205MOL    C2328991   2.794   1.963   1.963 -0.1887 -0.3403  0.4034
  205MOL    C2428992   2.671   2.005   1.883  0.9803  0.0338 -0.3048
  205MOL    C2528993   2.599   1.891   1.816 -0.2478 -0.0591 -0.1537
  205MOL    N2628994   2.542   1.803   1.768 -0.2673 -0.0993 -0.0078
  205MOL    H2728995   2.763   1.895   2.042 -1.3425 -0.2596  0.0194
  205MOL    H2828996   2.829   2.061   1.997 -2.5056  1.0410 -1.0762
  205MOL    H2928997   2.709   2.066   1.801 -1.9909  1.4769 -0.6673
  205MOL    C3028998   2.572   2.082   1.976  0.1881 -0.1979  0.1898
  205MOL    C3128999   2.433   2.135   1.923 -0.9171 -0.8347  0.6019
  205MOL    C3229000   2.332   2.024   1.916 -0.1734  0.0303 -0.6649
  205MOL    N3329001   2.256   1.936   1.914 -0.1799  0.2218  0.4609
  205MOL    H3429002   2.543   2.017   2.059 -1.8550 -0.0376 -0.3599
  205MOL    H3529003   2.627   2.161   2.027 -1.3091  0.8948  0.1502
  205MOL    H3629004   2.445   2.155   1.817 -3.0432 -1.8825  0.1412
  205MOL    C3729005   2.381   2.263   1.988 -0.1688 -1.5035  0.6877
  205MOL    C3829006   2.322   2.232   2.124 -0.0467  0.3563 -0.1888
  205MOL    C3929007   2.434   2.253   2.218 -0.6272  0.2217 -0.3541
  205MOL    N4029008   2.530   2.268   2.282  0.0229  0.7677  0.5026
  205MOL    H4129009   2.455   2.342   1.996  1.3770 -2.5270 -2.4915
  205MOL    H4229010   2.305   2.309   1.925  0.3047  0.8420  1.7689
  205MOL    H4329011   2.292   2.127   2.129  2.5746 -0.4195  0.6193
  205MOL    C4429012   2.192   2.311   2.176 -0.6718 -0.4669  0.0142
  205MOL    C4529013   2.123   2.240   2.296 -0.6541  0.0636  0.2040
  205MOL    C4629014   2.204   2.236   2.424  0.2013 -0.5358  0.2160
  205MOL    N4729015   2.263   2.233   2.524 -0.0123 -0.4885  0.4909
  205MOL    H4829016   2.205   2.415   2.205 -0.1497 -1.2192  2.6613
  205MOL    H4929017   2.121   2.319   2.094  0.6871  0.0983 -1.1083
  205MOL    H5029018   2.118   2.138   2.258  0.1060  0.3300 -0.6235
  205MOL    C5129019   1.984   2.289   2.322 -0.7319 -0.7308 -0.1892
  205MOL    C5229020   1.872   2.176   2.331 -0.3987 -0.4579 -0.2722
  205MOL    C5329021   1.911   2.071   2.424  0.3966  0.2991  0.2820
  205MOL    N5429022   1.942   1.988   2.498 -0.1757  0.0798  0.1195
  205MOL    H5529023   1.984   2.348   2.414 -2.7057 -0.4884 -0.3330
  205MOL    H5629024   1.947   2.351   2.241 -2.3804 -0.9096  0.4106
  205MOL    H5729025   1.871   2.122   2.236 -1.7368 -2.1391  0.6645
  205MOL    C5829026   1.739   2.242   2.361 -0.4536 -0.5338  0.5193
  205MOL    C5929027   1.609   2.148   2.360  0.3037  0.0937  0.1535
  205MOL    C6029028   1.594   2.046   2.471  0.5081 -0.0734  1.0619
  205MOL    N6129029   1.581   1.963   2.553 -0.1416  0.1522 -0.3605
  205MOL    H6229030   1.737   2.287   2.460  2.1153 -0.3261  0.5267
  205MOL    H6329031   1.732   2.326   2.291  1.4308 -1.8074 -1.2778
  205MOL    H6429032   1.619   2.083   2.273  0.8877 -0.1138  0.3736
  205MOL    C6529033   1.484   2.231   2.336 -0.3011  0.0652  0.3640
  205MOL    C6629034   1.412   2.270   2.475 -0.2947 -0.4943  0.3934
  205MOL    C6729035   1.499   2.290   2.596  0.0721 -0.6239  0.2846
  205MOL    N6829036   1.561   2.301   2.690 -0.6724  0.3486 -0.1577
  205MOL    H6929037   1.497   2.320   2.274 -1.0191  0.2200  0.4248
  205MOL    H7029038   1.419   2.160   2.285 -1.1601  1.7916 -1.0198
  205MOL    H7129039   1.347   2.193   2.516 -1.1536  0.2067  0.3602
  205MOL    C7229040   1.312   2.395   2.470 -0.6099 -0.8119  0.3160
  205MOL    C7329041   1.208   2.402   2.350  0.5781  0.5234  0.6459
  205MOL    C7429042   1.167   2.267   2.322  0.7744  0.5743  0.2884
  205MOL    N7529043   1.126   2.157   2.303  0.1687  0.8842  0.2696
  205MOL    H7629044   1.260   2.402   2.565 -1.9639 -1.2752 -0.3786
  205MOL    H7729045   1.374   2.484   2.455 -1.3069 -0.2051  0.9407
  205MOL    H7829046   1.255   2.433   2.257  0.6184 -0.5287  0.3164
  205MOL    C7929047   1.088   2.498   2.386  0.1892  0.3022 -0.0164
  205MOL    C8029048   1.133   2.643   2.398  0.4710 -0.6497 -0.1304
  205MOL    C8129049   1.200   2.689   2.274 -0.4712  0.5329  0.1287
  205MOL    N8229050   1.260   2.729   2.181 -0.7137  0.5027  0.2649
  205MOL    H8329051   1.012   2.489   2.308 -1.0993  0.3790  1.2020
  205MOL    H8429052   1.055   2.482   2.489  2.1622 -0.9043  0.4544
  205MOL    H8529053   1.212   2.654   2.473 -0.7050 -1.0073  1.1856
  205MOL    C8629054   1.012   2.733   2.443 -0.3719  0.2071 -0.1591
  205MOL    C8729055   1.040   2.886   2.468  1.0008 -0.2802  0.4825
  205MOL    C8829056   0.919   2.967   2.478 -1.0158  0.2346  0.4165
  205MOL    N8929057   0.822   3.031   2.490  0.4349  0.2719 -0.3737
  205MOL    H9029058   0.935   2.732   2.366 -0.7919 -0.8098  0.2768
  205MOL    H9129059   0.968   2.689   2.532 -0.4520  1.3542  0.3832
  205MOL    H9229060   1.076   2.926   2.372 -3.1699  1.0393 -0.6290
  205MOL    C9329061   1.146   2.926   2.567 -0.1298  0.1530  0.6417
  205MOL    C9429062   1.111   2.941   2.716  0.5795  0.7539 -0.1455
  205MOL    C9529063   1.039   2.827   2.776 -0.2085 -0.0904 -0.0762
  205MOL    N9629064   0.985   2.734   2.821 -0.1133 -0.5204 -0.2227
  205MOL    H9729065   1.215   2.843   2.556 -0.9267 -0.4408  0.0713
  205MOL    H9829066   1.193   3.020   2.539  0.3138  0.3302  1.9550
  205MOL    H9929067   1.041   3.022   2.734 -0.6048  0.7015 -4.0176
  205MOL   C10029068   1.231   2.974   2.797  0.2753  0.3023  0.0134
  205MOL   C10129069   1.215   2.972   2.948  0.0367  0.8573  0.3906
  205MOL   C10229070   1.263   2.844   2.993 -0.4815 -0.0951  0.1849
  205MOL   N10329071   1.306   2.744   3.034 -0.6367  0.6545 -0.3413
  205MOL   H10429072   1.307   2.900   2.772 -0.7275 -1.3446  1.7079
  205MOL   H10529073   1.271   3.070   2.767  2.1693  0.1809  1.9692
  205MOL   H10629074   1.108   2.982   2.965 -0.1522 -0.2585 -0.1061
  205MOL   C10729075   1.284   3.095   3.016 -0.5851  0.0677  0.0318
  205MOL   C10829076   1.255   3.124   3.164  0.2798  0.3652 -0.5280
  205MOL   C10929077   1.353   3.215   3.219 -0.3538 -0.0818 -0.4596
  205MOL   N11029078   1.436   3.278   3.266 -0.1065  0.2631 -0.2011
  205MOL   H11129079   1.392   3.085   3.000 -0.0264  2.3142  2.1363
  205MOL   H11229080   1.252   3.175   2.949  0.5536 -1.1791 -2.0707
  205MOL   H11329081   1.253   3.029   3.217  1.6903  0.8653  0.4579
  205MOL   C11429082   1.113   3.192   3.185  0.7360 -0.0440  0.3214
  205MOL   C11529083   1.049   3.211   3.322 -0.8835 -0.9534  0.0237
  205MOL   C11629084   0.917   3.281   3.291 -0.0096  0.3212  0.1742
  205MOL   N11729085   0.818   3.333   3.266 -0.3185  0.4102 -0.1845
  205MOL   H11829086   1.104   3.282   3.123 -0.7624  0.2560  0.9603
  205MOL   H11929087   1.041   3.133   3.130  0.2029 -0.1814  1.1693
  205MOL   H12029088   1.105   3.295   3.363  1.2040 -2.3428  0.0880
  205MOL   C12129089   1.050   3.089   3.409  0.2245  1.1182 -0.1936
  205MOL   C12229090   0.926   3.000   3.388  0.5286 -0.6766 -0.6755
  205MOL   C12329091   0.947   2.930   3.262  0.1775 -0.5391  0.3722
  205MOL   N12429092   0.963   2.872   3.166  0.0192  0.5654  0.5245
  205MOL   H12529093   1.145   3.035   3.403  0.0487  0.6674  0.8600
  205MOL   H12629094   1.049   3.118   3.514 -0.9118  1.7411 -0.3793
  205MOL   H12729095   0.839   3.063   3.371  1.1124  0.7540  1.4126
  205MOL   C12829096   0.896   2.902   3.502 -0.5363 -0.3358  0.4561
  205MOL   C12929097   0.849   2.986   3.627  0.1578 -0.1828 -0.7711
  205MOL   C13029098   0.778   3.112   3.592  0.2948 -0.4463  0.1308
  205MOL   N13129099   0.731   3.215   3.566 -0.6148 -0.2271 -0.2620
  205MOL   H13229100   0.811   2.847   3.464 -0.6494  0.4756 -0.4924
  205MOL   H13329101   0.973   2.828   3.520 -0.4221  0.0761  1.7066
  205MOL   H13429102   0.937   3.020   3.680 -0.2735  0.4089 -0.4371
  205MOL   C13529103   0.756   2.905   3.713  0.3314 -0.4126  1.1347
  205MOL   C13629104   0.822   2.785   3.768  0.1180  0.5681 -0.3994
  205MOL   C13729105   0.745   2.708   3.865 -0.0467  0.3705 -0.6306
  205MOL   N13829106   0.687   2.649   3.947  0.4769  0.2842  0.2210
  205MOL   H13929107   0.723   2.967   3.796 -2.4544 -0.0394 -0.1891
  205MOL   H14029108   0.669   2.877   3.653 -0.8869  2.5908  1.4224
  205MOL   H14129109   0.919   2.813   3.809 -0.4496  1.2690  0.4857
  205MOL   H14229110   0.842   2.710   3.691 -3.6526 -1.1082  0.1565
  206MOL     C129111   3.633   7.463   2.364 -0.0761  0.1034 -0.0917
  206MOL     C229112   3.631   7.438   2.515  0.6374  0.3251 -0.1692
  206MOL     C329113   3.489   7.405   2.547 -0.8108  0.1452 -0.0868
  206MOL     N429114   3.376   7.390   2.577  0.3934  0.2752 -0.4680
  206MOL     H529115   3.554   7.532   2.333  1.8392  0.6438 -4.0006
  206MOL     H629116   3.628   7.372   2.304  3.2712  0.6962 -1.3478
  206MOL     H729117   3.646   7.541   2.549 -0.2626  0.2569  0.4358
  206MOL     H829118   3.732   7.505   2.348  0.1322  0.4468  1.9317
  206MOL     C929119   3.735   7.335   2.571  0.4516  0.6075  0.1426
  206MOL    C1029120   3.683   7.183   2.564  0.2055 -0.2041  0.0553
  206MOL    C1129121   3.655   7.150   2.427  0.2625 -0.3473  0.2962
  206MOL    N1229122   3.638   7.125   2.318  0.3530  0.1084  0.6423
  206MOL    H1329123   3.834   7.341   2.527  1.6895 -2.2140  2.3729
  206MOL    H1429124   3.757   7.350   2.677 -1.6882  2.4152  0.3588
  206MOL    H1529125   3.597   7.161   2.628 -0.3825  0.0194 -0.6558
  206MOL    C1629126   3.794   7.094   2.626 -0.1125  0.5872 -0.3265
  206MOL    C1729127   3.748   6.953   2.659  0.1113 -0.6544 -0.3814
  206MOL    C1829128   3.707   6.875   2.539 -0.1069  0.2063  0.3116
  206MOL    N1929129   3.683   6.817   2.441 -0.6367 -0.1632 -1.0522
  206MOL    H2029130   3.867   7.087   2.545 -2.2725  1.3094 -2.3881
  206MOL    H2129131   3.827   7.151   2.713  1.4106 -0.0849 -0.4450
  206MOL    H2229132   3.658   6.957   2.719 -0.9765 -1.2382 -1.9485
  206MOL    C2329133   3.852   6.885   2.754  0.0980 -0.0495 -0.4076
  206MOL    C2429134   3.946   6.783   2.689 -0.3352  0.3237 -0.4148
  206MOL    C2529135   4.083   6.783   2.747  0.3271  0.8081 -0.2074
  206MOL    N2629136   4.189   6.784   2.804 -0.2872  0.3743 -0.5716
  206MOL    H2729137   3.923   6.954   2.799  1.0902  0.8051 -3.1814
  206MOL    H2829138   3.804   6.834   2.838  0.7412 -1.5168 -0.9234
  206MOL    H2929139   3.986   6.811   2.592 -0.3078 -1.0446 -0.8144
  206MOL    C3029140   3.877   6.646   2.690  0.6750  0.4031  0.6723
  206MOL    C3129141   3.947   6.553   2.580  0.2995 -0.2802  0.9915
  206MOL    C3229142   3.975   6.423   2.630 -0.4260  0.3022  0.1018
  206MOL    N3329143   3.997   6.316   2.669 -0.7270  0.2532  0.3843
  206MOL    H3429144   3.877   6.592   2.785 -0.8918 -0.8310 -0.0113
  206MOL    H3529145   3.775   6.652   2.654  1.0017 -0.1831 -0.3647
  206MOL    H3629146   4.050   6.582   2.559  0.5909 -0.6110  1.9620
  206MOL    C3729147   3.874   6.559   2.440 -0.0270  0.0728  0.6840
  206MOL    C3829148   3.930   6.468   2.328 -0.4298 -0.0659  0.3454
  206MOL    C3929149   3.913   6.324   2.352  0.2691 -0.3389  0.0052
  206MOL    N4029150   3.889   6.212   2.366 -0.1372  0.0649 -0.3810
  206MOL    H4129151   3.767   6.542   2.455  0.0361  0.0795  1.1582
  206MOL    H4229152   3.895   6.660   2.407 -1.6699 -0.4394 -2.0538
  206MOL    H4329153   4.039   6.475   2.324 -0.4754  0.1226 -0.5591
  206MOL    C4429154   3.876   6.517   2.185  0.5503  0.2592  0.5490
  206MOL    C4529155   3.942   6.474   2.059 -0.1667 -0.0132  0.2133
  206MOL    C4629156   3.926   6.332   2.028  0.1927  0.1076 -0.8786
  206MOL    N4729157   3.924   6.221   2.008  0.5114 -0.1127 -0.6225
  206MOL    H4829158   3.770   6.492   2.178  0.3502  0.5812  2.2946
  206MOL    H4929159   3.896   6.624   2.183  0.6140  0.2386 -0.6612
  206MOL    H5029160   4.047   6.496   2.072  0.3816 -1.7528 -1.0537
  206MOL    C5129161   3.886   6.547   1.936 -0.0522 -0.0294  0.0692
  206MOL    C5229162   3.887   6.695   1.930 -0.4634  0.3016  0.5105
  206MOL    C5329163   4.001   6.753   2.006  0.0541 -0.1964  0.3585
  206MOL    N5429164   4.090   6.808   2.060  0.3914 -0.2666  0.0772
  206MOL    H5529165   3.949   6.514   1.853 -2.0920 -1.8772 -0.7774
  206MOL    H5629166   3.783   6.512   1.929 -0.7918  2.1619 -0.5666
  206MOL    H5729167   3.796   6.719   1.984  0.7189  1.3208  2.0907
  206MOL    C5829168   3.883   6.741   1.789  0.0427  0.8644  0.2964
  206MOL    C5929169   3.773   6.680   1.695 -0.3679 -0.2547  0.1557
  206MOL    C6029170   3.637   6.693   1.747 -0.9141  0.1625  0.5048
  206MOL    N6129171   3.530   6.702   1.786 -0.6077  0.3211 -0.0193
  206MOL    H6229172   3.894   6.850   1.796  1.0565  0.6468  2.3789
  206MOL    H6329173   3.970   6.721   1.727 -0.9959 -1.2490 -0.5103
  206MOL    H6429174   3.792   6.574   1.675  0.9681  0.5299 -2.9175
  206MOL    C6529175   3.793   6.747   1.557 -0.2011 -0.2668 -0.1611
  206MOL    C6629176   3.701   6.706   1.432 -0.6689 -0.3165 -0.3489
  206MOL    C6729177   3.709   6.801   1.315  0.2357 -0.0663 -0.3659
  206MOL    N6829178   3.717   6.867   1.224  0.0334 -0.5614  0.2363
  206MOL    H6929179   3.806   6.855   1.559 -1.4728 -0.0869 -0.8581
  206MOL    H7029180   3.894   6.717   1.528 -0.3274 -0.8973  0.0483
  206MOL    H7129181   3.602   6.732   1.468  0.0672 -0.1471  1.5890
  206MOL    C7229182   3.698   6.556   1.399  0.3453 -0.8074 -0.4591
  206MOL    C7329183   3.588   6.516   1.299 -0.0973  0.1096  0.9108
  206MOL    C7429184   3.610   6.374   1.269  0.2845  1.0229  0.8289
  206MOL    N7529185   3.614   6.261   1.245 -0.6485 -0.2412  0.1662
  206MOL    H7629186   3.798   6.530   1.363  0.9163  0.3162  0.2628
  206MOL    H7729187   3.684   6.504   1.494 -0.8447 -0.8108 -0.6303
  206MOL    H7829188   3.593   6.565   1.202 -0.9906 -1.4383  0.0653
  206MOL    C7929189   3.440   6.542   1.349 -0.5224 -0.7013  0.3172
  206MOL    C8029190   3.336   6.444   1.299  0.6233 -1.1289  0.2748
  206MOL    C8129191   3.303   6.345   1.401  0.5908 -0.2560 -0.3342
  206MOL    N8229192   3.273   6.269   1.482  0.3483  0.2311 -0.1356
  206MOL    H8329193   3.439   6.536   1.458 -0.8722  1.8806  0.4994
  206MOL    H8429194   3.430   6.650   1.337  0.1691 -0.6710 -0.0440
  206MOL    H8529195   3.374   6.391   1.212  1.8846  1.7232 -0.9887
  206MOL    C8629196   3.212   6.521   1.252 -0.6319  0.1148  0.4817
  206MOL    C8729197   3.104   6.424   1.187 -0.1374 -0.5036  0.4790
  206MOL    C8829198   3.158   6.295   1.144  0.1846 -0.3982  0.0451
  206MOL    N8929199   3.202   6.191   1.115  0.2832 -0.2695 -0.8359
  206MOL    H9029200   3.167   6.577   1.334  2.3239  0.6857  1.7953
  206MOL    H9129201   3.243   6.593   1.176  2.8538  1.5638  3.1631
  206MOL    H9229202   3.066   6.484   1.105  1.5451 -0.2889 -0.1592
  206MOL    C9329203   2.980   6.391   1.280  0.2270 -0.3626  0.4256
  206MOL    C9429204   2.857   6.330   1.205 -0.7023  0.1251  0.0325
  206MOL    C9529205   2.801   6.430   1.115 -0.5331 -0.6142  0.0027
  206MOL    N9629206   2.753   6.514   1.049  0.0155  0.5482  0.2111
  206MOL    H9729207   3.010   6.341   1.373 -1.4967 -2.5268 -0.1459
  206MOL    H9829208   2.933   6.479   1.323 -0.8571 -1.6106  1.8774
  206MOL    H9929209   2.778   6.314   1.278  1.3795 -0.1395  2.2875
  206MOL   C10029210   2.874   6.194   1.136  0.5339 -0.3566  0.3722
  206MOL   C10129211   2.745   6.104   1.136 -0.1031 -0.1770  0.2795
  206MOL   C10229212   2.700   6.076   1.274 -0.2631 -0.0355 -0.5423
  206MOL   N10329213   2.666   6.043   1.379 -0.7068 -0.0809 -0.1239
  206MOL   H10429214   2.908   6.209   1.034 -1.3378 -1.5578 -0.4355
  206MOL   H10529215   2.953   6.147   1.195  0.1349  0.4197  1.5521
  206MOL   H10629216   2.776   6.013   1.085  1.8854  0.0905  0.9636
  206MOL   C10729217   2.642   6.165   1.055 -0.5896  0.1398  0.4357
  206MOL   C10829218   2.534   6.075   0.994  0.6158 -1.1843  0.1213
  206MOL   C10929219   2.474   5.975   1.085 -0.2694 -0.3381  0.2377
  206MOL   N11029220   2.421   5.894   1.150 -0.1494 -0.2641 -0.5452
  206MOL   H11129221   2.590   6.243   1.110  1.5041  1.3699  0.7097
  206MOL   H11229222   2.685   6.204   0.963  0.4762  0.0279  0.8737
  206MOL   H11329223   2.586   6.012   0.922 -0.5286 -1.2575 -0.6538
  206MOL   C11429224   2.432   6.163   0.911  0.1282 -0.3186  0.2470
  206MOL   C11529225   2.304   6.226   0.978 -0.1495 -1.0383 -0.1653
  206MOL   C11629226   2.330   6.290   1.109 -0.2571 -0.1587 -1.0604
  206MOL   N11729227   2.345   6.339   1.211  0.2671 -0.0924 -0.5603
  206MOL   H11829228   2.483   6.233   0.845  0.3828 -2.0136 -1.4177
  206MOL   H11929229   2.388   6.085   0.848  0.5382 -2.4472  2.5287
  206MOL   H12029230   2.248   6.139   1.012  0.2221 -0.8005  1.0653
  206MOL   C12129231   2.228   6.313   0.872 -0.1649 -0.4288 -0.1457
  206MOL   C12229232   2.148   6.430   0.930 -0.9068 -0.4005  0.8792
  206MOL   C12329233   2.237   6.539   0.961  0.1618 -0.7182 -0.6229
  206MOL   N12429234   2.306   6.627   0.988  0.0627 -1.2210  0.5400
  206MOL   H12529235   2.288   6.354   0.791 -2.2079 -1.1746 -2.0917
  206MOL   H12629236   2.159   6.246   0.821 -2.5520  1.0990  0.9795
  206MOL   H12729237   2.110   6.388   1.023 -1.6017  1.7001  1.5474
  206MOL   C12829238   2.049   6.484   0.827  0.5913  0.3409  0.1144
  206MOL   C12929239   1.968   6.608   0.881 -0.2336  0.7043 -0.4241
  206MOL   C13029240   1.882   6.663   0.777  0.2960 -0.2933  0.4108
  206MOL   N13129241   1.818   6.709   0.694  0.0793 -0.7541  0.4156
  206MOL   H13229242   2.108   6.518   0.742  0.1220  1.4452  0.2185
  206MOL   H13329243   1.991   6.407   0.776  0.1088  1.1156 -0.5229
  206MOL   H13429244   2.041   6.686   0.903 -1.6330  1.8373  0.3225
  206MOL   C13529245   1.899   6.583   1.018 -0.0230  0.5316 -0.2442
  206MOL   C13629246   1.839   6.709   1.076  0.8894  0.3171  1.1377
  206MOL   C13729247   1.937   6.802   1.135 -0.2650  0.9718  0.2196
  206MOL   N13829248   2.016   6.874   1.181 -0.3913 -0.4613 -0.9678
  206MOL   H13929249   1.814   6.516   1.010 -1.5114  1.7561  4.0171
  206MOL   H14029250   1.969   6.542   1.091 -0.2984 -2.5222 -1.6018
  206MOL   H14129251   1.771   6.672   1.153  0.5828 -2.9745 -0.6110
  206MOL   H14229252   1.766   6.756   1.011 -0.8978  0.0360  2.8671
  207MOL     C129253   0.417   4.687   0.135  0.2702 -0.4706  0.2355
  207MOL     C229254   0.326   4.593   0.211  0.8113  0.3626 -0.2968
  207MOL     C329255   0.189   4.587   0.157  0.4847  0.5234  0.5324
  207MOL     N429256   0.080   4.586   0.115  0.3119 -0.2226  0.6001
  207MOL     H529257   0.492   4.732   0.200 -0.3452  1.6717 -0.4864
  207MOL     H629258   0.357   4.768   0.094  1.0038 -0.1522 -0.2131
  207MOL     H729259   0.302   4.635   0.309  0.7838 -0.0380 -0.1298
  207MOL     H829260   0.466   4.638   0.050 -0.3292 -0.5037 -0.0971
  207MOL     C929261   0.379   4.455   0.246 -0.0936 -0.5329  0.2234
  207MOL    C1029262   0.503   4.430   0.331  0.4420  0.0506  0.1719
  207MOL    C1129263   0.521   4.540   0.430  0.4752 -0.3497 -0.2267
  207MOL    N1229264   0.528   4.629   0.507 -0.5557  0.6412 -0.1179
  207MOL    H1329265   0.294   4.408   0.296  0.2401 -0.0861  1.2388
  207MOL    H1429266   0.398   4.407   0.151  2.6833  0.3517  0.2829
  207MOL    H1529267   0.587   4.448   0.264 -0.9796  1.9897 -1.1555
  207MOL    C1629268   0.510   4.278   0.374  0.0223 -0.2746 -0.7967
  207MOL    C1729269   0.456   4.256   0.512  0.5257 -0.3097 -0.2102
  207MOL    C1829270   0.314   4.289   0.522  0.3017  0.0627  0.3609
  207MOL    N1929271   0.202   4.312   0.531  0.7399 -0.1898  0.0338
  207MOL    H2029272   0.461   4.210   0.306 -0.8135 -0.2827 -0.2020
  207MOL    H2129273   0.615   4.248   0.378  0.0643  0.0391  1.2876
  207MOL    H2229274   0.495   4.327   0.585  0.4852 -1.5221  0.9991
  207MOL    C2329275   0.494   4.119   0.573 -0.4543  1.0068 -0.1702
  207MOL    C2429276   0.415   4.089   0.706  0.9937  0.1025  0.6100
  207MOL    C2529277   0.272   4.053   0.681 -0.4622 -0.5692  0.5482
  207MOL    N2629278   0.160   4.021   0.667  0.1410  0.0481  0.2901
  207MOL    H2729279   0.475   4.033   0.510 -0.9092  2.1982 -1.7044
  207MOL    H2829280   0.601   4.123   0.592  0.3934 -1.0437 -4.0905
  207MOL    H2929281   0.418   4.182   0.762  0.5136  0.5875 -0.1691
  207MOL    C3029282   0.487   3.987   0.792 -0.3397 -0.3483 -0.4876
  207MOL    C3129283   0.453   3.985   0.943  0.2284  0.3399 -0.4628
  207MOL    C3229284   0.323   3.916   0.972  0.2174  0.9989  0.1530
  207MOL    N3329285   0.221   3.858   1.001  0.2734 -0.0959 -0.6543
  207MOL    H3429286   0.458   3.892   0.748  4.0178 -0.8256 -2.6474
  207MOL    H3529287   0.594   3.986   0.773 -0.5984  3.9354 -2.8470
  207MOL    H3629288   0.409   4.082   0.964  0.1049 -0.1600  1.6928
  207MOL    C3729289   0.569   3.949   1.050 -0.4637  0.3516  0.7739
  207MOL    C3829290   0.600   3.795   1.040 -0.9184 -0.5482 -0.1113
  207MOL    C3929291   0.656   3.740   0.917 -0.3963  0.3811  0.0006
  207MOL    N4029292   0.701   3.701   0.819 -0.2746  0.3384 -0.0509
  207MOL    H4129293   0.664   4.002   1.045  0.6625 -1.3990  2.6116
  207MOL    H4229294   0.531   3.959   1.152 -0.2220  0.9198  0.8074
  207MOL    H4329295   0.504   3.746   1.053 -1.2512 -0.2520 -1.3691
  207MOL    C4429296   0.681   3.760   1.170  0.1211  0.3983  0.2206
  207MOL    C4529297   0.743   3.614   1.183  0.3417  0.4963  0.0869
  207MOL    C4629298   0.858   3.589   1.088  0.4284  0.2695  0.5088
  207MOL    N4729299   0.946   3.574   1.018  0.0311 -0.4772 -0.0525
  207MOL    H4829300   0.767   3.825   1.187  2.2082 -2.5174  1.3859
  207MOL    H4929301   0.604   3.772   1.246 -0.9378  0.4661 -0.8493
  207MOL    H5029302   0.665   3.548   1.147  0.3994  0.0843  0.7164
  207MOL    C5129303   0.780   3.584   1.332  0.2459 -0.2293 -0.1608
  207MOL    C5229304   0.666   3.593   1.435 -0.2866  0.4193  0.6292
  207MOL    C5329305   0.544   3.524   1.392 -0.3092 -0.1200 -0.2312
  207MOL    N5429306   0.444   3.469   1.359 -0.3402  0.4313  0.0955
  207MOL    H5529307   0.817   3.483   1.342 -0.3631 -0.3426  0.9963
  207MOL    H5629308   0.863   3.644   1.370 -0.3580 -0.9967  2.4760
  207MOL    H5729309   0.623   3.692   1.450  0.2498  0.6774  0.4630
  207MOL    C5829310   0.724   3.550   1.573  0.1449  0.0530 -0.8680
  207MOL    C5929311   0.626   3.574   1.692 -0.0332  0.1791  0.3741
  207MOL    C6029312   0.630   3.457   1.784  0.0812  0.6419 -0.3144
  207MOL    N6129313   0.635   3.368   1.858  0.3077  0.0485 -0.2293
  207MOL    H6229314   0.745   3.443   1.573 -1.8436 -0.3635 -1.9216
  207MOL    H6329315   0.820   3.600   1.587  0.1346 -0.0186 -0.5496
  207MOL    H6429316   0.522   3.579   1.660  0.5464  1.3944 -1.4240
  207MOL    C6529317   0.648   3.703   1.770 -0.0544 -0.6474 -0.0220
  207MOL    C6629318   0.568   3.713   1.899 -0.4491 -0.2590  0.6654
  207MOL    C6729319   0.639   3.643   2.009  0.2171 -0.6066 -0.1196
  207MOL    N6829320   0.691   3.587   2.097  0.5051  0.0693 -0.8672
  207MOL    H6929321   0.756   3.717   1.777 -0.4646  1.9692  2.0266
  207MOL    H7029322   0.622   3.793   1.715 -2.7888 -1.0090  0.6125
  207MOL    H7129323   0.477   3.660   1.871 -0.1691  0.2504 -1.3488
  207MOL    C7229324   0.528   3.862   1.933 -0.5555 -0.1496 -0.2192
  207MOL    C7329325   0.489   3.887   2.087 -0.1302  0.0803  0.4942
  207MOL    C7429326   0.500   4.027   2.125  0.6018  0.2648 -0.1973
  207MOL    N7529327   0.515   4.137   2.154  0.4286  0.3817 -0.3791
  207MOL    H7629328   0.616   3.921   1.906 -0.0702 -0.8751 -0.2380
  207MOL    H7729329   0.450   3.903   1.868  0.8301  0.4750 -1.5193
  207MOL    H7829330   0.566   3.844   2.151  1.6643  0.5428 -1.3184
  207MOL    C7929331   0.360   3.828   2.115 -0.0848  0.0152  0.0980
  207MOL    C8029332   0.233   3.913   2.077 -0.3166  0.4059 -0.2009
  207MOL    C8129333   0.228   3.991   1.959  0.0088 -0.1724  0.5645
  207MOL    N8229334   0.223   4.059   1.862 -0.0779  0.1286  0.3332
  207MOL    H8329335   0.356   3.733   2.060  1.0806 -0.9723  1.6717
  207MOL    H8429336   0.350   3.787   2.215  1.6821 -2.0932 -0.5285
  207MOL    H8529337   0.236   3.989   2.156  2.3981 -0.1350  0.2729
  207MOL    C8629338   0.108   3.829   2.088 -0.2387  0.6268 -0.1909
  207MOL    C8729339   8.282   3.896   2.093 -0.3816 -0.3085  0.3128
  207MOL    C8829340   8.249   3.992   1.985 -0.3488  0.4410 -0.6941
  207MOL    N8929341   8.223   4.064   1.900 -0.1033 -0.1342  0.1098
  207MOL    H9029342   0.111   3.767   1.998 -2.0971  0.8374 -0.4174
  207MOL    H9129343   0.115   3.777   2.184 -1.1270  0.3729 -0.2512
  207MOL    H9229344   8.285   3.971   2.172  1.6767  2.0661 -1.9152
  207MOL    C9329345   8.163   3.800   2.119  0.1555  0.3277  0.0328
  207MOL    C9429346   8.131   3.688   2.020 -0.0982 -1.1555  0.2306
  207MOL    C9529347   8.243   3.599   1.988  0.0345  0.0859 -0.2288
  207MOL    N9629348   0.021   3.529   1.972 -0.0836 -0.2126 -0.4930
  207MOL    H9729349   8.150   3.758   2.218  0.2363 -0.7909 -0.4213
  207MOL    H9829350   8.083   3.872   2.105  0.7527  1.4255  2.0446
  207MOL    H9929351   8.115   3.737   1.924  1.9634 -0.2293  0.3136
  207MOL   C10029352   8.003   3.598   2.054 -0.8447 -0.0078  0.2646
  207MOL   C10129353   8.041   3.456   2.101  0.3996  0.2716  0.9875
  207MOL   C10229354   8.120   3.469   2.227  0.1023 -0.0244  0.3146
  207MOL   N10329355   8.181   3.487   2.322  0.1958  0.5291  0.4838
  207MOL   H10429356   7.936   3.658   2.115  2.7437  2.3501  2.0300
  207MOL   H10529357   7.949   3.584   1.960  0.2491  0.8501 -0.5072
  207MOL   H10629358   8.110   3.405   2.034 -1.5413 -3.1457  1.4434
  207MOL   C10729359   7.925   3.353   2.112  0.5122 -0.4135  0.4836
  207MOL   C10829360   7.857   3.333   2.249 -0.0378  0.5111 -0.6080
  207MOL   C10929361   7.807   3.469   2.290 -0.8180 -0.0884 -0.4366
  207MOL   N11029362   7.770   3.575   2.307  0.4123  0.1436 -0.5362
  207MOL   H11129363   7.850   3.363   2.033  1.9641 -0.0654 -0.8823
  207MOL   H11229364   7.969   3.257   2.083  3.1321  0.8485  0.1075
  207MOL   H11329365   7.940   3.308   2.314 -0.2939  2.3924  0.4709
  207MOL   C11429366   7.746   3.220   2.259 -0.5639 -0.7650 -0.2727
  207MOL   C11529367   7.813   3.091   2.235  0.4679  0.5962 -0.4698
  207MOL   C11629368   7.890   3.052   2.359 -0.4722 -0.1850 -0.5186
  207MOL   N11729369   7.947   3.029   2.455  0.2701 -0.1554 -0.0373
  207MOL   H11829370   7.693   3.222   2.354 -0.0762 -0.2521 -0.0077
  207MOL   H11929371   7.669   3.239   2.185  0.4047 -2.3348 -1.7224
  207MOL   H12029372   7.886   3.099   2.155  0.5976  1.1879 -0.3010
  207MOL   C12129373   7.719   2.984   2.190 -0.9274 -0.1657  0.2894
  207MOL   C12229374   7.679   2.997   2.044  0.0430 -0.0876 -0.7021
  207MOL   C12329375   7.804   2.988   1.964 -0.6494 -0.5966  0.2695
  207MOL   N12429376   7.902   2.980   1.903 -0.5038 -0.0097 -0.3040
  207MOL   H12529377   7.753   2.882   2.209  1.7428  0.7048  0.4602
  207MOL   H12629378   7.630   2.979   2.252 -1.6810  1.0143 -0.6766
  207MOL   H12729379   7.651   3.102   2.031 -0.7229 -0.1043  0.7094
  207MOL   C12829380   7.555   2.919   1.997  0.3399 -0.0289  0.5807
  207MOL   C12929381   7.576   2.769   1.973 -0.2577 -0.2934 -0.1400
  207MOL   C13029382   7.568   2.708   2.106  0.1425 -0.9481 -0.5073
  207MOL   N13129383   7.556   2.671   2.217 -0.1813 -0.3743  0.0156
  207MOL   H13229384   7.475   2.930   2.070  0.6585 -0.3060  0.9751
  207MOL   H13329385   7.526   2.967   1.903 -0.5102 -1.1378  0.2709
  207MOL   H13429386   7.677   2.761   1.934  0.0063  1.3328  0.1813
  207MOL   C13529387   7.463   2.713   1.884  0.2295 -0.3285  0.6304
  207MOL   C13629388   7.489   2.562   1.854  0.2765 -0.6733  0.3739
  207MOL   C13729389   7.612   2.538   1.773  0.0575  0.0363  0.5476
  207MOL   N13829390   7.711   2.520   1.718  0.1113  0.0550  0.1903
  207MOL   H13929391   7.369   2.725   1.939 -0.4237 -1.0044 -0.3310
  207MOL   H14029392   7.442   2.769   1.793  0.0135 -0.3145  0.6897
  207MOL   H14129393   7.400   2.519   1.807  0.2479  1.3527 -1.5009
  207MOL   H14229394   7.522   2.508   1.942  0.5159  0.7762  1.1829
  208MOL     C129395   7.559   4.398   5.968  0.5516  0.0114 -0.0517
  208MOL     C229396   7.600   4.443   6.111  0.0592  0.1509  0.2649
  208MOL     C329397   7.709   4.359   6.157  0.3597 -0.5014  1.6272
  208MOL     N429398   7.800   4.294   6.189  0.2409  0.4742 -0.0924
  208MOL     H529399   7.477   4.461   5.934 -0.2244 -0.5026  0.8607
  208MOL     H629400   7.519   4.298   5.986  0.3990  0.2625  1.0442
  208MOL     H729401   7.526   4.452   6.191  1.0539 -0.5580  1.2843
  208MOL     H829402   7.645   4.385   5.902 -0.0356 -1.1057 -0.6074
  208MOL     C929403   7.658   4.595   6.113  0.5371 -0.0394 -0.0351
  208MOL    C1029404   7.563   4.713   6.073 -0.4134 -0.2625  0.2242
  208MOL    C1129405   7.535   4.733   5.925  0.2422 -0.0156 -0.4204
  208MOL    N1229406   7.502   4.745   5.811  0.3252 -0.0152 -0.7100
  208MOL    H1329407   7.700   4.614   6.212 -0.7406 -1.1047  0.7210
  208MOL    H1429408   7.743   4.598   6.045  1.3942 -5.1970  0.6019
  208MOL    H1529409   7.620   4.800   6.106  0.6513 -0.1530 -1.7831
  208MOL    C1629410   7.438   4.715   6.161  0.2330  0.3991  0.3599
  208MOL    C1729411   7.334   4.832   6.155  0.0129 -0.0320  0.2144
  208MOL    C1829412   7.417   4.952   6.118  0.4583 -0.2573  0.5246
  208MOL    N1929413   7.481   5.046   6.094  0.1427  0.3635  0.3237
  208MOL    H2029414   7.382   4.622   6.160  1.1746 -0.1800  0.5155
  208MOL    H2129415   7.474   4.723   6.264  0.0059 -1.2346  0.5728
  208MOL    H2229416   7.292   4.851   6.254 -0.8337  2.3017 -0.5735
  208MOL    C2329417   7.220   4.813   6.052  0.1123 -0.2080  0.1259
  208MOL    C2429418   7.111   4.917   6.044 -0.7987  0.8817  0.0437
  208MOL    C2529419   7.071   4.947   5.905  0.2915 -0.6973  0.7732
  208MOL    N2629420   7.049   4.968   5.795  0.5603  0.5979  0.8853
  208MOL    H2729421   7.265   4.801   5.953 -0.2774 -0.4117 -0.0265
  208MOL    H2829422   7.169   4.717   6.045  1.4039 -0.8348 -1.2741
  208MOL    H2929423   7.145   5.016   6.073  1.6670 -0.6221  2.5389
  208MOL    C3029424   6.995   4.882   6.140 -0.0840 -0.4259  0.4626
  208MOL    C3129425   6.908   4.995   6.196 -0.3599 -0.4131 -0.0259
  208MOL    C3229426   6.894   5.118   6.116 -0.1924  0.5497  0.2505
  208MOL    N3329427   6.886   5.214   6.050  0.0570 -0.0946  0.6686
  208MOL    H3429428   6.917   4.823   6.091 -3.2784  1.8789  2.5927
  208MOL    H3529429   7.033   4.828   6.226 -2.3689 -0.7857  1.2937
  208MOL    H3629430   6.955   5.040   6.284 -2.5248  1.8178  0.0348
  208MOL    C3729431   6.772   4.941   6.259  0.2782 -0.4461  0.0351
  208MOL    C3829432   6.731   5.027   6.382 -0.0296  0.3177 -0.1302
  208MOL    C3929433   6.701   5.169   6.344 -0.4591  0.6878  0.1988
  208MOL    N4029434   6.681   5.281   6.312  0.1667  0.2434 -0.4759
  208MOL    H4129435   6.696   4.947   6.181  0.4178  1.0449 -0.0125
  208MOL    H4229436   6.785   4.838   6.290 -1.2257 -0.3071  1.1791
  208MOL    H4329437   6.811   5.045   6.453 -0.9414 -1.1525  1.3056
  208MOL    C4429438   6.609   4.965   6.447  0.2035 -0.3407  0.1873
  208MOL    C4529439   6.523   5.056   6.539  0.6726 -0.5979  0.4800
  208MOL    C4629440   6.415   4.983   6.612 -0.2927  0.0923  0.9605
  208MOL    N4729441   6.330   4.920   6.665 -0.4365  0.6394 -0.3004
  208MOL    H4829442   6.550   4.918   6.368  1.8892 -0.4672 -1.0419
  208MOL    H4929443   6.642   4.877   6.503 -0.8763 -0.5556  0.4897
  208MOL    H5029444   6.458   5.114   6.473 -2.8490 -2.4100  2.1801
  208MOL    C5129445   6.602   5.145   6.636 -0.8367  0.7372  0.3245
  208MOL    C5229446   6.686   5.074   6.745  0.2173  0.0879  0.1523
  208MOL    C5329447   6.787   4.972   6.702 -0.0901 -0.0092  0.2177
  208MOL    N5429448   6.863   4.887   6.672  0.4251 -0.4221  0.7531
  208MOL    H5529449   6.646   5.226   6.578 -0.2297  1.2147  1.4432
  208MOL    H5629450   6.525   5.193   6.697 -0.5441 -0.8671  2.0134
  208MOL    H5729451   6.617   5.012   6.801 -1.6050  2.9789  1.1874
  208MOL    C5829452   6.748   5.187   6.833 -0.5665 -0.5030 -0.2500
  208MOL    C5929453   6.753   5.157   6.982  0.4338 -0.8825  0.0817
  208MOL    C6029454   6.793   5.018   7.011 -0.5296  0.4979  0.2003
  208MOL    N6129455   6.827   4.909   7.036 -0.6068 -0.1635 -0.3326
  208MOL    H6229456   6.851   5.202   6.799 -0.7860  2.8725  0.4143
  208MOL    H6329457   6.691   5.279   6.822  2.8196  1.5072 -1.8242
  208MOL    H6429458   6.655   5.154   7.029  0.0479  0.2550 -0.6180
  208MOL    C6529459   6.835   5.256   7.065  0.4943 -0.1363  0.2504
  208MOL    C6629460   6.804   5.408   7.052 -0.4635 -0.8362  0.3509
  208MOL    C6729461   6.662   5.436   7.077  0.7697 -0.3174  0.6468
  208MOL    N6829462   6.549   5.455   7.094  0.2117 -0.4404 -0.1062
  208MOL    H6929463   6.816   5.217   7.164 -1.8043  1.0299  0.2924
  208MOL    H7029464   6.943   5.244   7.051  0.4461 -0.0199 -0.2345
  208MOL    H7129465   6.822   5.443   6.950  0.4289 -1.6054  0.2359
  208MOL    C7229466   6.895   5.483   7.159 -0.5369  0.8913 -0.6335
  208MOL    C7329467   6.864   5.451   7.309 -0.0674 -0.9644  0.2107
  208MOL    C7429468   6.962   5.353   7.355  0.1601 -0.7386  0.3344
  208MOL    N7529469   7.046   5.275   7.389 -0.0389 -0.0659 -0.3872
  208MOL    H7629470   7.001   5.465   7.141 -0.2212  1.7616  0.2861
  208MOL    H7729471   6.873   5.587   7.136 -0.8108  1.1724  0.8599
  208MOL    H7829472   6.763   5.410   7.312  0.8035 -3.0606  1.5791
  208MOL    C7929473   6.870   5.569   7.408 -0.8804  0.1809 -0.3836
  208MOL    C8029474   6.741   5.567   7.505 -0.3780  0.3778 -0.5409
  208MOL    C8129475   6.768   5.630   7.635 -0.0680 -0.1392 -0.1318
  208MOL    N8229476   6.800   5.679   7.736 -0.6336  0.3514  0.7032
  208MOL    H8329477   6.958   5.566   7.473 -0.9788  1.3398 -0.1731
  208MOL    H8429478   6.869   5.664   7.353 -1.4725  0.8552  0.7660
  208MOL    H8529479   6.720   5.465   7.535 -1.3940  0.5642 -0.5878
  208MOL    C8629480   6.614   5.626   7.439  0.2265  0.3115  0.5353
  208MOL    C8729481   6.492   5.544   7.498  0.5874  0.2941 -0.1113
  208MOL    C8829482   6.403   5.640   7.571 -0.1684  0.4141 -0.9207
  208MOL    N8929483   6.339   5.712   7.635  0.0848  0.2503 -0.3908
  208MOL    H9029484   6.617   5.733   7.456  1.4463  0.2226  0.8667
  208MOL    H9129485   6.624   5.613   7.331 -0.8011 -1.9816  0.6769
  208MOL    H9229486   6.518   5.467   7.571 -0.4018  0.6358  0.6197
  208MOL    C9329487   6.407   5.480   7.389  0.3169  0.0969 -0.6646
  208MOL    C9429488   6.294   5.382   7.434  0.3047 -0.2657 -0.0511
  208MOL    C9529489   6.176   5.441   7.505 -0.6248  0.6561 -0.0280
  208MOL    N9629490   6.087   5.485   7.569 -0.4142 -0.7491  0.5271
  208MOL    H9729491   6.360   5.562   7.333 -0.4517  2.2259  2.9296
  208MOL    H9829492   6.471   5.416   7.328  0.6680 -0.8382  0.6628
  208MOL    H9929493   6.335   5.311   7.506 -1.8953 -1.9668 -0.4130
  208MOL   C10029494   6.237   5.302   7.318 -0.0180  0.5734 -0.5254
  208MOL   C10129495   6.312   5.172   7.278 -0.5805 -0.5966 -0.3215
  208MOL   C10229496   6.352   5.089   7.398  0.6317 -0.0658 -0.0336
  208MOL   N10329497   6.386   5.031   7.498  0.0495  0.5856  0.0582
  208MOL   H10429498   6.132   5.280   7.337 -0.7926  2.4191 -2.3527
  208MOL   H10529499   6.235   5.362   7.226 -1.2637  1.0480 -0.2125
  208MOL   H10629500   6.406   5.208   7.235 -1.3788  1.3455 -0.5198
  208MOL   C10729501   6.233   5.089   7.177 -0.0567 -0.1423 -0.6239
  208MOL   C10829502   6.211   5.153   7.043  0.3195 -0.3426 -0.6386
  208MOL   C10929503   6.346   5.180   6.982  0.7785 -0.0201  0.1396
  208MOL   N11029504   6.445   5.200   6.931 -0.7527 -0.7446  0.4397
  208MOL   H11129505   6.281   4.992   7.164  1.2997  0.5094 -0.5517
  208MOL   H11229506   6.137   5.065   7.223 -0.0033  1.2569  0.2419
  208MOL   H11329507   6.162   5.249   7.058  0.2669 -0.4317 -0.2230
  208MOL   C11429508   6.127   5.066   6.952  0.4011  0.2779 -0.4620
  208MOL   C11529509   5.997   5.014   7.015  0.3263 -0.7940  0.5564
  208MOL   C11629510   5.918   5.118   7.084  0.2163 -0.0804  0.0453
  208MOL   N11729511   5.857   5.207   7.134 -0.0059 -0.1212  0.1044
  208MOL   H11829512   6.118   5.115   6.855  0.0029 -0.5293 -0.8381
  208MOL   H11929513   6.194   4.984   6.927 -2.5988 -2.0625 -1.1383
  208MOL   H12029514   6.024   4.945   7.094  1.9565 -0.9540 -0.1276
  208MOL   C12129515   5.928   4.926   6.905  0.5048  0.8793 -0.1801
  208MOL   C12229516   5.787   4.884   6.953 -0.4730 -0.6172 -0.0248
  208MOL   C12329517   5.695   4.996   6.941 -0.0391  0.2483 -0.0583
  208MOL   N12429518   5.627   5.087   6.930 -0.1276 -0.0651 -0.0326
  208MOL   H12529519   5.909   4.981   6.813  1.6998  0.2272 -0.8329
  208MOL   H12629520   5.988   4.835   6.890 -1.5494 -0.7544  1.1971
  208MOL   H12729521   5.797   4.858   7.058  3.8297  2.4250  0.4227
  208MOL   C12829522   5.739   4.756   6.882  0.2678 -0.2499  0.6354
  208MOL   C12929523   5.634   4.674   6.962  0.7043  0.3719  0.2574
  208MOL   C13029524   5.549   4.761   7.048 -0.2316  0.4602 -0.5678
  208MOL   N13129525   5.485   4.827   7.115 -0.2568  0.4625  0.2985
  208MOL   H13229526   5.693   4.796   6.792  0.3719 -0.8721  0.3051
  208MOL   H13329527   5.828   4.699   6.856  0.7897  0.7986  0.1023
  208MOL   H13429528   5.680   4.593   7.020  0.8666 -0.0264 -0.4155
  208MOL   C13529529   5.538   4.593   6.870 -1.0147  0.1866 -0.1659
  208MOL   C13629530   5.451   4.502   6.961 -0.1170 -0.2774 -0.3039
  208MOL   C13729531   5.344   4.421   6.890  0.1586 -0.5213 -0.0160
  208MOL   N13829532   5.261   4.357   6.840 -0.6081 -0.2569  0.1972
  208MOL   H13929533   5.474   4.655   6.807 -2.0640 -0.3603  0.3505
  208MOL   H14029534   5.602   4.536   6.802 -0.4471 -0.4904  0.9144
  208MOL   H14129535   5.397   4.548   7.044  1.6949 -0.0854  0.7888
  208MOL   H14229536   5.518   4.436   7.017 -1.2980  0.0082  1.4693
  209MOL     C129537   6.987   4.553   6.411  0.7171 -0.1757  0.2844
  209MOL     C229538   6.973   4.457   6.521  0.1704  0.1174 -0.7799
  209MOL     C329539   7.019   4.323   6.483  0.7780 -0.1275 -0.3093
  209MOL     N429540   7.056   4.216   6.455  0.4074  0.4216  0.5506
  209MOL     H529541   6.908   4.539   6.337  0.0174  2.6562  0.4537
  209MOL     H629542   7.084   4.562   6.362  0.6346  0.1383  0.1802
  209MOL     H729543   6.868   4.454   6.551  0.3724 -0.0525 -0.0705
  209MOL     H829544   6.950   4.649   6.448 -0.9828 -0.0242 -1.7381
  209MOL     C929545   7.055   4.494   6.647  0.5539 -0.2035  0.2255
  209MOL    C1029546   7.009   4.608   6.732  0.5082 -0.7408 -0.2179
  209MOL    C1129547   6.863   4.591   6.770 -0.0131  0.3576  0.3658
  209MOL    N1229548   6.752   4.575   6.796  0.7162 -1.0990 -0.7076
  209MOL    H1329549   7.031   4.404   6.704  1.5137  0.1026  1.1242
  209MOL    H1429550   7.159   4.509   6.620  0.1105 -0.3597 -1.6517
  209MOL    H1529551   7.012   4.692   6.664  1.3846 -0.1679  0.5077
  209MOL    C1629552   7.094   4.652   6.853 -0.4711  0.0960 -0.5228
  209MOL    C1729553   7.063   4.563   6.979  0.1351 -0.0101 -0.1211
  209MOL    C1829554   7.122   4.433   6.951  0.7824  0.3201 -0.1719
  209MOL    N1929555   7.168   4.331   6.918 -0.2347  0.3288 -0.4945
  209MOL    H2029556   7.199   4.668   6.829 -0.2755 -1.6936 -0.9321
  209MOL    H2129557   7.053   4.747   6.886 -0.0350  1.0090 -2.5466
  209MOL    H2229558   6.957   4.538   6.981  0.2729 -0.6474 -0.4954
  209MOL    C2329559   7.103   4.629   7.113 -0.0113  0.3265 -0.1287
  209MOL    C2429560   7.248   4.685   7.127 -0.3075 -0.8792  0.4350
  209MOL    C2529561   7.249   4.822   7.070 -0.1725  0.0070 -0.1612
  209MOL    N2629562   7.251   4.929   7.027  0.0602  0.4470  0.0454
  209MOL    H2729563   7.034   4.712   7.128  0.0233  0.4145 -0.4429
  209MOL    H2829564   7.089   4.560   7.196 -2.8496  0.1396 -0.7218
  209MOL    H2929565   7.306   4.621   7.061 -1.7587 -1.1941 -0.5821
  209MOL    C3029566   7.303   4.681   7.273  0.3147  0.1209  0.8442
  209MOL    C3129567   7.262   4.788   7.382  0.4527  0.4929 -0.5146
  209MOL    C3229568   7.121   4.796   7.429  0.1159  0.5828  0.4462
  209MOL    N3329569   7.010   4.795   7.461  0.3365  0.4704 -0.9865
  209MOL    H3429570   7.282   4.580   7.311 -4.5423  0.2008 -1.1928
  209MOL    H3529571   7.412   4.676   7.277  0.2941 -1.3509 -0.0102
  209MOL    H3629572   7.270   4.890   7.346  0.0744  0.7169  0.0343
  209MOL    C3729573   7.360   4.782   7.506 -0.3945 -0.6323 -0.3484
  209MOL    C3829574   7.326   4.880   7.619  0.0929  0.9736  0.0394
  209MOL    C3929575   7.371   4.833   7.756 -0.7324  0.5068 -0.4364
  209MOL    N4029576   7.415   4.791   7.854  0.2749 -0.1984  0.0884
  209MOL    H4129577   7.341   4.684   7.548  0.3701 -0.7968 -0.3863
  209MOL    H4229578   7.466   4.789   7.480 -0.3213  1.5836  0.3974
  209MOL    H4329579   7.218   4.882   7.637  0.6167 -0.9222  3.8359
  209MOL    C4429580   7.370   5.025   7.599  0.8816 -0.1860  0.1567
  209MOL    C4529581   7.310   5.131   7.698 -0.2170  0.5645  0.1183
  209MOL    C4629582   7.353   5.262   7.657  0.1848  0.0206  0.2650
  209MOL    N4729583   7.390   5.364   7.612  0.2232 -0.0918  0.0004
  209MOL    H4829584   7.477   5.041   7.613  1.4715 -0.8607 -3.2672
  209MOL    H4929585   7.341   5.067   7.503 -0.1057 -2.2948 -0.4991
  209MOL    H5029586   7.364   5.119   7.793 -1.7811 -1.5473  0.7876
  209MOL    C5129587   7.161   5.136   7.720  0.6604  0.5972  0.4694
  209MOL    C5229588   7.102   5.276   7.743 -0.5057  0.0323  0.4147
  209MOL    C5329589   6.956   5.297   7.731  0.2672  0.6199  0.6168
  209MOL    N5429590   6.842   5.312   7.722 -0.4903  0.0523  0.0648
  209MOL    H5529591   7.113   5.097   7.630 -2.8739  0.5549  2.3089
  209MOL    H5629592   7.123   5.069   7.797 -2.3123 -0.7703 -2.0879
  209MOL    H5729593   7.145   5.336   7.662 -0.5408 -0.5134 -0.0174
  209MOL    C5829594   7.139   5.322   7.887  0.1773  0.2473 -0.2061
  209MOL    C5929595   7.110   5.470   7.914  0.0697  0.2008 -0.7676
  209MOL    C6029596   7.131   5.483   8.058  0.0184  0.2249 -0.4563
  209MOL    N6129597   7.149   5.489   8.175 -0.1489 -0.3229  0.6199
  209MOL    H6229598   7.076   5.265   7.955 -0.4600  0.3009 -0.7471
  209MOL    H6329599   7.240   5.287   7.908  0.0681 -1.0892 -1.7707
  209MOL    H6429600   7.005   5.497   7.905 -0.3775 -1.5094 -0.8740
  209MOL    C6529601   7.198   5.566   7.825  0.0772 -0.1545 -0.2578
  209MOL    C6629602   7.336   5.613   7.885 -0.6662  0.4480  0.5527
  209MOL    C6729603   7.419   5.505   7.930 -0.1159  0.0718  0.2355
  209MOL    N6829604   7.481   5.416   7.971  0.3154  0.1712  0.0253
  209MOL    H6929605   7.216   5.510   7.734  0.3599 -0.4940  0.0019
  209MOL    H7029606   7.138   5.651   7.792 -0.1801 -0.1288  0.2688
  209MOL    H7129607   7.307   5.661   7.978 -1.3684 -1.3168  1.2566
  209MOL    C7229608   7.424   5.711   7.801 -1.4032 -0.1241 -0.0346
  209MOL    C7329609   7.344   5.837   7.757 -0.8911  0.1367 -0.3240
  209MOL    C7429610   7.307   5.911   7.877  0.5316  0.0846 -0.7029
  209MOL    N7529611   7.275   5.962   7.976  0.0228  0.3541  0.5252
  209MOL    H7629612   7.510   5.738   7.862  0.2788  0.3103 -2.5438
  209MOL    H7729613   7.463   5.651   7.719 -1.0926  1.6661 -1.2329
  209MOL    H7829614   7.243   5.815   7.720 -0.9507  0.2953 -0.2560
  209MOL    C7929615   7.404   5.934   7.651 -0.6163  1.2022 -0.3603
  209MOL    C8029616   7.418   5.857   7.512 -0.4772  0.4919 -0.3595
  209MOL    C8129617   7.294   5.810   7.455 -0.1242 -0.0327 -0.2405
  209MOL    N8229618   7.192   5.773   7.407  0.1168  0.6843 -0.3853
  209MOL    H8329619   7.334   6.017   7.642  0.3310  2.0591  0.0619
  209MOL    H8429620   7.506   5.967   7.672  0.6000 -1.0912 -2.3841
  209MOL    H8529621   7.469   5.766   7.545  2.1739  2.2408  0.6034
  209MOL    C8629622   7.494   5.929   7.399 -0.1723 -0.4619 -0.3456
  209MOL    C8729623   7.549   5.835   7.288  0.2696  0.2643  0.7441
  209MOL    C8829624   7.442   5.775   7.200 -0.1816 -0.9536  0.3015
  209MOL    N8929625   7.360   5.724   7.136 -0.4760 -0.0878  0.0092
  209MOL    H9029626   7.429   5.995   7.342  0.0088  0.8668  0.9634
  209MOL    H9129627   7.569   5.989   7.449 -0.3537 -0.9417  0.5159
  209MOL    H9229628   7.596   5.750   7.338  1.1324  1.0809  1.3324
  209MOL    C9329629   7.653   5.905   7.196  0.6134 -0.8379  0.0562
  209MOL    C9429630   7.785   5.932   7.269 -0.9298 -0.0344 -0.2523
  209MOL    C9529631   7.857   5.806   7.295 -0.2683  0.2580 -0.1619
  209MOL    N9629632   7.910   5.707   7.318 -0.7101  0.0485  0.3172
  209MOL    H9729633   7.672   5.833   7.117  0.1583 -1.2422  0.3178
  209MOL    H9829634   7.618   5.999   7.153  0.0886 -0.5991  0.9999
  209MOL    H9929635   7.773   5.974   7.368 -4.7280 -1.0298 -0.2100
  209MOL   C10029636   7.880   6.028   7.191  0.1248  0.0601 -0.1450
  209MOL   C10129637   7.960   5.959   7.077  0.2653 -0.6782  0.2328
  209MOL   C10229638   7.875   5.900   6.977  0.1661 -0.0986  0.3366
  209MOL   N10329639   7.806   5.860   6.899 -0.4892  0.2152 -0.2722
  209MOL   H10429640   7.814   6.099   7.142 -1.8634 -1.7098 -0.1157
  209MOL   H10529641   7.945   6.085   7.259  0.2019 -0.7777  0.4987
  209MOL   H10629642   8.011   5.872   7.121 -0.0667 -0.9413  0.0966
  209MOL   C10729643   8.073   6.048   7.020 -0.8003 -0.0597  0.4095
  209MOL   C10829644   8.134   5.983   6.899 -0.5509  0.0012  0.0716
  209MOL   C10929645   8.055   6.024   6.783 -1.0201 -0.5557  0.1020
  209MOL   N11029646   7.999   6.059   6.688 -0.6663  0.4560  0.0663
  209MOL   H11129647   8.038   6.150   7.004 -0.5929 -0.3458 -1.9005
  209MOL   H11229648   8.154   6.056   7.093 -0.3882  2.0537 -0.2602
  209MOL   H11329649   8.126   5.877   6.920 -2.4901 -0.2538 -1.7035
  209MOL   C11429650   8.283   6.035   6.874  0.0135  0.0580  0.8031
  209MOL   C11529651   0.061   5.972   6.768  0.0027  0.5736  0.4034
  209MOL   C11629652   0.016   6.007   6.630  0.2194  0.1800 -0.0411
  209MOL   N11729653   8.294   6.039   6.523 -0.2560  0.1563  0.2234
  209MOL   H11829654   8.270   6.139   6.846 -0.9564 -0.0988  0.6459
  209MOL   H11929655   0.022   6.037   6.970  1.1516 -0.7652  0.2195
  209MOL   H12029656   0.040   5.866   6.783 -2.5906  1.0566  0.4240
  209MOL   C12129657   0.213   5.993   6.778 -0.5049 -0.2455  0.2008
  209MOL   C12229658   0.250   6.135   6.740  0.0715  0.2569  0.7668
  209MOL   C12329659   0.187   6.232   6.824  0.2905 -0.4143  0.4491
  209MOL   N12429660   0.144   6.306   6.901  0.7957 -0.0471  0.0388
  209MOL   H12529661   0.242   5.966   6.880  3.5870  1.9801 -0.3007
  209MOL   H12629662   0.258   5.931   6.701  0.2790  1.4610 -0.7253
  209MOL   H12729663   0.214   6.147   6.638 -0.7072 -1.9338  0.7392
  209MOL   C12829664   0.394   6.161   6.735  0.1176 -0.1270 -0.0969
  209MOL   C12929665   0.442   6.278   6.648  0.4001 -0.0997  0.2072
  209MOL   C13029666   0.395   6.418   6.688 -0.1122  0.6255 -0.4651
  209MOL   N13129667   0.360   6.527   6.717  0.7639  0.4319 -0.7545
  209MOL   H13229668   0.427   6.166   6.839 -3.0178 -0.8593  1.0086
  209MOL   H13329669   0.444   6.070   6.702 -1.6974 -1.4264  0.6537
  209MOL   H13429670   0.412   6.263   6.544  2.3856  1.4564 -0.6275
  209MOL   C13529671   0.592   6.267   6.645 -0.6032 -0.8778  1.0143
  209MOL   C13629672   0.665   6.377   6.563 -0.4097 -0.0009  0.4174
  209MOL   C13729673   0.808   6.361   6.551 -0.3966  0.7085 -0.4776
  209MOL   N13829674   0.920   6.352   6.532 -0.3781 -0.2730 -0.1574
  209MOL   H13929675   0.646   6.276   6.739  0.5221 -1.8836  0.4769
  209MOL   H14029676   0.629   6.172   6.606  1.1326  0.4016 -0.5504
  209MOL   H14129677   0.648   6.477   6.602  1.9609  0.8481 -0.6356
  209MOL   H14229678   0.625   6.381   6.462 -2.3226  0.9155  1.1974
  210MOL     C129679   5.283   0.293   6.927  0.4721  0.6205 -0.5913
  210MOL     C229680   5.400   0.393   6.920  0.0584  0.5487  0.1554
  210MOL     C329681   5.525   0.325   6.941  0.1564 -0.9523 -0.1282
  210MOL     N429682   5.625   0.269   6.956  0.2017 -0.2715  0.6294
  210MOL     H529683   5.301   0.211   6.857 -0.3634 -0.5255  0.5087
  210MOL     H629684   5.188   0.340   6.902  0.3024  1.0082  0.7446
  210MOL     H729685   5.383   0.462   7.003  1.0608 -1.0662  1.7304
  210MOL     H829686   5.280   0.250   7.027 -1.4639  2.0287 -0.0232
  210MOL     C929687   5.397   0.475   6.787 -0.0523 -0.3223  0.3987
  210MOL    C1029688   5.485   0.601   6.783  0.0143 -0.7496  0.2114
  210MOL    C1129689   5.625   0.571   6.736  0.1738 -0.5074  0.5704
  210MOL    N1229690   5.729   0.550   6.701  0.3362 -0.2126 -0.6028
  210MOL    H1329691   5.424   0.421   6.697  1.4407  1.6582 -0.4003
  210MOL    H1429692   5.295   0.507   6.764  0.6595  1.3606 -0.5671
  210MOL    H1529693   5.490   0.639   6.885 -3.2450 -0.9206  0.5190
  210MOL    C1629694   5.423   0.708   6.692 -0.0046  0.1111 -0.1131
  210MOL    C1729695   5.419   0.680   6.537  0.3424  0.2195 -0.7048
  210MOL    C1829696   5.313   0.591   6.499  0.4565  1.2222 -0.2304
  210MOL    N1929697   5.230   0.512   6.467  0.4002 -0.3191  0.3164
  210MOL    H2029698   5.323   0.731   6.730 -1.0914 -2.3907 -1.3259
  210MOL    H2129699   5.482   0.797   6.710 -2.1106  1.3266  0.9575
  210MOL    H2229700   5.511   0.627   6.512  2.1495  2.3277  1.2424
  210MOL    C2329701   5.399   0.818   6.457  0.0297  0.5168 -0.1578
  210MOL    C2429702   5.340   0.816   6.315 -0.6976 -0.3838 -0.2009
  210MOL    C2529703   5.320   0.954   6.268  0.1953 -0.2526  0.5602
  210MOL    N2629704   5.312   1.061   6.234  0.2361 -0.5748  0.4099
  210MOL    H2729705   5.334   0.879   6.519  0.6971  1.0725 -0.0050
  210MOL    H2829706   5.492   0.874   6.457  0.3356  0.0093  0.2580
  210MOL    H2929707   5.239   0.781   6.335 -1.2058  1.8193  1.3007
  210MOL    C3029708   5.405   0.719   6.225  0.5542  0.4172 -0.0163
  210MOL    C3129709   5.545   0.742   6.174  0.4054 -0.3424  0.0802
  210MOL    C3229710   5.638   0.734   6.296 -0.0095  0.4369  0.0601
  210MOL    N3329711   5.707   0.736   6.389 -0.3339  0.7721 -0.3345
  210MOL    H3429712   5.408   0.617   6.263  1.6269  0.6173  0.4511
  210MOL    H3529713   5.334   0.705   6.143  1.0554  0.9708 -0.5491
  210MOL    H3629714   5.559   0.838   6.123 -0.1192 -0.1338  0.3221
  210MOL    C3729715   5.586   0.622   6.082 -0.2288 -0.1312 -0.0471
  210MOL    C3829716   5.701   0.668   5.992 -0.2751 -0.2219 -0.1980
  210MOL    C3929717   5.820   0.724   6.065 -0.0191 -0.0023  0.5336
  210MOL    N4029718   5.912   0.769   6.126 -0.1962  0.3118  0.5601
  210MOL    H4129719   5.608   0.531   6.139  0.5569 -0.3007 -0.6099
  210MOL    H4229720   5.505   0.601   6.012  1.0406 -0.7977 -1.3522
  210MOL    H4329721   5.666   0.758   5.941  1.3397 -1.4308 -3.6115
  210MOL    C4429722   5.755   0.559   5.893 -0.1394 -0.5174  0.5045
  210MOL    C4529723   5.663   0.510   5.772  0.7779  0.2595  0.6679
  210MOL    C4629724   5.606   0.625   5.705 -0.2536 -0.1541 -0.2201
  210MOL    N4729725   5.568   0.720   5.647 -0.1665 -0.4133 -0.2838
  210MOL    H4829726   5.854   0.589   5.858 -0.1511 -0.4382  0.5368
  210MOL    H4929727   5.772   0.479   5.965 -0.9873  0.5852  1.9644
  210MOL    H5029728   5.575   0.461   5.815  1.3840 -1.5780 -0.1334
  210MOL    C5129729   5.725   0.417   5.665 -0.9828  0.2533  0.0313
  210MOL    C5229730   5.770   0.282   5.723  0.0644  0.0408  0.6363
  210MOL    C5329731   5.661   0.226   5.809  0.4574  0.0600  0.3407
  210MOL    N5429732   5.582   0.182   5.878 -0.1333  0.5022  0.4346
  210MOL    H5529733   5.657   0.395   5.582  0.1159  1.9492 -1.3590
  210MOL    H5629734   5.819   0.460   5.629 -0.6615 -1.2851 -1.0213
  210MOL    H5729735   5.854   0.305   5.789  1.2229  2.0789 -1.4667
  210MOL    C5829736   5.819   0.187   5.607  0.7504 -0.1612 -0.0377
  210MOL    C5929737   5.827   0.041   5.646  0.7118  0.0999  0.1523
  210MOL    C6029738   5.823   8.277   5.521 -0.0409  0.4257  1.0728
  210MOL    N6129739   5.818   8.208   5.428  0.1793  0.3471 -0.2127
  210MOL    H6229740   5.743   0.189   5.529  0.6834  1.4409  0.0520
  210MOL    H6329741   5.913   0.218   5.561  1.4374 -2.5675 -0.3575
  210MOL    H6429742   5.731   0.022   5.694 -1.1502  3.0978 -2.1542
  210MOL    C6529743   5.938   0.008   5.751 -0.1732  0.2059  0.9905
  210MOL    C6629744   5.891   8.225   5.862 -0.4069 -0.0012 -0.5116
  210MOL    C6729745   5.833   8.091   5.816  0.0678  0.5594 -1.1673
  210MOL    N6829746   5.796   7.983   5.786  0.1831  0.2156  0.0744
  210MOL    H6929747   6.022   8.278   5.696 -1.7970 -0.6980 -0.8848
  210MOL    H7029748   5.970   0.103   5.794  1.0225 -0.6834  2.0772
  210MOL    H7129749   5.799   8.260   5.911 -0.1334 -0.5741  0.4144
  210MOL    C7229750   6.010   8.200   5.958  0.8958 -0.6734 -0.1392
  210MOL    C7329751   5.974   8.086   6.056 -0.6162  0.1234  0.4105
  210MOL    C7429752   6.106   8.034   6.109  0.3516 -0.3839  0.3856
  210MOL    N7529753   6.206   7.993   6.140  0.0578  0.0948  0.0929
  210MOL    H7629754   6.094   8.158   5.902 -0.8458 -0.2068 -3.1826
  210MOL    H7729755   6.055   8.288   6.003  0.8926 -1.8549  2.2582
  210MOL    H7829756   5.933   8.001   6.002  1.4472 -0.4124 -0.3492
  210MOL    C7929757   5.874   8.126   6.169 -0.2685 -0.0925  0.2222
  210MOL    C8029758   5.937   8.177   6.298 -0.7357 -0.2403 -0.0105
  210MOL    C8129759   6.058   8.258   6.288  0.1682  0.2641  0.2147
  210MOL    N8229760   6.155   0.009   6.279 -0.3196 -0.2235 -0.2482
  210MOL    H8329761   5.799   8.196   6.134  1.9884  2.4731  0.3045
  210MOL    H8429762   5.833   8.032   6.205 -0.9069 -0.7865 -2.2195
  210MOL    H8529763   5.971   8.090   6.355  1.5454 -0.2605 -1.3420
  210MOL    C8629764   5.837   8.243   6.395 -0.0910 -1.0897 -0.4322
  210MOL    C8729765   5.743   8.142   6.462  0.5636  0.3036 -0.0769
  210MOL    C8829766   5.815   8.042   6.549 -0.0682 -0.8778  0.6734
  210MOL    N8929767   5.866   7.963   6.615  0.0198  0.3955  0.1260
  210MOL    H9029768   5.888   8.287   6.481 -1.6716 -0.9307  0.4452
  210MOL    H9129769   5.785   0.016   6.350 -0.8888 -0.8498  0.8966
  210MOL    H9229770   5.699   8.086   6.379  0.1238  1.2435 -0.4821
  210MOL    C9329771   5.629   8.214   6.540 -0.2729 -0.0051  0.7883
  210MOL    C9429772   5.535   8.125   6.622 -0.4267  0.3401  0.2415
  210MOL    C9529773   5.468   8.199   6.732  0.6031 -0.9087 -1.3926
  210MOL    N9629774   5.414   8.253   6.822 -0.3742  0.2305 -0.2022
  210MOL    H9729775   5.672   8.279   6.616 -0.9227  2.0792 -0.5532
  210MOL    H9829776   5.575   8.284   6.476  2.1211  0.6436 -0.5707
  210MOL    H9929777   5.595   8.049   6.673  1.1703  0.6994 -1.0579
  210MOL   C10029778   5.429   8.062   6.526  0.9696  0.8187 -0.2400
  210MOL   C10129779   5.329   7.963   6.580 -0.1368 -0.1915 -0.1604
  210MOL   C10229780   5.203   7.953   6.504 -0.1613 -0.2669 -0.3420
  210MOL   N10329781   5.108   7.953   6.439 -0.7041 -0.2540  0.3447
  210MOL   H10429782   5.362   8.140   6.488  0.0785 -0.3028 -1.0119
  210MOL   H10529783   5.484   8.022   6.441  0.3051  2.1369 -1.3290
  210MOL   H10629784   5.293   7.989   6.680 -0.7541  2.1759 -0.9833
  210MOL   C10729785   5.393   7.818   6.567  0.3534 -0.5934 -0.3650
  210MOL   C10829786   5.521   7.783   6.656  0.4930 -0.0258  0.8216
  210MOL   C10929787   5.496   7.828   6.793  0.7439  0.0576  0.0549
  210MOL   N11029788   5.477   7.860   6.900  0.2614 -0.1675  0.0593
  210MOL   H11129789   5.312   7.752   6.598  0.8220 -0.5743  0.9720
  210MOL   H11229790   5.400   7.795   6.461 -0.4946 -0.9658 -0.3443
  210MOL   H11329791   5.614   7.815   6.609  0.2168 -0.0058  0.2781
  210MOL   C11429792   5.549   7.624   6.650  0.6886  0.5455  0.2583
  210MOL   C11529793   5.661   7.574   6.744 -0.5317 -0.3819  0.6371
  210MOL   C11629794   5.676   7.431   6.720  0.2203  0.7866 -0.0260
  210MOL   N11729795   5.685   7.317   6.699 -0.1722 -0.2733 -0.5666
  210MOL   H11829796   5.455   7.573   6.675  0.7631  0.4335  0.3083
  210MOL   H11929797   5.578   7.604   6.546 -0.5201  2.5666 -0.5105
  210MOL   H12029798   5.636   7.574   6.850 -2.6413  0.0032  0.1533
  210MOL   C12129799   5.800   7.662   6.735  0.1574 -0.1935 -0.3890
  210MOL   C12229800   5.940   7.605   6.790  0.1397  0.0680 -0.1569
  210MOL   C12329801   6.031   7.724   6.792  0.0564  0.2674 -0.1924
  210MOL   N12429802   6.102   7.816   6.793  0.3036  0.0928  0.0532
  210MOL   H12529803   5.815   7.699   6.634  0.2325  0.7446 -0.0394
  210MOL   H12629804   5.770   7.751   6.789 -0.6342 -0.6329 -0.0900
  210MOL   H12729805   5.982   7.527   6.726  1.1889  0.2350  0.3245
  210MOL   C12829806   5.932   7.539   6.930  0.3875 -0.1424  0.6992
  210MOL   C12929807   6.037   7.431   6.950  0.4113  0.7456 -0.3683
  210MOL   C13029808   6.176   7.476   6.932 -0.1578 -0.2707  0.2224
  210MOL   N13129809   6.285   7.512   6.915  0.3723 -0.1103 -0.5030
  210MOL   H13229810   5.919   7.614   7.008 -2.0651  0.9496 -0.7070
  210MOL   H13329811   5.837   7.486   6.924  1.8082 -2.5442 -1.9187
  210MOL   H13429812   6.025   7.354   6.874 -3.1596 -0.0779  0.9510
  210MOL   C13529813   6.019   7.362   7.084 -0.1986 -0.5512 -0.1763
  210MOL   C13629814   6.111   7.234   7.084  0.4010 -0.2544 -0.2731
  210MOL   C13729815   6.080   7.136   7.192 -0.5277 -0.2152 -0.5737
  210MOL   N13829816   6.068   7.058   7.272 -0.2965 -0.1501 -0.0242
  210MOL   H13929817   6.040   7.436   7.162  0.3188 -0.7375 -0.1391
  210MOL   H14029818   5.911   7.351   7.092 -0.1385 -0.7314  0.4937
  210MOL   H14129819   6.214   7.266   7.095  0.0486 -0.1432  3.4515
  210MOL   H14229820   6.100   7.186   6.987 -1.1020  0.3614 -0.4304
  211MOL     C129821   3.752   1.427   3.567 -0.1436  0.5851  0.2007
  211MOL     C229822   3.711   1.344   3.692  0.2525  0.1226 -0.0193
  211MOL     C329823   3.567   1.319   3.713  0.1530 -0.4729  0.3417
  211MOL     N429824   3.458   1.302   3.731  0.1559  0.4920 -0.5283
  211MOL     H529825   3.675   1.391   3.498 -0.3406  1.0159  0.1995
  211MOL     H629826   3.853   1.408   3.530 -0.8450  0.6071 -1.8147
  211MOL     H729827   3.739   1.397   3.783 -0.2898  0.7543 -0.2188
  211MOL     H829828   3.730   1.532   3.582 -4.7974 -0.0739 -1.1766
  211MOL     C929829   3.788   1.212   3.695 -0.2269 -0.1677 -0.2686
  211MOL    C1029830   3.722   1.085   3.639  0.2813 -1.7112  0.0852
  211MOL    C1129831   3.683   1.097   3.501 -0.1141  0.8025  0.2375
  211MOL    N1229832   3.663   1.102   3.387 -0.2760  0.9175  0.0614
  211MOL    H1329833   3.887   1.234   3.655 -0.3882  0.6451 -0.2263
  211MOL    H1429834   3.803   1.181   3.798 -0.7869 -0.4510 -0.2695
  211MOL    H1529835   3.623   1.088   3.686 -0.0073 -2.4593 -0.4679
  211MOL    C1629836   3.800   0.953   3.664  0.3095 -0.3498 -0.6222
  211MOL    C1729837   3.889   0.912   3.545 -1.0953  0.1962  0.0810
  211MOL    C1829838   3.967   1.032   3.500 -0.4308 -0.0974 -0.8996
  211MOL    N1929839   4.019   1.127   3.464 -0.2214  0.0112  0.1647
  211MOL    H2029840   3.872   0.975   3.743 -1.5880  1.5450  0.6761
  211MOL    H2129841   3.733   0.877   3.705 -0.3206  1.4723  1.9375
  211MOL    H2229842   3.829   0.878   3.461  0.0302  1.7744 -1.3953
  211MOL    C2329843   3.980   0.798   3.582  0.6467  0.5818  0.3281
  211MOL    C2429844   4.076   0.747   3.472  0.5904  0.0601 -0.3483
  211MOL    C2529845   4.193   0.832   3.430  0.2516  0.6102 -0.1642
  211MOL    N2629846   4.279   0.895   3.398  0.3847 -0.0418 -0.2653
  211MOL    H2729847   4.039   0.833   3.667  0.1307 -0.5804  1.1913
  211MOL    H2829848   3.912   0.717   3.609 -0.5359  1.4168 -0.0945
  211MOL    H2929849   4.020   0.746   3.379  1.0641 -0.1265 -0.6335
  211MOL    C3029850   4.120   0.598   3.490 -0.6798  0.8335  0.1069
  211MOL    C3129851   4.004   0.497   3.494  0.4772 -0.6574 -0.2342
  211MOL    C3229852   3.901   0.534   3.395 -0.0137 -0.2412 -0.1471
  211MOL    N3329853   3.815   0.565   3.320 -0.5281 -0.6720 -1.0254
  211MOL    H3429854   4.198   0.588   3.414  0.8564  2.2094  1.4455
  211MOL    H3529855   4.174   0.576   3.583 -1.1790  0.1421  0.2388
  211MOL    H3629856   3.940   0.510   3.581 -1.3004  1.0739 -1.7393
  211MOL    C3729857   4.057   0.354   3.486 -0.6188  0.2048  0.1230
  211MOL    C3829858   4.133   0.292   3.604  0.3248  0.7224 -0.5820
  211MOL    C3929859   4.086   0.351   3.730 -0.6637  0.0269  0.1357
  211MOL    N4029860   4.046   0.406   3.825  0.0132  0.4810  0.0248
  211MOL    H4129861   3.964   0.298   3.470 -1.3689  1.5796 -0.3740
  211MOL    H4229862   4.123   0.356   3.399  0.0253  0.3603  0.6144
  211MOL    H4329863   4.240   0.316   3.605  0.7339 -0.9772  1.3720
  211MOL    C4429864   4.104   0.140   3.605  1.1979  0.4697 -0.3368
  211MOL    C4529865   4.162   0.061   3.721  0.1425 -0.3521 -0.4820
  211MOL    C4629866   4.116   8.231   3.732 -0.0180 -0.5114  0.7062
  211MOL    N4729867   4.079   8.120   3.729 -0.0834  0.3461  0.3996
  211MOL    H4829868   3.996   0.122   3.609  1.6599 -2.2771  1.1372
  211MOL    H4929869   4.128   0.093   3.510  0.9285 -0.2072 -0.0723
  211MOL    H5029870   4.122   0.115   3.807  3.1178 -0.1877  0.8634
  211MOL    C5129871   4.317   0.056   3.727  0.0814 -0.0546  0.1947
  211MOL    C5229872   4.398   0.018   3.600 -0.2387 -0.1963  0.2196
  211MOL    C5329873   4.445   0.136   3.533 -0.6969 -0.8547 -0.8757
  211MOL    N5429874   4.483   0.236   3.486  0.3597 -0.0845 -0.4118
  211MOL    H5529875   4.348   0.153   3.766 -0.9533  0.7316 -0.8899
  211MOL    H5629876   4.334   8.295   3.806 -2.8855  1.4197  2.2725
  211MOL    H5729877   4.329   8.296   3.523 -0.4576 -0.6236  0.6042
  211MOL    C5829878   4.510   8.223   3.622 -0.3214  0.2659  0.6255
  211MOL    C5929879   4.580   8.179   3.496 -0.1037  0.1121 -0.2694
  211MOL    C6029880   4.672   8.072   3.530 -0.6120  0.5805 -0.8993
  211MOL    N6129881   4.737   7.982   3.565  0.0688  0.5325  0.0290
  211MOL    H6229882   4.589   8.264   3.685 -1.4403 -1.2571  3.0696
  211MOL    H6329883   4.466   8.140   3.677  1.3766 -1.5295 -0.6755
  211MOL    H6429884   4.635   8.261   3.450  0.2867  0.7111  1.2354
  211MOL    C6529885   4.491   8.120   3.384  0.0870  0.4301 -0.6623
  211MOL    C6629886   4.385   8.014   3.416  0.1508 -0.1017 -0.6021
  211MOL    C6729887   4.248   8.039   3.360 -0.0599 -0.4330 -0.6844
  211MOL    N6829888   4.137   8.054   3.325  0.6398  0.2268 -0.5866
  211MOL    H6929889   4.423   8.200   3.353 -2.8864 -1.6471  0.3117
  211MOL    H7029890   4.546   8.088   3.295 -2.1139  0.4008 -2.0508
  211MOL    H7129891   4.376   7.999   3.524  2.1227 -2.5240 -0.7393
  211MOL    C7229892   4.432   7.878   3.366  0.5381 -0.4992  0.0768
  211MOL    C7329893   4.343   7.755   3.420  0.1165 -0.5040 -0.8208
  211MOL    C7429894   4.210   7.747   3.352  0.4928  0.2965 -1.0619
  211MOL    N7529895   4.104   7.742   3.301 -0.1795  0.4712  0.2506
  211MOL    H7629896   4.429   7.879   3.257 -0.3610  3.2046  0.0754
  211MOL    H7729897   4.539   7.859   3.375  0.5181 -1.5862 -1.6671
  211MOL    H7829898   4.327   7.781   3.525  0.5332 -1.3606 -0.5429
  211MOL    C7929899   4.409   7.617   3.425 -0.0240 -0.2542 -0.0942
  211MOL    C8029900   4.318   7.497   3.467  0.4974 -1.1566  0.0261
  211MOL    C8129901   4.384   7.373   3.422  0.1946  0.0219  0.1417
  211MOL    N8229902   4.438   7.278   3.382  0.0223 -0.5628 -0.2124
  211MOL    H8329903   4.449   7.595   3.326 -1.7912 -0.7029 -0.7302
  211MOL    H8429904   4.490   7.613   3.498  0.1908  1.0508 -0.2639
  211MOL    H8529905   4.223   7.497   3.412  0.3903 -0.8589  0.2100
  211MOL    C8629906   4.293   7.495   3.620 -0.2699  0.4076  0.0662
  211MOL    C8729907   4.195   7.385   3.668 -0.6406 -0.7538  0.6522
  211MOL    C8829908   4.171   7.410   3.811 -0.4701 -0.8260  0.0875
  211MOL    N8929909   4.161   7.440   3.924  0.2376  0.7078  0.2713
  211MOL    H9029910   4.377   7.508   3.688 -0.7808 -0.7220  0.9279
  211MOL    H9129911   4.231   7.583   3.638 -1.6685  0.1319 -3.0411
  211MOL    H9229912   4.241   7.287   3.673 -0.5393 -0.7924 -0.7630
  211MOL    C9329913   4.066   7.388   3.580 -0.3813  0.2866  0.0315
  211MOL    C9429914   3.937   7.326   3.624 -0.2008  0.1223 -0.6085
  211MOL    C9529915   3.831   7.337   3.521 -0.1533  0.7417 -0.2668
  211MOL    N9629916   3.750   7.339   3.439  0.4888 -0.1374 -0.0354
  211MOL    H9729917   4.049   7.489   3.544  0.2117 -0.2525 -1.8432
  211MOL    H9829918   4.087   7.331   3.489 -1.7071  1.0503 -0.7682
  211MOL    H9929919   3.909   7.394   3.705 -0.3607  0.3806 -0.8800
  211MOL   C10029920   3.945   7.182   3.671 -0.2980 -0.3142 -0.4400
  211MOL   C10129921   3.807   7.109   3.687  0.5523 -0.6844  0.9016
  211MOL   C10229922   3.826   6.974   3.737  0.1968  0.7457 -0.2329
  211MOL   N10329923   3.836   6.870   3.786  0.0175 -0.6662 -0.1413
  211MOL   H10429924   4.015   7.122   3.612  3.0134  0.2997  2.6549
  211MOL   H10529925   3.988   7.171   3.770  0.6469 -0.1215 -0.8196
  211MOL   H10629926   3.744   7.107   3.597  2.3829 -1.3133 -0.3895
  211MOL   C10729927   3.709   7.194   3.766 -0.2310  0.1684  0.0424
  211MOL   C10829928   3.571   7.135   3.779 -0.5450  0.0050 -0.0884
  211MOL   C10929929   3.509   7.197   3.900  0.1120 -0.3367  0.0417
  211MOL   N11029930   3.465   7.247   3.988 -0.2721 -0.1624  0.2672
  211MOL   H11129931   3.754   7.217   3.863  0.7922 -1.1581 -0.1115
  211MOL   H11229932   3.704   7.298   3.733  1.3224  0.3446  0.3569
  211MOL   H11329933   3.583   7.028   3.796  2.2831  0.2582 -0.2570
  211MOL   C11429934   3.496   7.148   3.644  0.4440  0.5816 -0.5942
  211MOL   C11529935   3.347   7.125   3.645  0.4248 -0.6521 -0.0095
  211MOL   C11629936   3.322   7.025   3.749 -0.1001  0.0154 -0.3879
  211MOL   N11729937   3.309   6.949   3.834 -0.3475 -0.0558  0.6632
  211MOL   H11829938   3.515   7.250   3.611 -1.4031  2.1656  2.9944
  211MOL   H11929939   3.539   7.077   3.573  0.6829 -0.9918  1.1109
  211MOL   H12029940   3.318   7.073   3.553  1.9019 -2.9062  0.7612
  211MOL   C12129941   3.261   7.251   3.681  0.4715  0.1607 -0.2128
  211MOL   C12229942   3.249   7.358   3.555  0.4188  0.1150  0.4597
  211MOL   C12329943   3.221   7.298   3.422  0.0260  0.2880  0.3080
  211MOL   N12429944   3.214   7.256   3.320  0.4145 -0.0917  0.4516
  211MOL   H12529945   3.161   7.213   3.702  0.0338  0.2162 -2.0870
  211MOL   H12629946   3.297   7.299   3.771 -1.2526 -0.0621  0.6263
  211MOL   H12729947   3.349   7.397   3.534  1.4576 -2.1401  1.0071
  211MOL   C12829948   3.139   7.457   3.589  0.3633 -0.0450 -0.1227
  211MOL   C12929949   3.120   7.568   3.491 -0.2539 -0.4746 -0.5097
  211MOL   C13029950   3.022   7.665   3.543 -0.0918 -0.4117 -0.0340
  211MOL   N13129951   2.941   7.733   3.584  0.2290  0.2841 -0.2975
  211MOL   H13229952   3.046   7.409   3.619  0.7882  0.3289  1.9014
  211MOL   H13329953   3.166   7.501   3.686 -1.8338  1.2959 -0.0667
  211MOL   H13429954   3.082   7.528   3.397 -1.5200 -0.4350 -0.0266
  211MOL   C13529955   3.249   7.640   3.463 -0.0790 -0.1385  0.1635
  211MOL   C13629956   3.242   7.778   3.397  0.6301  0.3733  0.6728
  211MOL   C13729957   3.183   7.783   3.261  0.0232  0.2297 -0.0521
  211MOL   N13829958   3.146   7.783   3.156  0.3486 -0.0954  0.0867
  211MOL   H13929959   3.293   7.656   3.562 -1.2546  2.1628  0.3522
  211MOL   H14029960   3.314   7.571   3.409 -1.9181 -0.4188 -1.7291
  211MOL   H14129961   3.340   7.826   3.394  0.5491  0.4329 -1.5016
  211MOL   H14229962   3.190   7.850   3.460 -2.4699  0.0417 -1.4198
  212MOL     C129963   3.803   1.560   1.231  0.2125 -0.0201  0.0344
  212MOL     C229964   3.864   1.605   1.106 -0.8767 -0.4881 -0.0505
  212MOL     C329965   3.776   1.657   0.998 -0.1836  0.8225 -0.6267
  212MOL     N429966   3.715   1.701   0.905 -0.5422  0.2477 -0.5492
  212MOL     H529967   3.779   1.649   1.289 -1.9149 -0.8890  0.5330
  212MOL     H629968   3.875   1.503   1.290  0.6029  1.1038  0.6431
  212MOL     H729969   3.906   1.516   1.061  0.8919  0.5023 -0.4282
  212MOL     H829970   3.716   1.494   1.219 -0.2067  0.0807  2.1948
  212MOL     C929971   3.979   1.708   1.128 -0.3855  0.0566 -0.1875
  212MOL    C1029972   4.021   1.781   1.001 -0.1047  0.3160 -0.6509
  212MOL    C1129973   4.127   1.864   1.041  0.0836 -0.1804  0.4242
  212MOL    N1229974   4.213   1.930   1.075  0.1022  0.6282 -0.1827
  212MOL    H1329975   3.961   1.792   1.195  1.7700  1.6766 -1.5596
  212MOL    H1429976   4.066   1.655   1.168  0.0253  0.9362  0.1122
  212MOL    H1529977   3.945   1.846   0.957 -2.0215 -1.9864 -0.8840
  212MOL    C1629978   4.071   1.703   0.878 -0.0239  0.0753 -0.7168
  212MOL    C1729979   4.159   1.772   0.766 -0.1470 -0.2951 -0.0703
  212MOL    C1829980   4.180   1.682   0.654 -0.0000  0.1186 -0.1813
  212MOL    N1929981   4.196   1.605   0.568  0.1340 -0.9333 -0.4890
  212MOL    H2029982   4.107   1.608   0.917 -0.5700 -0.2731 -1.0602
  212MOL    H2129983   3.983   1.670   0.822  0.7289 -2.3874 -0.4835
  212MOL    H2229984   4.263   1.778   0.799  0.4065 -1.1792 -1.5873
  212MOL    C2329985   4.109   1.911   0.715 -0.0775  0.2067 -0.0592
  212MOL    C2429986   4.196   1.992   0.610  0.3770  0.0069  0.3973
  212MOL    C2529987   4.332   2.017   0.655 -0.1176 -0.4706 -1.3130
  212MOL    N2629988   4.439   2.043   0.694  0.3576  0.0445 -0.1886
  212MOL    H2729989   4.013   1.900   0.664  0.5268 -0.7906 -0.9840
  212MOL    H2829990   4.091   1.983   0.795 -0.8204 -1.3954  1.2507
  212MOL    H2929991   4.152   2.092   0.607  1.7435  0.5764 -0.8045
  212MOL    C3029992   4.187   1.940   0.470 -0.1423 -0.3492 -0.3526
  212MOL    C3129993   4.043   1.917   0.417  0.0461 -0.5238 -0.1470
  212MOL    C3229994   3.956   2.033   0.414  0.0091 -0.9529  0.3038
  212MOL    N3329995   3.887   2.131   0.407 -0.2641  0.2505 -0.6754
  212MOL    H3429996   4.234   2.012   0.403  0.9667  0.0300  0.8183
  212MOL    H3529997   4.245   1.848   0.461 -0.3058 -0.4542 -0.3322
  212MOL    H3629998   3.983   1.849   0.476 -0.7972  0.0246 -0.3675
  212MOL    C3729999   4.057   1.854   0.278  0.2481 -0.2520  0.1468
  212MOL    C3830000   4.097   1.707   0.268 -0.4980  0.2783  0.0830
  212MOL    C3930001   3.991   1.613   0.306 -0.0273 -0.3924  0.0722
  212MOL    N4030002   3.905   1.539   0.335  0.5452  0.6677  0.1275
  212MOL    H4130003   3.958   1.844   0.233 -0.3679 -1.3458  1.6728
  212MOL    H4230004   4.112   1.915   0.206 -0.0706  0.8124  0.7941
  212MOL    H4330005   4.178   1.693   0.339 -0.7431  3.1111  0.9568
  212MOL    C4430006   4.144   1.668   0.126  0.2940  0.2222  0.0302
  212MOL    C4530007   4.243   1.554   0.115  0.4548 -0.3858  0.0420
  212MOL    C4630008   4.184   1.419   0.165  0.0117  0.2080  0.2695
  212MOL    N4730009   4.148   1.316   0.200  0.1007  0.1291 -0.3731
  212MOL    H4830010   4.056   1.642   0.067 -0.6661  3.6738 -0.1803
  212MOL    H4930011   4.204   1.746   0.080 -0.9069  0.8180 -0.5619
  212MOL    H5030012   4.326   1.568   0.185  0.7861 -1.3078 -0.1585
  212MOL    C5130013   4.295   1.540   8.282 -0.8403  1.0405  0.3368
  212MOL    C5230014   4.361   1.401   8.247  0.6510 -0.7570  0.0627
  212MOL    C5330015   4.448   1.348   0.045 -0.3235  0.0376  0.5237
  212MOL    N5430016   4.513   1.308   0.130  0.1035 -0.2584 -0.0091
  212MOL    H5530017   4.216   1.563   8.210  0.6885 -0.4815 -1.8841
  212MOL    H5630018   4.364   1.624   8.273  1.3362 -0.8692 -1.0769
  212MOL    H5730019   4.418   1.430   8.159  0.1037  1.2541  0.3427
  212MOL    C5830020   4.258   1.302   8.181  0.2521  0.2964  0.2340
  212MOL    C5930021   4.310   1.220   8.061  0.0070 -0.7849 -0.2272
  212MOL    C6030022   4.438   1.162   8.087 -0.0201 -0.0920  0.0117
  212MOL    N6130023   4.544   1.110   8.110  0.2886 -0.3283 -0.2818
  212MOL    H6230024   4.231   1.239   8.265  2.9069 -1.1303  0.0818
  212MOL    H6330025   4.174   1.364   8.150 -1.2550 -1.6523  0.3357
  212MOL    H6430026   4.345   1.295   7.990  1.3881  1.3390  2.6308
  212MOL    C6530027   4.206   1.140   7.986  0.1169  0.4040 -0.2344
  212MOL    C6630028   4.239   1.117   7.839 -0.3782  0.5261  0.6555
  212MOL    C6730029   4.357   1.036   7.823  0.6317  0.0047 -0.3889
  212MOL    N6830030   4.443   0.959   7.811  0.4402  0.1986  0.4586
  212MOL    H6930031   4.200   1.038   8.024 -1.7774  0.0459 -1.3856
  212MOL    H7030032   4.105   1.182   7.993 -0.1420 -0.6571  2.8136
  212MOL    H7130033   4.260   1.210   7.787 -1.0632 -1.1041 -2.6224
  212MOL    C7230034   4.113   1.063   7.765  0.1091  0.3923  0.1220
  212MOL    C7330035   4.144   1.033   7.620  0.2419  0.7324  0.7193
  212MOL    C7430036   4.114   0.892   7.592  0.0765 -0.9505 -0.0835
  212MOL    N7530037   4.088   0.780   7.565  0.1900  0.4744 -0.4304
  212MOL    H7630038   4.071   0.973   7.810  0.5906 -0.9538 -2.0331
  212MOL    H7730039   4.031   1.135   7.771  0.4100  0.8760 -1.3611
  212MOL    H7830040   4.248   1.056   7.598  1.0732 -0.7335  2.9613
  212MOL    C7930041   4.065   1.121   7.519  0.0697  0.6637 -0.4385
  212MOL    C8030042   4.109   1.268   7.535 -0.3575  0.1286 -0.0085
  212MOL    C8130043   4.251   1.296   7.508  0.2057 -0.7967  0.5443
  212MOL    N8230044   4.363   1.321   7.487  0.1868 -0.4004  0.0473
  212MOL    H8330045   4.083   1.080   7.419 -1.2650 -0.0075 -0.4188
  212MOL    H8430046   3.959   1.098   7.531  0.1956  1.2345  1.8856
  212MOL    H8530047   4.086   1.298   7.638  0.2756  1.2694 -0.1879
  212MOL    C8630048   4.025   1.357   7.440  0.4049  0.2051 -0.4554
  212MOL    C8730049   4.064   1.503   7.433  0.0634  0.5143 -0.4225
  212MOL    C8830050   3.979   1.568   7.337 -0.1040 -0.5104  0.0384
  212MOL    N8930051   3.903   1.621   7.266  0.9968 -0.4727 -0.7823
  212MOL    H9030052   4.045   1.313   7.342  0.3006  1.5656 -1.0952
  212MOL    H9130053   3.919   1.337   7.453  0.4320  0.0115 -0.5370
  212MOL    H9230054   4.159   1.513   7.382 -0.4802  0.1386 -1.5258
  212MOL    C9330055   4.072   1.574   7.564 -0.2992 -0.0636 -0.0447
  212MOL    C9430056   4.100   1.725   7.564 -0.1681  0.0190  0.2693
  212MOL    C9530057   3.978   1.790   7.515  0.8797 -0.3784  0.2193
  212MOL    N9630058   3.881   1.837   7.481  1.0245  0.4589 -0.0093
  212MOL    H9730059   3.982   1.569   7.625 -1.3250 -1.3960 -1.6129
  212MOL    H9830060   4.149   1.524   7.622 -0.9773 -1.9960 -0.7617
  212MOL    H9930061   4.187   1.742   7.500  0.8000 -2.2033  0.9223
  212MOL   C10030062   4.129   1.784   7.704  0.8675  0.7573 -0.2949
  212MOL   C10130063   4.244   1.730   7.788  0.0389 -0.0888 -0.1741
  212MOL   C10230064   4.212   1.595   7.844 -0.0386 -0.3305 -0.9100
  212MOL   N10330065   4.191   1.490   7.886  0.0125  0.4783 -0.1336
  212MOL   H10430066   4.140   1.890   7.685  0.6689  1.3356  2.5910
  212MOL   H10530067   4.035   1.767   7.757 -1.1534 -2.2057 -4.5778
  212MOL   H10630068   4.248   1.802   7.869 -0.0801 -0.1306 -0.1310
  212MOL   C10730069   4.377   1.729   7.715 -1.0469  0.0328 -0.4916
  212MOL   C10830070   4.505   1.671   7.783  0.5442  0.5670 -0.2643
  212MOL   C10930071   4.507   1.528   7.785  0.1784 -0.5194  0.4610
  212MOL   N11030072   4.509   1.412   7.788  0.2639 -0.2858 -0.6939
  212MOL   H11130073   4.358   1.675   7.622  0.6528  1.8453 -1.9338
  212MOL   H11230074   4.393   1.832   7.683  2.5705 -0.6314 -1.0353
  212MOL   H11330075   4.512   1.696   7.889  0.0761 -2.0467  0.4202
  212MOL   C11430076   4.628   1.723   7.709  0.2366  0.4807  0.5882
  212MOL   C11530077   4.763   1.710   7.778 -0.3726  0.3644 -0.2516
  212MOL   C11630078   4.867   1.725   7.679  0.0478 -0.1414  0.1412
  212MOL   N11730079   4.953   1.737   7.605  0.0393  0.2747 -0.1887
  212MOL   H11830080   4.638   1.678   7.610  1.0537  1.3378  0.2728
  212MOL   H11930081   4.609   1.826   7.676 -5.6318 -0.3364  0.8943
  212MOL   H12030082   4.778   1.606   7.807  1.0508  0.5541 -0.2865
  212MOL   C12130083   4.763   1.784   7.909  0.3610  0.5060 -0.4999
  212MOL   C12230084   4.901   1.816   7.958 -0.5423 -0.5181 -0.6126
  212MOL   C12330085   4.965   1.910   7.866  0.3497  0.3111  0.5209
  212MOL   N12430086   5.013   1.990   7.798 -0.2310  0.2595 -0.6666
  212MOL   H12530087   4.706   1.877   7.909  0.7159  0.7235 -0.6823
  212MOL   H12630088   4.707   1.734   7.988  1.9384  2.1880  1.7553
  212MOL   H12730089   4.957   1.724   7.964  0.4456  0.1224  0.1235
  212MOL   C12830090   4.886   1.879   8.093 -0.0178 -0.4144  0.2476
  212MOL   C12930091   5.016   1.940   8.150  0.2811  0.0170 -0.5410
  212MOL   C13030092   4.978   2.043   8.248 -0.6127  0.9004 -0.3095
  212MOL   N13130093   4.945   2.118   0.020 -0.8190  0.2480  0.0783
  212MOL   H13230094   4.812   1.959   8.085 -1.5461 -1.6467  1.4589
  212MOL   H13330095   4.835   1.819   8.169  0.5317 -0.2944  0.7133
  212MOL   H13430096   5.063   1.998   8.071 -1.4223  1.2235 -0.7056
  212MOL   C13530097   5.117   1.836   8.197  0.1695  0.3294 -0.6947
  212MOL   C13630098   5.082   1.770   0.012 -0.4655  0.0670 -0.2225
  212MOL   C13730099   4.975   1.665   0.014 -1.2443  0.4501 -0.5186
  212MOL   N13830100   4.893   1.583   0.015 -0.0684  0.0168  0.3746
  212MOL   H13930101   5.134   1.756   8.125  1.4848 -0.7532  0.7907
  212MOL   H14030102   5.211   1.890   8.205  1.3778 -1.9800  0.8582
  212MOL   H14130103   5.063   1.844   0.090  0.0062  0.9187 -0.9099
  212MOL   H14230104   5.171   1.720   0.049 -0.4046  0.1717 -0.2274
  213MOL     C130105   7.979   5.967   6.132 -0.1073  0.1343 -0.5863
  213MOL     C230106   7.877   5.896   6.222  0.7961 -0.1388  0.0686
  213MOL     C330107   7.798   5.804   6.144  0.2532  0.0924 -0.5502
  213MOL     N430108   7.733   5.730   6.085 -0.1953  0.5097  0.3233
  213MOL     H530109   8.046   6.023   6.197 -0.9005  0.6118 -0.1724
  213MOL     H630110   7.923   6.035   6.069 -1.0493  0.1362  0.2434
  213MOL     H730111   7.816   5.973   6.269  1.4975  0.4536  0.0026
  213MOL     H830112   8.029   5.897   6.064  1.3811  0.1407  0.4641
  213MOL     C930113   7.935   5.831   6.346  0.5345  0.8098  0.2583
  213MOL    C1030114   7.839   5.752   6.432 -1.0485  0.1982 -0.1531
  213MOL    C1130115   7.908   5.659   6.519 -0.4252  1.0356  0.0099
  213MOL    N1230116   7.973   5.588   6.586 -0.7038  0.3200 -0.3393
  213MOL    H1330117   8.008   5.756   6.314  0.0389 -0.9813  3.1332
  213MOL    H1430118   8.002   5.893   6.407 -1.6769  1.8660  1.6552
  213MOL    H1530119   7.777   5.694   6.363 -0.8428  0.0194 -0.1892
  213MOL    C1630120   7.748   5.838   6.520  0.4123 -0.1137  0.6467
  213MOL    C1730121   7.617   5.776   6.572  0.6790  0.4438  0.5449
  213MOL    C1830122   7.623   5.643   6.629  0.1543  0.0086 -0.6884
  213MOL    N1930123   7.632   5.534   6.671  0.4901  0.5765 -0.4485
  213MOL    H2030124   7.810   5.858   6.608 -0.1874 -0.2925  1.1168
  213MOL    H2130125   7.741   5.939   6.480 -0.1535  0.0544  1.1560
  213MOL    H2230126   7.539   5.765   6.496  2.5798  0.5832 -1.4621
  213MOL    C2330127   7.551   5.866   6.678 -0.2655 -0.1741 -0.0046
  213MOL    C2430128   7.569   6.020   6.666 -0.4039  0.4900 -0.1241
  213MOL    C2530129   7.526   6.054   6.526  0.2539  0.5607 -0.0038
  213MOL    N2630130   7.494   6.080   6.419 -0.9936 -0.0696  0.1888
  213MOL    H2730131   7.444   5.853   6.666 -0.3623 -0.6124  1.2542
  213MOL    H2830132   7.583   5.827   6.775 -1.1865  2.0415  1.2309
  213MOL    H2930133   7.675   6.044   6.675 -0.3399  0.1258  0.1293
  213MOL    C3030134   7.488   6.103   6.771  0.0575  0.3915 -0.2275
  213MOL    C3130135   7.551   6.235   6.803 -0.9205 -0.1852  0.4378
  213MOL    C3230136   7.681   6.218   6.867 -0.6420  0.3699 -0.1070
  213MOL    N3330137   7.786   6.207   6.912 -0.4999 -0.0860 -0.7058
  213MOL    H3430138   7.386   6.118   6.735  0.6617  2.7353 -1.0870
  213MOL    H3530139   7.470   6.045   6.862 -1.4595 -0.8698 -1.3081
  213MOL    H3630140   7.487   6.280   6.879 -0.5502 -1.5882  1.6061
  213MOL    C3730141   7.563   6.328   6.681 -0.0086  0.0667  0.2640
  213MOL    C3830142   7.443   6.400   6.621  0.3311 -0.0552 -0.0158
  213MOL    C3930143   7.419   6.526   6.696  0.4009 -0.0507 -0.6822
  213MOL    N4030144   7.400   6.620   6.753 -0.8861 -0.5405 -0.6335
  213MOL    H4130145   7.637   6.405   6.700 -0.4661  0.7576 -0.7234
  213MOL    H4230146   7.613   6.273   6.601  0.1986  0.2319  0.2812
  213MOL    H4330147   7.361   6.330   6.637 -0.6312  1.0692  0.0708
  213MOL    C4430148   7.440   6.428   6.472 -0.2066 -0.0625  0.0153
  213MOL    C4530149   7.337   6.528   6.407  0.0789 -0.0295  0.1421
  213MOL    C4630150   7.407   6.583   6.287  0.6558  0.5574  0.0681
  213MOL    N4730151   7.461   6.622   6.191  0.2497 -0.2346 -0.6979
  213MOL    H4830152   7.543   6.458   6.453 -0.1263 -1.6971 -2.3847
  213MOL    H4930153   7.421   6.332   6.425  0.1661 -1.0046  1.7771
  213MOL    H5030154   7.344   6.621   6.464  1.1254  1.4117 -2.2103
  213MOL    C5130155   7.195   6.473   6.375  0.0431 -0.5807 -0.4361
  213MOL    C5230156   7.107   6.465   6.504 -0.1155  0.3521  1.0107
  213MOL    C5330157   7.101   6.591   6.573 -0.2217 -0.1667 -0.5421
  213MOL    N5430158   7.093   6.691   6.625 -0.2740  0.2206  0.6620
  213MOL    H5530159   7.157   6.538   6.296 -3.2267 -0.1012  1.4470
  213MOL    H5630160   7.204   6.376   6.326 -0.4352  0.5666 -2.8680
  213MOL    H5730161   7.155   6.400   6.577 -0.7765 -1.2395  0.0815
  213MOL    C5830162   6.965   6.413   6.468 -0.1175  0.1096  0.6811
  213MOL    C5930163   6.958   6.271   6.413  0.0070  0.6240  0.3405
  213MOL    C6030164   7.073   6.196   6.459  0.3742 -0.1280 -0.5897
  213MOL    N6130165   7.162   6.138   6.503 -0.7230 -0.3481 -0.0248
  213MOL    H6230166   6.903   6.412   6.558  1.4970  2.7013  1.8626
  213MOL    H6330167   6.921   6.482   6.396 -3.3305 -1.6987  0.8267
  213MOL    H6430168   6.978   6.280   6.306  0.6322 -1.6555  0.2512
  213MOL    C6530169   6.827   6.211   6.428  0.0693  0.1747 -0.3441
  213MOL    C6630170   6.785   6.105   6.323  0.2707 -0.3549 -0.1307
  213MOL    C6730171   6.874   5.995   6.323 -0.9199  0.4795 -0.4104
  213MOL    N6830172   6.949   5.906   6.318 -0.4853  0.1076 -0.7934
  213MOL    H6930173   6.822   6.171   6.529  3.5898  1.7550  0.5462
  213MOL    H7030174   6.747   6.283   6.411 -2.4763 -1.9180  2.2485
  213MOL    H7130175   6.799   6.149   6.224  4.0604 -0.7604  0.1787
  213MOL    C7230176   6.636   6.067   6.344  0.2323 -0.1032 -0.0665
  213MOL    C7330177   6.572   5.984   6.228 -0.2145 -0.5084  0.2697
  213MOL    C7430178   6.572   6.048   6.098 -0.0984 -0.2927  0.0157
  213MOL    N7530179   6.570   6.097   5.996 -0.1207 -0.6845  0.2602
  213MOL    H7630180   6.628   6.010   6.436  1.7773 -0.1280  0.0711
  213MOL    H7730181   6.571   6.153   6.363  1.3925  0.4629  1.4296
  213MOL    H7830182   6.465   5.983   6.249 -0.5539  1.0843 -1.3569
  213MOL    C7930183   6.608   5.837   6.236  0.2563 -0.1610  0.5609
  213MOL    C8030184   6.511   5.735   6.180  0.0463  0.5360  0.1890
  213MOL    C8130185   6.456   5.767   6.050  1.0052  0.5020 -0.2876
  213MOL    N8230186   6.413   5.794   5.947  0.0548 -0.5158 -0.2066
  213MOL    H8330187   6.704   5.816   6.189  0.1878 -1.4987  0.9995
  213MOL    H8430188   6.631   5.814   6.340  1.1549  0.2311  0.4536
  213MOL    H8530189   6.426   5.734   6.249 -0.0188 -2.0904  0.1223
  213MOL    C8630190   6.566   5.591   6.195 -0.2599 -0.4065  0.0340
  213MOL    C8730191   6.475   5.475   6.143 -0.0007 -0.6946  0.5393
  213MOL    C8830192   6.332   5.519   6.133 -0.6651  0.1369 -0.9307
  213MOL    N8930193   6.219   5.541   6.129  0.3348 -0.3434  0.6978
  213MOL    H9030194   6.671   5.593   6.167 -0.1203 -0.0567  0.5786
  213MOL    H9130195   6.600   5.575   6.297 -1.8143  1.7170  0.9167
  213MOL    H9230196   6.490   5.396   6.217  4.5157 -0.1207  0.3251
  213MOL    C9330197   6.528   5.408   6.015 -0.1791  0.1388 -0.8687
  213MOL    C9430198   6.460   5.278   5.971  0.4629 -0.0399 -0.4606
  213MOL    C9530199   6.480   5.161   6.061  0.0864 -1.2428  0.4223
  213MOL    N9630200   6.491   5.070   6.133  0.9829 -0.9224 -0.6320
  213MOL    H9730201   6.509   5.482   5.937 -0.1621  1.9132  0.7580
  213MOL    H9830202   6.636   5.399   6.007 -0.1984  1.2857 -2.5504
  213MOL    H9930203   6.516   5.242   5.885  0.5732 -0.2699 -0.2939
  213MOL   C10030204   6.303   5.287   5.947  0.1401 -0.9622  0.5615
  213MOL   C10130205   6.235   5.200   5.843 -0.3723  0.2940 -0.2846
  213MOL   C10230206   6.320   5.193   5.723  0.3774 -0.6675 -0.3741
  213MOL   N10330207   6.388   5.184   5.626  0.1344  0.0150  0.6024
  213MOL   H10430208   6.249   5.309   6.039  2.1485 -1.7279  1.9543
  213MOL   H10530209   6.297   5.385   5.898  0.2653 -1.6881 -0.9283
  213MOL   H10630210   6.135   5.235   5.815 -0.9180 -2.3053 -1.8220
  213MOL   C10730211   6.218   5.055   5.894  0.1562 -0.4033 -0.6337
  213MOL   C10830212   6.143   5.033   6.024 -0.6614 -0.0372  0.1347
  213MOL   C10930213   6.040   5.139   6.036  0.3247  0.4518  0.1095
  213MOL   N11030214   5.953   5.213   6.040 -0.1852  0.1800 -0.3016
  213MOL   H11130215   6.168   4.997   5.817 -3.4256  0.7071  0.7875
  213MOL   H11230216   6.319   5.014   5.904 -0.7910 -2.4100  0.8327
  213MOL   H11330217   6.200   5.044   6.116 -1.0760  0.2799  0.3574
  213MOL   C11430218   6.082   4.889   6.034 -0.0040 -0.2946 -0.2558
  213MOL   C11530219   6.026   4.847   6.173 -0.2561  0.7953 -0.7246
  213MOL   C11630220   6.136   4.823   6.268 -0.0549 -0.9016 -0.5321
  213MOL   N11730221   6.224   4.801   6.337 -0.0726  0.1581 -0.2421
  213MOL   H11830222   6.011   4.865   5.955  0.2532  0.3724 -0.6893
  213MOL   H11930223   6.165   4.822   6.011  1.1392  1.1533 -0.3949
  213MOL   H12030224   5.990   4.745   6.166 -2.0325  1.1674  2.0673
  213MOL   C12130225   5.908   4.944   6.219 -0.5112 -0.4326  0.2119
  213MOL   C12230226   5.785   4.965   6.135 -0.3876  0.0412 -0.1522
  213MOL   C12330227   5.736   4.833   6.102 -0.5658 -0.8275 -0.1724
  213MOL   N12430228   5.700   4.728   6.069 -0.2535  0.0094 -0.4964
  213MOL   H12530229   5.873   4.917   6.319  0.7155 -0.6424  0.6024
  213MOL   H12630230   5.945   5.042   6.247  0.9555 -1.0223  0.3946
  213MOL   H12730231   5.822   5.004   6.040 -2.2228 -2.9480 -2.1724
  213MOL   C12830232   5.676   5.045   6.196 -0.1696  0.5878 -0.1910
  213MOL   C12930233   5.559   5.087   6.112 -0.3085  0.7380 -0.2173
  213MOL   C13030234   5.440   5.105   6.198  0.2901  0.0210 -0.9669
  213MOL   N13130235   5.352   5.110   6.263  0.0310 -0.1350 -0.3599
  213MOL   H13230236   5.635   4.992   6.282 -1.8918  1.5387 -0.3999
  213MOL   H13330237   5.711   5.130   6.254  1.7950 -1.4887  1.7754
  213MOL   H13430238   5.526   5.000   6.055 -0.5518 -0.1371  1.2321
  213MOL   C13530239   5.575   5.207   6.013  0.5238  0.0476 -0.1557
  213MOL   C13630240   5.472   5.198   5.904  0.3990 -0.0226  0.2530
  213MOL   C13730241   5.474   5.310   5.806  0.1226  0.8352  0.0018
  213MOL   N13830242   5.476   5.398   5.731  0.8787  0.1589  0.8750
  213MOL   H13930243   5.551   5.300   6.066 -0.7909 -0.0400 -0.5996
  213MOL   H14030244   5.672   5.220   5.964  1.6260  1.0694  2.1823
  213MOL   H14130245   5.372   5.182   5.942  0.8495 -2.7938  0.3814
  213MOL   H14230246   5.497   5.104   5.856  0.5869 -0.3716  1.0226
  214MOL     C130247   3.300   5.990   5.063  0.4292 -0.8263 -0.0854
  214MOL     C230248   3.335   5.964   4.910 -0.0443 -0.0384  0.0981
  214MOL     C330249   3.430   5.856   4.894  0.2893 -0.7404  0.4157
  214MOL     N430250   3.503   5.769   4.874  0.0480 -0.2801  0.0347
  214MOL     H530251   3.235   5.915   5.108 -0.2262  1.1027  2.3010
  214MOL     H630252   3.237   6.078   5.058 -1.9996 -2.5161  0.0612
  214MOL     H730253   3.390   6.054   4.886 -2.1811  1.6511  1.3471
  214MOL     H830254   3.391   6.002   5.121  0.1765 -1.6278  0.4809
  214MOL     C930255   3.208   5.963   4.822  0.0230 -0.2885 -0.5880
  214MOL    C1030256   3.224   5.938   4.673  0.0331  0.3565 -0.1162
  214MOL    C1130257   3.345   5.992   4.613 -0.2991 -0.4521  1.0725
  214MOL    N1230258   3.442   6.027   4.574 -0.2074 -0.1906  0.6253
  214MOL    H1330259   3.132   5.899   4.867  0.3601  0.4245  1.0431
  214MOL    H1430260   3.168   6.064   4.834 -0.8765 -0.8079  0.9921
  214MOL    H1530261   3.145   5.998   4.628 -0.9067 -0.3437  0.5708
  214MOL    C1630262   3.194   5.787   4.642  0.1039  0.7158 -0.8375
  214MOL    C1730263   3.196   5.741   4.488 -0.7533 -0.5459 -0.6872
  214MOL    C1830264   3.123   5.825   4.395 -0.0622 -0.2973 -0.4098
  214MOL    N1930265   3.077   5.897   4.318  0.3759  0.1957 -0.2528
  214MOL    H2030266   3.258   5.720   4.701 -0.0408  0.2891 -1.1592
  214MOL    H2130267   3.094   5.769   4.681  0.9266 -0.5074  0.7720
  214MOL    H2230268   3.129   5.656   4.504 -3.0941  1.5081  0.7476
  214MOL    C2330269   3.326   5.680   4.425  0.5310 -0.2104  0.5897
  214MOL    C2430270   3.446   5.624   4.508 -0.9538  0.0854 -0.3150
  214MOL    C2530271   3.409   5.530   4.619  0.5061 -0.5872  0.3611
  214MOL    N2630272   3.386   5.459   4.704 -0.5038 -0.4896  0.1845
  214MOL    H2730273   3.299   5.598   4.358  2.0290 -3.2427  3.5448
  214MOL    H2830274   3.357   5.755   4.353 -1.7532  0.4693  0.2506
  214MOL    H2930275   3.486   5.714   4.555  0.9578 -0.3234 -1.1480
  214MOL    C3030276   3.562   5.581   4.417  0.0381  0.6378  0.5825
  214MOL    C3130277   3.689   5.543   4.489  0.7922  0.6025 -0.4519
  214MOL    C3230278   3.809   5.521   4.402  0.5620 -0.2938 -0.2679
  214MOL    N3330279   3.895   5.505   4.326 -0.0550  0.5364  0.0987
  214MOL    H3430280   3.530   5.499   4.352  0.5735  1.9370 -1.3556
  214MOL    H3530281   3.582   5.672   4.361 -1.3155  0.4815 -0.1724
  214MOL    H3630282   3.682   5.449   4.544  2.0167  1.7482  1.7077
  214MOL    C3730283   3.723   5.658   4.594 -0.1920  0.1621 -0.2020
  214MOL    C3830284   3.872   5.661   4.653  0.1615  0.6189  0.1380
  214MOL    C3930285   3.953   5.752   4.568 -0.2179  0.0730  0.0277
  214MOL    N4030286   4.018   5.822   4.503  0.2120  0.3415 -0.2396
  214MOL    H4130287   3.705   5.756   4.549  0.7734  0.3177 -0.2533
  214MOL    H4230288   3.671   5.651   4.690  0.0365 -2.3718 -0.2450
  214MOL    H4330289   3.927   5.567   4.650  0.7588  0.9869 -0.7349
  214MOL    C4430290   3.884   5.699   4.801 -0.5814 -0.7248 -0.3360
  214MOL    C4530291   3.816   5.610   4.903 -0.1453 -0.4384  0.2096
  214MOL    C4630292   3.907   5.497   4.941  0.6676 -0.2881  1.0834
  214MOL    N4730293   3.975   5.412   4.972 -0.0425  0.0104 -0.8101
  214MOL    H4830294   3.988   5.707   4.830 -1.0379  0.6979  0.9691
  214MOL    H4930295   3.845   5.801   4.804  0.4168 -0.3980  2.1504
  214MOL    H5030296   3.717   5.575   4.873 -0.2835  0.6462 -0.6250
  214MOL    C5130297   3.784   5.690   5.035 -1.0016 -0.4218 -0.7252
  214MOL    C5230298   3.863   5.675   5.159 -0.4347 -0.1405  1.0577
  214MOL    C5330299   3.998   5.724   5.143 -0.6593  0.2573  0.4882
  214MOL    N5430300   4.103   5.776   5.133  0.1379 -0.4593 -0.2127
  214MOL    H5530301   3.773   5.798   5.026  0.5766 -0.1541  0.4175
  214MOL    H5630302   3.681   5.664   5.059 -0.7125  1.1441  2.4379
  214MOL    H5730303   3.876   5.569   5.183 -0.7695  0.0468  2.0773
  214MOL    C5830304   3.784   5.726   5.280  0.6870 -0.5784 -0.0223
  214MOL    C5930305   3.853   5.723   5.418 -0.0052 -0.3781 -0.3007
  214MOL    C6030306   3.921   5.849   5.452  0.1777  0.4169 -0.4000
  214MOL    N6130307   3.973   5.948   5.482 -0.7231 -0.2951  1.1438
  214MOL    H6230308   3.745   5.824   5.253  0.6624 -0.5148  0.2403
  214MOL    H6330309   3.688   5.677   5.292  0.0504  0.7329  0.2736
  214MOL    H6430310   3.941   5.659   5.410  1.1521  1.1711 -0.1384
  214MOL    C6530311   3.767   5.663   5.528 -0.3896 -0.0145 -0.8300
  214MOL    C6630312   3.829   5.669   5.670 -0.4241 -1.0380 -0.1036
  214MOL    C6730313   3.807   5.805   5.730  0.4863  0.7553  0.1147
  214MOL    N6830314   3.794   5.908   5.775  0.7013  0.4269  0.2910
  214MOL    H6930315   3.665   5.702   5.521  0.1741  1.2009 -2.5280
  214MOL    H7030316   3.757   5.556   5.508  2.0913 -0.9687  2.5483
  214MOL    H7130317   3.937   5.659   5.658 -0.5019 -0.2858 -1.4833
  214MOL    C7230318   3.795   5.549   5.760 -0.0660 -0.2982  0.4186
  214MOL    C7330319   3.849   5.549   5.902  0.2566  0.3174 -0.4832
  214MOL    C7430320   3.980   5.616   5.921  0.0693 -0.2804 -0.4392
  214MOL    N7530321   4.076   5.678   5.928  0.4595  0.1233  0.3607
  214MOL    H7630322   3.687   5.531   5.762  0.6182 -5.0217  0.7596
  214MOL    H7730323   3.817   5.463   5.697 -0.2840 -0.8637  1.0989
  214MOL    H7830324   3.874   5.448   5.936  1.7040  0.6002 -0.6988
  214MOL    C7930325   3.748   5.612   6.005 -0.2893 -0.5453 -0.0146
  214MOL    C8030326   3.806   5.627   6.148  0.0651 -0.3966  0.1778
  214MOL    C8130327   3.757   5.753   6.209 -0.0624 -0.6776  0.0633
  214MOL    N8230328   3.710   5.848   6.253 -0.1446  0.2656  0.3331
  214MOL    H8330329   3.731   5.715   5.975  3.4119  0.3152  0.5181
  214MOL    H8430330   3.649   5.567   6.001  0.1090 -1.2664 -3.3030
  214MOL    H8530331   3.912   5.651   6.138 -0.2999  1.1498 -0.0278
  214MOL    C8630332   3.793   5.488   6.222 -0.2151 -0.1558 -0.0018
  214MOL    C8730333   3.651   5.449   6.267 -0.2460 -0.9653 -0.8923
  214MOL    C8830334   3.626   5.302   6.267  0.4209 -0.0422  0.2621
  214MOL    N8930335   3.608   5.187   6.266 -0.0383  0.2970  0.0806
  214MOL    H9030336   3.829   5.415   6.149  2.1818  0.4734  0.5099
  214MOL    H9130337   3.862   5.478   6.306  1.6091  1.1371 -1.2926
  214MOL    H9230338   3.601   5.474   6.174 -1.3732 -3.1059 -0.8741
  214MOL    C9330339   3.601   5.512   6.393 -0.0218  0.6850 -0.4018
  214MOL    C9430340   3.444   5.525   6.403 -0.3835  0.1528  0.2874
  214MOL    C9530341   3.395   5.395   6.454 -0.1347 -0.8805 -0.2473
  214MOL    N9630342   3.370   5.291   6.495 -0.1497  0.3288  0.3302
  214MOL    H9730343   3.652   5.461   6.475  2.1245 -2.2904 -3.4356
  214MOL    H9830344   3.651   5.609   6.396  0.4518  0.4532 -0.6729
  214MOL    H9930345   3.407   5.549   6.304  1.6630  2.4770  0.0364
  214MOL   C10030346   3.396   5.633   6.506  0.2826  0.1346 -0.2430
  214MOL   C10130347   3.372   5.774   6.450  0.5675 -0.7935 -0.1348
  214MOL   C10230348   3.313   5.775   6.315 -0.2193  0.5906  0.9787
  214MOL   N10330349   3.261   5.768   6.207 -0.2302 -0.4770 -0.5070
  214MOL   H10430350   3.307   5.594   6.557 -0.0665  2.7042  1.2023
  214MOL   H10530351   3.471   5.642   6.585 -2.7404 -1.7934  3.0255
  214MOL   H10630352   3.473   5.812   6.431  0.2267  1.1062  1.6522
  214MOL   C10730353   3.301   5.871   6.544  0.0997 -0.2624  0.1295
  214MOL   C10830354   3.164   5.835   6.598 -0.2582 -0.0116  0.6776
  214MOL   C10930355   3.165   5.888   6.731  0.1948  0.2180  0.2666
  214MOL   N11030356   3.164   5.933   6.834 -0.5839 -0.5178  0.5241
  214MOL   H11130357   3.368   5.889   6.629 -1.9931  2.1789  1.3590
  214MOL   H11230358   3.309   5.966   6.490 -1.8918  0.5496  1.1884
  214MOL   H11330359   3.157   5.730   6.626  1.6498 -0.2222  0.4662
  214MOL   C11430360   3.044   5.879   6.508 -0.1418  0.1641 -0.1477
  214MOL   C11530361   2.907   5.862   6.574  0.7110  0.0588 -0.1881
  214MOL   C11630362   2.896   5.760   6.680  0.1040 -0.3224 -0.0881
  214MOL   N11730363   2.879   5.684   6.764  0.5973 -0.0509  0.0916
  214MOL   H11830364   3.057   5.985   6.486  0.5630 -0.1180 -1.1027
  214MOL   H11930365   3.046   5.810   6.425  1.3406  1.3254 -1.1041
  214MOL   H12030366   2.842   5.830   6.493  1.2849 -3.2123  0.5855
  214MOL   C12130367   2.822   5.992   6.596  0.8206  0.4090 -0.0927
  214MOL   C12230368   2.673   5.984   6.622  0.2715  0.0520  0.1262
  214MOL   C12330369   2.641   5.912   6.748 -0.0280 -0.9871  0.6743
  214MOL   N12430370   2.612   5.865   6.847 -0.0487  0.5523  0.1269
  214MOL   H12530371   2.880   6.049   6.670 -0.4962  0.2512  1.0733
  214MOL   H12630372   2.831   6.063   6.514 -0.3799  1.3135  0.5415
  214MOL   H12730373   2.630   5.925   6.541 -1.9556  1.1297  0.4795
  214MOL   C12830374   2.599   6.115   6.603 -0.0547  0.0192 -0.6892
  214MOL   C12930375   2.597   6.209   6.725  0.5721 -0.0216  0.1070
  214MOL   C13030376   2.717   6.244   6.802 -0.2802  0.6207  0.2380
  214MOL   N13130377   2.814   6.274   6.864  0.0340 -0.0010  0.2347
  214MOL   H13230378   2.641   6.167   6.516  1.6294  0.7629  0.5421
  214MOL   H13330379   2.494   6.094   6.580 -0.1737  0.4462 -0.5430
  214MOL   H13430380   2.525   6.169   6.797 -1.6803 -0.0803 -2.1215
  214MOL   C13530381   2.525   6.340   6.687  0.4551 -0.1393 -0.2334
  214MOL   C13630382   2.613   6.445   6.622  0.1946 -0.6570 -0.1041
  214MOL   C13730383   2.659   6.433   6.483 -0.4519  0.5346  0.0421
  214MOL   N13830384   2.693   6.429   6.375  0.2721  0.2540  0.2697
  214MOL   H13930385   2.439   6.322   6.623  0.0592  1.0861 -0.0610
  214MOL   H14030386   2.476   6.386   6.773 -0.4433 -2.0772  0.3085
  214MOL   H14130387   2.708   6.460   6.674 -0.2691  0.6975  0.3617
  214MOL   H14230388   2.559   6.540   6.623 -0.6979 -1.1581  1.1317
  215MOL     C130389   0.911   7.144   5.504 -0.3051 -0.2166  0.2625
  215MOL     C230390   0.967   7.000   5.491  0.3795  0.3289  0.3727
  215MOL     C330391   0.864   6.910   5.447 -0.2150  0.7946 -0.4129
  215MOL     N430392   0.769   6.846   5.414 -0.3187 -0.3825  0.4118
  215MOL     H530393   0.974   7.220   5.550 -1.5631  0.3154  1.1384
  215MOL     H630394   0.812   7.143   5.551 -0.8745 -0.3453 -0.9155
  215MOL     H730395   0.998   6.971   5.592  0.8379  2.3742  0.8497
  215MOL     H830396   0.888   7.190   5.408  0.7251 -1.8970 -0.8136
  215MOL     C930397   1.096   7.010   5.407 -0.3105 -0.8083 -0.0661
  215MOL    C1030398   1.181   6.884   5.411  0.0140  0.6859  0.4291
  215MOL    C1130399   1.105   6.756   5.406 -0.4791 -0.4602  0.3412
  215MOL    N1230400   1.050   6.655   5.404  0.5698 -0.4167  0.3118
  215MOL    H1330401   1.081   7.025   5.300  1.3627 -0.1842 -0.2177
  215MOL    H1430402   1.156   7.093   5.442 -0.9407 -0.4790  0.2438
  215MOL    H1530403   1.206   6.882   5.517  1.1742  0.6562  0.1619
  215MOL    C1630404   1.323   6.901   5.348  0.5298 -0.0134 -0.3963
  215MOL    C1730405   1.325   6.927   5.196 -0.0159  0.2333  0.1481
  215MOL    C1830406   1.239   6.827   5.130  0.5933 -0.2149  0.0491
  215MOL    N1930407   1.163   6.757   5.073  0.3738 -0.1338 -0.3186
  215MOL    H2030408   1.378   6.980   5.400 -1.2938  1.4368 -0.5969
  215MOL    H2130409   1.375   6.808   5.370 -0.7819  0.0720  3.3518
  215MOL    H2230410   1.425   6.897   5.166 -0.1399  0.6486 -0.6928
  215MOL    C2330411   1.315   7.071   5.144 -0.5855 -0.3939  0.0243
  215MOL    C2430412   1.386   7.103   5.006  0.6250  0.1738  0.2820
  215MOL    C2530413   1.312   7.055   4.888  0.1383 -0.6944 -0.2785
  215MOL    N2630414   1.262   7.013   4.794  0.6131  0.0971  0.3940
  215MOL    H2730415   1.219   7.122   5.151  0.4332  1.4214  1.2049
  215MOL    H2830416   1.366   7.125   5.223  1.9937 -1.8370 -0.6006
  215MOL    H2930417   1.489   7.068   5.011  0.0702 -2.3117 -3.4812
  215MOL    C3030418   1.403   7.260   4.980 -0.3791 -0.6838  0.8774
  215MOL    C3130419   1.483   7.298   4.855 -0.3589 -0.0720 -0.6592
  215MOL    C3230420   1.385   7.315   4.742 -0.3727  0.0508  0.0614
  215MOL    N3330421   1.308   7.329   4.654 -0.5140 -0.9558 -0.3442
  215MOL    H3430422   1.310   7.314   4.964 -0.1601 -0.6608 -0.3643
  215MOL    H3530423   1.447   7.309   5.067 -1.7115 -1.4161  1.9823
  215MOL    H3630424   1.544   7.209   4.838 -1.7027 -0.6560 -2.6391
  215MOL    C3730425   1.573   7.431   4.881  0.2518  0.1665 -0.8166
  215MOL    C3830426   1.634   7.501   4.766  0.1169 -1.3927 -0.1892
  215MOL    C3930427   1.542   7.556   4.668 -0.5408  0.0134 -0.4624
  215MOL    N4030428   1.467   7.600   4.592 -0.0727 -0.1534  0.0779
  215MOL    H4130429   1.500   7.496   4.930 -0.5505 -0.8543 -0.6527
  215MOL    H4230430   1.655   7.399   4.945  0.7232 -1.6906 -2.3364
  215MOL    H4330431   1.687   7.420   4.715  0.7087 -2.4630  2.0869
  215MOL    C4430432   1.732   7.611   4.811 -0.2769 -0.6377  0.4388
  215MOL    C4530433   1.818   7.671   4.700 -1.1473  0.2455  0.6311
  215MOL    C4630434   1.851   7.808   4.706 -0.0991 -0.7407 -0.1008
  215MOL    N4730435   1.877   7.922   4.715 -0.3250  0.0007 -0.0506
  215MOL    H4830436   1.666   7.687   4.855  0.8701  1.4889 -1.3883
  215MOL    H4930437   1.794   7.589   4.898  1.7781 -1.2399 -1.1599
  215MOL    H5030438   1.747   7.672   4.617  0.2896  0.4044 -0.6256
  215MOL    C5130439   1.940   7.579   4.657  0.7084 -0.0227  0.4571
  215MOL    C5230440   2.056   7.557   4.768  0.8326  0.5169 -0.5877
  215MOL    C5330441   2.118   7.434   4.718  0.2008  0.6024  0.0105
  215MOL    N5430442   2.177   7.344   4.678  0.2634  0.5956 -0.0928
  215MOL    H5530443   1.898   7.480   4.641  1.4356 -0.4632  1.2311
  215MOL    H5630444   1.978   7.618   4.563 -0.6291  2.2995  0.8290
  215MOL    H5730445   2.011   7.527   4.863  2.1031  0.0613 -0.1183
  215MOL    C5830446   2.139   7.679   4.794  0.6373 -0.5835 -0.1461
  215MOL    C5930447   2.138   7.729   4.941  0.5150  0.3798 -0.3819
  215MOL    C6030448   2.154   7.623   5.042  0.1677  0.1214  0.3700
  215MOL    N6130449   2.167   7.543   5.120 -0.2529  0.2142  0.4225
  215MOL    H6230450   2.239   7.639   4.775  0.4981  0.4145 -3.1795
  215MOL    H6330451   2.114   7.764   4.731 -1.0084 -0.9976 -0.0729
  215MOL    H6430452   2.046   7.781   4.966  1.0966  1.8342 -1.1980
  215MOL    C6530453   2.249   7.840   4.956  0.0756  0.2178  0.0250
  215MOL    C6630454   2.239   7.926   5.082  0.1391 -0.6118  0.1618
  215MOL    C6730455   2.137   7.887   5.181 -0.1330 -0.2194  0.0069
  215MOL    N6830456   2.059   7.864   5.265  0.1816  0.5410  0.5673
  215MOL    H6930457   2.340   7.785   4.934  0.0872 -1.4318  3.8957
  215MOL    H7030458   2.235   7.910   4.873  0.5858  0.7247  0.3618
  215MOL    H7130459   2.193   8.020   5.054  0.3901 -0.4965  0.1376
  215MOL    C7230460   2.374   7.971   5.129  0.0473 -0.1277  0.6500
  215MOL    C7330461   2.374   8.074   5.239  0.5218  0.2125  0.5122
  215MOL    C7430462   2.509   8.118   5.263  0.8789  0.5177 -0.0376
  215MOL    N7530463   2.615   8.153   5.289  0.2042  0.0362 -1.0701
  215MOL    H7630464   2.420   7.881   5.170 -0.0126 -0.5408 -0.1742
  215MOL    H7730465   2.446   7.997   5.052  1.6670 -1.1402  1.7898
  215MOL    H7830466   2.341   8.019   5.327 -0.8840 -0.6381 -0.5246
  215MOL    C7930467   2.288   8.199   5.207 -0.2014 -0.5734 -0.3508
  215MOL    C8030468   2.264   8.305   5.310 -0.0854 -0.0561 -0.0313
  215MOL    C8130469   2.382   0.076   5.325 -0.5702  0.2042  0.1960
  215MOL    N8230470   2.475   0.143   5.340 -0.5409  0.3432 -0.0826
  215MOL    H8330471   2.337   8.249   5.124  0.4752  0.8802  0.9235
  215MOL    H8430472   2.192   8.167   5.166 -1.4790 -0.2075  2.2852
  215MOL    H8530473   2.240   8.250   5.402 -3.9896 -0.2423 -1.0803
  215MOL    C8630474   2.136   0.073   5.265 -0.0419 -0.0767  0.0316
  215MOL    C8730475   2.143   0.221   5.267 -0.4713  0.1355  0.1765
  215MOL    C8830476   2.028   0.279   5.190  0.0678 -0.0202 -0.3965
  215MOL    N8930477   1.940   0.329   5.134  0.7491 -1.0020  0.6756
  215MOL    H9030478   2.110   0.047   5.162  0.0936  1.0534 -0.2964
  215MOL    H9130479   2.051   0.040   5.325 -0.5056  0.3124 -0.4042
  215MOL    H9230480   2.223   0.252   5.201  0.7274  1.0542  2.0087
  215MOL    C9330481   2.166   0.300   5.396  0.1515  0.0990  0.3880
  215MOL    C9430482   2.166   0.455   5.389 -0.4603 -0.6689 -0.4993
  215MOL    C9530483   2.040   0.519   5.402 -0.3673  0.1806 -0.1255
  215MOL    N9630484   1.934   0.563   5.417  0.7093 -0.1939  0.2339
  215MOL    H9730485   2.084   0.261   5.456 -1.4352  2.1921 -0.3386
  215MOL    H9830486   2.265   0.272   5.432  1.0232  1.5837 -0.7868
  215MOL    H9930487   2.208   0.479   5.292 -0.7014 -0.4329 -0.5461
  215MOL   C10030488   2.265   0.503   5.497  0.2427  0.3236 -0.0200
  215MOL   C10130489   2.271   0.656   5.502  0.4972  0.3729 -0.5441
  215MOL   C10230490   2.369   0.696   5.600  0.4008 -0.3090  0.5816
  215MOL   N10330491   2.442   0.731   5.684  0.5584  0.3908 -0.6004
  215MOL   H10430492   2.235   0.460   5.593 -0.7885 -0.1120 -0.5293
  215MOL   H10530493   2.361   0.462   5.464 -1.6684 -1.6299 -3.3555
  215MOL   H10630494   2.172   0.685   5.536  0.6062  0.4535 -0.2954
  215MOL   C10730495   2.301   0.723   5.367 -0.6173  0.6052 -0.4234
  215MOL   C10830496   2.261   0.872   5.367 -0.2088  0.3254 -0.6116
  215MOL   C10930497   2.358   0.941   5.448  0.2337  0.2413 -0.5858
  215MOL   N11030498   2.432   1.002   5.511 -0.1782  0.0812 -0.2655
  215MOL   H11130499   2.407   0.719   5.340 -0.6407  0.0303 -0.4433
  215MOL   H11230500   2.242   0.681   5.285 -2.0111  0.1350  0.8048
  215MOL   H11330501   2.168   0.880   5.423 -0.4116  4.0815 -1.3246
  215MOL   C11430502   2.232   0.936   5.226  0.6534  0.2686  0.2758
  215MOL   C11530503   2.198   1.088   5.234  0.1881  0.7048  0.2296
  215MOL   C11630504   2.125   1.128   5.356 -0.3113 -0.2514  0.2629
  215MOL   N11730505   2.074   1.163   5.453  0.5662 -0.2538  0.8078
  215MOL   H11830506   2.315   0.923   5.157  1.6072  1.8065  1.0906
  215MOL   H11930507   2.149   0.877   5.187 -0.3008  1.0586  1.0901
  215MOL   H12030508   2.133   1.108   5.149  0.0514  1.7328  0.5697
  215MOL   C12130509   2.318   1.190   5.204  0.0937  0.6471 -0.3160
  215MOL   C12230510   2.287   1.342   5.206 -0.1472 -0.5143 -0.4316
  215MOL   C12330511   2.148   1.359   5.159 -0.3176 -0.1386 -0.5796
  215MOL   N12430512   2.046   1.374   5.112 -0.5650  1.1642  0.0495
  215MOL   H12530513   2.391   1.176   5.285  0.9789  2.7306 -0.7257
  215MOL   H12630514   2.370   1.150   5.117 -0.3502  1.1149 -0.7949
  215MOL   H12730515   2.357   1.376   5.131  1.7703 -0.1021  1.4850
  215MOL   C12830516   2.325   1.407   5.347 -0.0068 -0.1071 -0.0137
  215MOL   C12930517   2.261   1.543   5.369  0.8079  0.4166  0.5153
  215MOL   C13030518   2.277   1.591   5.504 -0.1426  0.3019  0.0643
  215MOL   N13130519   2.293   1.625   5.611  0.2433  0.0521  0.3773
  215MOL   H13230520   2.301   1.338   5.428 -0.6896  0.6457  0.4290
  215MOL   H13330521   2.434   1.419   5.355 -0.0707 -0.5223  1.8336
  215MOL   H13430522   2.153   1.529   5.363  0.7279  1.8896 -3.5713
  215MOL   C13530523   2.283   1.639   5.243 -0.2609 -0.4694 -0.4021
  215MOL   C13630524   2.308   1.787   5.285 -0.4382 -0.3092 -0.3195
  215MOL   C13730525   2.336   1.864   5.166 -0.5692  0.3854 -0.2323
  215MOL   N13830526   2.366   1.931   5.075  0.2337  0.3060  0.0574
  215MOL   H13930527   2.351   1.595   5.170 -0.9414 -0.3475 -1.1133
  215MOL   H14030528   2.198   1.638   5.175 -0.6479  2.2482 -0.0275
  215MOL   H14130529   2.396   1.792   5.348 -0.9001  1.4278  0.2206
  215MOL   H14230530   2.221   1.828   5.337  2.5007  0.6067  4.1292
  216MOL     C130531   2.106   4.245   7.232  0.0925 -0.3255  0.2718
  216MOL     C230532   2.113   4.116   7.320 -0.4644 -0.9352 -0.5472
  216MOL     C330533   2.142   4.001   7.234 -0.5187 -0.4403 -0.6331
  216MOL     N430534   2.167   3.912   7.169  0.4467 -0.3153  0.0758
  216MOL     H530535   2.202   4.283   7.196 -0.0165  0.0679  0.3836
  216MOL     H630536   2.059   4.333   7.276 -0.8849  0.1541 -1.6655
  216MOL     H730537   2.017   4.104   7.370  0.0059  1.3568  0.9721
  216MOL     H830538   2.050   4.237   7.139  1.6942 -0.2470 -0.7214
  216MOL     C930539   2.219   4.133   7.432 -0.5857  0.0757 -0.0541
  216MOL    C1030540   2.199   4.231   7.545  0.4834  0.1190  0.1350
  216MOL    C1130541   2.082   4.203   7.623 -0.3657  0.2657 -0.3391
  216MOL    N1230542   1.987   4.175   7.680 -0.1531  0.1665  0.5516
  216MOL    H1330543   2.239   4.033   7.470  0.1939  0.3532  0.2883
  216MOL    H1430544   2.311   4.165   7.384 -0.3328  0.0951  0.4371
  216MOL    H1530545   2.177   4.324   7.492  0.6250 -0.2570 -0.5879
  216MOL    C1630546   2.336   4.266   7.627 -0.3114 -0.1571  0.1095
  216MOL    C1730547   2.322   4.376   7.736 -0.1206 -0.4604 -0.2276
  216MOL    C1830548   2.239   4.327   7.851  0.3876  0.1508 -0.1754
  216MOL    N1930549   2.182   4.283   7.942  0.5314  0.5788  0.0278
  216MOL    H2030550   2.370   4.172   7.669 -1.4893 -1.7458 -2.3547
  216MOL    H2130551   2.414   4.298   7.558  1.7682 -4.4573  0.2784
  216MOL    H2230552   2.278   4.462   7.686 -1.5673 -0.4897  0.9470
  216MOL    C2330553   2.460   4.433   7.796 -0.0151 -0.4950  0.0752
  216MOL    C2430554   2.454   4.589   7.808  0.5470 -0.1738 -0.1155
  216MOL    C2530555   2.327   4.626   7.873 -0.4381  0.5152  0.0565
  216MOL    N2630556   2.224   4.654   7.917 -0.1171  0.7566 -0.8290
  216MOL    H2730557   2.483   4.384   7.890 -1.5879 -0.6852  0.3685
  216MOL    H2830558   2.547   4.406   7.736  0.4627 -1.0808  1.0293
  216MOL    H2930559   2.454   4.639   7.711 -2.1615  1.8630  0.8734
  216MOL    C3030560   2.580   4.640   7.891  0.0482  0.2221 -0.1296
  216MOL    C3130561   2.589   4.793   7.895 -0.4233  0.7207  0.1213
  216MOL    C3230562   2.493   4.851   7.982 -0.4980 -0.3568 -0.1432
  216MOL    N3330563   2.416   4.909   8.049  0.8117 -0.5641 -0.4766
  216MOL    H3430564   2.593   4.607   7.994  2.6817  0.6015 -0.3182
  216MOL    H3530565   2.665   4.600   7.836  0.1417  0.5385 -0.2216
  216MOL    H3630566   2.572   4.837   7.797  0.5899 -0.3238 -0.5223
  216MOL    C3730567   2.731   4.842   7.942  0.5271  0.6389  0.6254
  216MOL    C3830568   2.817   4.886   7.832  0.2290 -0.0297  0.4377
  216MOL    C3930569   2.934   4.959   7.886 -0.0050 -0.6688 -0.1900
  216MOL    N4030570   3.020   5.024   7.933  0.5704 -0.4336 -0.3168
  216MOL    H4130571   2.708   4.930   8.002  0.2801  0.7556  0.3636
  216MOL    H4230572   2.777   4.756   7.991 -1.0690  0.0592  1.1479
  216MOL    H4330573   2.758   4.960   7.776 -1.4819 -0.5447  1.5166
  216MOL    C4430574   2.841   4.781   7.724 -0.7826 -0.8427 -0.5538
  216MOL    C4530575   2.915   4.820   7.595  0.4883 -0.1744  0.2715
  216MOL    C4630576   2.913   4.700   7.502  0.0646  0.0753  0.0171
  216MOL    N4730577   2.908   4.607   7.435  0.5106  0.2164 -0.2244
  216MOL    H4830578   2.895   4.695   7.762  0.1465 -0.0824 -0.1246
  216MOL    H4930579   2.743   4.741   7.702 -0.9990 -0.0244 -1.1042
  216MOL    H5030580   3.023   4.823   7.609  0.5449  0.9550 -0.3720
  216MOL    C5130581   2.870   4.950   7.529 -0.2326 -0.2809  0.1431
  216MOL    C5230582   2.752   4.935   7.423  0.8029  0.5120 -0.4138
  216MOL    C5330583   2.629   4.869   7.470 -0.1396  0.1809 -0.4934
  216MOL    N5430584   2.541   4.805   7.508  0.1655  0.0021 -0.3727
  216MOL    H5530585   2.853   5.027   7.605 -3.4393 -0.6554 -0.0896
  216MOL    H5630586   2.954   4.988   7.472 -0.8607  0.6990 -0.1382
  216MOL    H5730587   2.786   4.872   7.340 -3.9552  1.4297 -3.2669
  216MOL    C5830588   2.716   5.069   7.349 -0.5750  0.0805  0.3367
  216MOL    C5930589   2.601   5.147   7.410 -0.3180  0.2423  0.1597
  216MOL    C6030590   2.621   5.156   7.557  0.5834 -0.3004  0.1457
  216MOL    N6130591   2.634   5.170   7.667  0.6057  0.1443 -0.1838
  216MOL    H6230592   2.806   5.130   7.342 -0.8944  0.3943 -1.2147
  216MOL    H6330593   2.687   5.042   7.247 -1.8327  0.5095  0.5722
  216MOL    H6430594   2.519   5.075   7.402 -0.1105  0.1566 -1.4851
  216MOL    C6530595   2.589   5.285   7.337 -0.0387 -0.4504 -0.0325
  216MOL    C6630596   2.442   5.335   7.334  0.4595  0.1425 -0.4869
  216MOL    C6730597   2.342   5.232   7.315 -0.0623 -0.0099  0.6828
  216MOL    N6830598   2.264   5.148   7.306  0.0546 -0.2732  0.0736
  216MOL    H6930599   2.657   5.359   7.380  2.6305 -1.9521 -1.5927
  216MOL    H7030600   2.628   5.273   7.236 -0.2626 -2.4874  0.1066
  216MOL    H7130601   2.434   5.388   7.239  0.3699  0.6229 -0.2176
  216MOL    C7230602   2.410   5.428   7.457 -0.1347 -0.0388  0.1691
  216MOL    C7330603   2.289   5.527   7.442  0.1736 -0.2549  0.0035
  216MOL    C7430604   2.306   5.641   7.346 -0.2029 -0.7552 -0.4641
  216MOL    N7530605   2.318   5.732   7.272  0.3717 -0.0001  0.1800
  216MOL    H7630606   2.392   5.371   7.548  1.5261  2.4162  2.0887
  216MOL    H7730607   2.491   5.495   7.487 -1.7526  1.7192  0.6832
  216MOL    H7830608   2.278   5.572   7.541  0.9672  0.8249 -0.3817
  216MOL    C7930609   2.148   5.464   7.410 -0.7883 -0.0477  0.7602
  216MOL    C8030610   2.023   5.550   7.403  0.1978  0.1469  0.0213
  216MOL    C8130611   1.936   5.498   7.296  0.1433 -0.5958  0.2543
  216MOL    N8230612   1.862   5.465   7.211 -0.0921 -0.2876 -0.4774
  216MOL    H8330613   2.157   5.424   7.309 -2.6371  3.2390 -0.7876
  216MOL    H8430614   2.132   5.379   7.477  2.4734 -1.0269  0.4017
  216MOL    H8530615   2.049   5.649   7.366 -0.2132  0.2606  0.0426
  216MOL    C8630616   1.934   5.560   7.539  1.0621  0.1182  0.5432
  216MOL    C8730617   1.992   5.615   7.663  0.0002 -0.2366  0.2657
  216MOL    C8830618   2.071   5.733   7.637 -0.8592 -0.1057 -0.3017
  216MOL    N8930619   2.131   5.828   7.621 -0.0646 -0.2934  0.1575
  216MOL    H9030620   1.853   5.633   7.534  2.5967  1.8357  0.2001
  216MOL    H9130621   1.892   5.462   7.563 -0.1987 -0.4942 -3.7487
  216MOL    H9230622   2.054   5.539   7.711 -1.8409 -0.4203  2.3954
  216MOL    C9330623   1.891   5.658   7.761  0.2241  0.1896  1.0238
  216MOL    C9430624   1.766   5.559   7.782 -0.2056 -0.2387 -0.2064
  216MOL    C9530625   1.807   5.429   7.836 -0.0640 -0.2588  0.3385
  216MOL    N9630626   1.841   5.325   7.876 -0.9220  0.1506 -0.1324
  216MOL    H9730627   1.940   5.679   7.856  2.3052  1.1414 -0.2401
  216MOL    H9830628   1.845   5.753   7.734 -0.5755  0.0111  1.7425
  216MOL    H9930629   1.724   5.531   7.685  1.4513  0.2087 -1.0690
  216MOL   C10030630   1.655   5.615   7.875 -0.1016  0.1191 -0.0346
  216MOL   C10130631   1.565   5.719   7.804 -0.2045 -0.2975  0.3106
  216MOL   C10230632   1.481   5.660   7.700 -0.4971  0.5187 -0.0506
  216MOL   N10330633   1.420   5.612   7.615 -0.5456  0.0513 -0.4091
  216MOL   H10430634   1.596   5.527   7.900 -2.3487  1.2462 -1.1850
  216MOL   H10530635   1.691   5.643   7.974  0.3698 -1.8250  0.3589
  216MOL   H10630636   1.634   5.791   7.758 -2.4335 -0.1487 -2.9849
  216MOL   C10730637   1.479   5.798   7.909  0.0735  0.0667 -0.3000
  216MOL   C10830638   1.343   5.742   7.936 -0.9627  0.0686  0.3572
  216MOL   C10930639   1.350   5.597   7.958 -0.4550  0.1491 -0.4727
  216MOL   N11030640   1.360   5.485   7.978  0.4447  0.1986  0.2130
  216MOL   H11130641   1.535   5.826   7.999  1.9030 -1.9777 -0.7552
  216MOL   H11230642   1.479   5.901   7.874  0.0399 -0.4724 -1.9165
  216MOL   H11330643   1.284   5.763   7.847  0.8599  0.8550 -0.7148
  216MOL   C11430644   1.278   5.815   8.055  0.2477  0.0264 -0.3096
  216MOL   C11530645   1.122   5.794   8.092 -0.6080  0.0110 -0.3054
  216MOL   C11630646   1.093   5.864   8.223  0.2342 -0.8273  0.2365
  216MOL   N11730647   1.079   5.916   0.011 -0.2240  0.6217 -0.1413
  216MOL   H11830648   1.330   5.791   8.147 -0.8767 -1.5293 -0.0663
  216MOL   H11930649   1.300   5.921   8.039 -0.2749 -0.3185 -3.8722
  216MOL   H12030650   1.104   5.687   8.105  1.2104 -0.4489 -1.3194
  216MOL   C12130651   1.034   5.819   7.973 -0.1052 -0.0155  0.3862
  216MOL   C12230652   0.888   5.789   7.997  0.0379  0.5242 -0.2440
  216MOL   C12330653   0.826   5.891   8.078  0.3576  0.0042 -0.0704
  216MOL   N12430654   0.778   5.971   8.152 -0.3595 -0.0807 -0.1454
  216MOL   H12530655   1.043   5.922   7.939  0.7343  0.0503  0.8061
  216MOL   H12630656   1.080   5.766   7.890  3.7016  2.5031  0.7456
  216MOL   H12730657   0.893   5.695   8.052 -0.1820  1.2742  1.0654
  216MOL   C12830658   0.805   5.761   7.863 -0.4543  1.2269  0.0739
  216MOL   C12930659   0.696   5.655   7.872  0.2311  0.0022 -0.3608
  216MOL   C13030660   0.600   5.722   7.961 -0.1054 -0.4761 -0.2972
  216MOL   N13130661   0.523   5.776   8.036 -0.9263  0.6292 -0.2640
  216MOL   H13230662   0.766   5.853   7.818 -0.8780  0.9167 -0.1925
  216MOL   H13330663   0.881   5.724   7.793 -2.4627 -1.5299 -0.7334
  216MOL   H13430664   0.718   5.564   7.926  0.3183  0.2943  0.1018
  216MOL   C13530665   0.639   5.614   7.731  0.8999  0.5427  0.7385
  216MOL   C13630666   0.590   5.727   7.634  0.2907 -0.2433 -0.0252
  216MOL   C13730667   0.698   5.811   7.586  0.6033  0.0857  0.1633
  216MOL   N13830668   0.783   5.876   7.540 -0.3158  0.3286 -0.5802
  216MOL   H13930669   0.708   5.557   7.669  0.2238  0.7119 -0.1820
  216MOL   H14030670   0.549   5.556   7.754  0.9077 -0.2730 -1.2371
  216MOL   H14130671   0.521   5.791   7.688  0.7631 -0.6984  1.1413
  216MOL   H14230672   0.526   5.682   7.558 -1.0096  1.1242  0.2418
  217MOL     C130673   1.428   0.934   5.028  0.9777  0.1035  0.4404
  217MOL     C230674   1.297   0.932   5.109 -0.3422 -0.5701 -0.8277
  217MOL     C330675   1.179   0.939   5.026 -0.0897  0.5352 -0.5300
  217MOL     N430676   1.083   0.952   4.961  0.5040 -0.1261  0.0646
  217MOL     H530677   1.432   1.037   4.992  1.6343 -0.2958 -0.6596
  217MOL     H630678   1.426   0.855   4.953 -1.1069 -0.7693  1.3855
  217MOL     H730679   1.285   1.013   5.181  1.3655 -2.0762  1.2170
  217MOL     H830680   1.521   0.937   5.086 -0.2292 -2.0379  2.6000
  217MOL     C930681   1.305   0.807   5.189  0.6371 -0.1719  0.6124
  217MOL    C1030682   1.180   0.775   5.289  0.1081  0.0293  0.2026
  217MOL    C1130683   1.064   0.725   5.213  0.8470 -0.3592 -0.7131
  217MOL    N1230684   0.976   0.687   5.157 -0.6921  0.2659 -0.1373
  217MOL    H1330685   1.300   0.720   5.124 -3.2451  0.4058  0.0184
  217MOL    H1430686   1.402   0.793   5.238  0.9953 -0.4701 -0.1696
  217MOL    H1530687   1.152   0.868   5.337 -2.5807 -0.1798 -0.8671
  217MOL    C1630688   1.225   0.678   5.406 -0.2322 -0.1057  0.5199
  217MOL    C1730689   1.117   0.653   5.510  0.1327  0.1210 -0.8734
  217MOL    C1830690   1.095   0.505   5.516 -0.2904 -0.4095 -0.9217
  217MOL    N1930691   1.078   0.393   5.522 -0.6553  0.5981 -0.3020
  217MOL    H2030692   1.272   0.586   5.370  2.4273  1.3679  0.1044
  217MOL    H2130693   1.305   0.729   5.459 -1.3870  2.6640 -0.3343
  217MOL    H2230694   1.028   0.711   5.488  0.5961  1.6578  1.2128
  217MOL    C2330695   1.151   0.699   5.652 -0.0891  0.2726  0.0493
  217MOL    C2430696   1.065   0.644   5.769  0.4410 -0.0904 -0.5453
  217MOL    C2530697   1.130   0.680   5.895 -0.4101  0.6157  0.9476
  217MOL    N2630698   1.179   0.709   5.996  0.6406 -0.1357 -0.1078
  217MOL    H2730699   1.253   0.661   5.664  0.8205  2.5408 -0.1860
  217MOL    H2830700   1.148   0.808   5.655  1.8247  0.3654 -0.7394
  217MOL    H2930701   1.084   0.537   5.761 -0.2708 -0.2567 -0.0146
  217MOL    C3030702   0.918   0.676   5.767  0.4704 -0.3392 -0.1868
  217MOL    C3130703   0.829   0.595   5.882 -0.4184  0.3438  0.1058
  217MOL    C3230704   0.698   0.646   5.898 -0.2953  0.2516  0.1117
  217MOL    N3330705   0.594   0.695   5.910  0.1484 -0.4083  0.1649
  217MOL    H3430706   0.896   0.782   5.781 -2.0154 -0.8128 -0.3479
  217MOL    H3530707   0.882   0.651   5.667 -0.0100 -0.1951 -0.0509
  217MOL    H3630708   0.886   0.623   5.970 -1.5699  3.9506 -0.2078
  217MOL    C3730709   0.833   0.443   5.864  0.2759 -0.2134  0.2084
  217MOL    C3830710   0.733   0.360   5.778  0.0100  0.0198 -0.8245
  217MOL    C3930711   0.603   0.373   5.845  1.3650  0.0581 -0.7226
  217MOL    N4030712   0.503   0.383   5.897  0.2868  0.2934  0.2043
  217MOL    H4130713   0.932   0.403   5.844  0.8713  1.0154  0.6743
  217MOL    H4230714   0.831   0.404   5.966  2.3129  1.6840  1.0133
  217MOL    H4330715   0.775   0.259   5.781  1.2072  0.5364  0.8422
  217MOL    C4430716   0.730   0.407   5.632  0.2060  0.3826 -0.4139
  217MOL    C4530717   0.658   0.317   5.528 -0.6937  1.2097  0.2428
  217MOL    C4630718   0.513   0.353   5.524 -0.0822  0.1743  0.6342
  217MOL    N4730719   0.398   0.380   5.525  0.3503  0.3437 -0.3347
  217MOL    H4830720   0.692   0.509   5.637 -2.1700 -0.3360 -2.8717
  217MOL    H4930721   0.828   0.412   5.584  0.3291 -3.1951 -0.6960
  217MOL    H5030722   0.654   0.221   5.579  0.5414  1.2554  0.4351
  217MOL    C5130723   0.733   0.300   5.396  0.6462  0.3828 -0.0444
  217MOL    C5230724   0.731   0.424   5.307  0.5223 -0.1934  0.3396
  217MOL    C5330725   0.758   0.554   5.372 -0.4454 -0.2381  0.5553
  217MOL    N5430726   0.778   0.654   5.425 -0.8471  0.7013 -0.1223
  217MOL    H5530727   0.838   0.276   5.413  0.8318  1.2283  0.0334
  217MOL    H5630728   0.690   0.207   5.359 -1.2128  1.3673 -0.4041
  217MOL    H5730729   0.628   0.434   5.271  0.6171  1.1609  0.4103
  217MOL    C5830730   0.828   0.407   5.194  0.8187  0.3401  0.0496
  217MOL    C5930731   0.778   0.438   5.055 -0.2488 -0.6012  0.5623
  217MOL    C6030732   0.705   0.321   5.004 -0.2553  0.2999 -0.1895
  217MOL    N6130733   0.651   0.224   4.975  0.5961 -0.1023  0.4355
  217MOL    H6230734   0.923   0.455   5.218 -0.0315  1.9166  0.3480
  217MOL    H6330735   0.861   0.303   5.193 -0.5193 -0.0829 -0.9172
  217MOL    H6430736   0.867   0.429   4.993 -0.4214  1.5388 -0.0484
  217MOL    C6530737   0.712   0.576   5.029 -0.0730 -0.2071 -0.2042
  217MOL    C6630738   0.718   0.631   4.882 -0.0636 -0.3191 -0.3153
  217MOL    C6730739   0.634   0.743   4.880  0.1942 -0.4236  0.0625
  217MOL    N6830740   0.563   0.831   4.885  0.5772 -0.5248 -0.7470
  217MOL    H6930741   0.608   0.563   5.061 -1.1117  0.1616 -3.2457
  217MOL    H7030742   0.741   0.661   5.090  2.6949  0.7768 -2.7794
  217MOL    H7130743   0.671   0.561   4.812  1.0709  0.5543 -1.9695
  217MOL    C7230744   0.867   0.661   4.841  0.2497 -0.6925  0.4166
  217MOL    C7330745   0.895   0.739   4.716  0.1541 -0.1707 -0.6856
  217MOL    C7430746   1.035   0.745   4.691 -0.0898 -0.0361  0.1988
  217MOL    N7530747   1.151   0.749   4.676  0.1232 -0.1153 -0.4632
  217MOL    H7630748   0.910   0.722   4.921  0.1257  0.8307 -0.6646
  217MOL    H7730749   0.925   0.568   4.840  3.8638  1.4677  1.3658
  217MOL    H7830750   0.861   0.841   4.736  1.8142  0.0708  0.9979
  217MOL    C7930751   0.816   0.691   4.590  0.3863  0.0912  0.0861
  217MOL    C8030752   0.874   0.566   4.516 -0.1503  0.0867  0.2048
  217MOL    C8130753   0.804   0.454   4.576 -0.2959 -0.2068 -0.0088
  217MOL    N8230754   0.753   0.360   4.616  0.3011  0.2405 -0.1135
  217MOL    H8330755   0.711   0.666   4.603  0.5024  0.1461  1.1954
  217MOL    H8430756   0.826   0.780   4.527 -0.6517 -1.2915 -2.0814
  217MOL    H8530757   0.981   0.555   4.530 -0.2139 -1.6781 -0.4982
  217MOL    C8630758   0.830   0.568   4.369 -0.3778  0.3639  0.5454
  217MOL    C8730759   0.929   0.639   4.281 -0.0324 -0.2162  0.0505
  217MOL    C8830760   1.069   0.594   4.307  0.7652  0.0095  0.5947
  217MOL    N8930761   1.174   0.557   4.331 -0.0278  0.6110 -0.3464
  217MOL    H9030762   0.826   0.462   4.346 -0.4416  0.1867  1.3805
  217MOL    H9130763   0.730   0.610   4.358 -0.3226 -0.2251 -2.6319
  217MOL    H9230764   0.934   0.743   4.316  0.7418 -0.3732  0.4211
  217MOL    C9330765   0.901   0.608   4.130 -0.2769 -0.2363 -0.1480
  217MOL    C9430766   0.801   0.706   4.068  0.0752 -0.1137  0.0681
  217MOL    C9530767   0.669   0.694   4.121  0.3915 -0.6446 -0.8081
  217MOL    N9630768   0.561   0.676   4.164  0.4716  0.1913 -0.6791
  217MOL    H9730769   0.994   0.620   4.074 -1.2669 -2.1540 -2.2840
  217MOL    H9830770   0.882   0.502   4.113 -0.2969  0.1177 -2.5415
  217MOL    H9930771   0.782   0.665   3.969  0.6193  0.2037 -0.1655
  217MOL   C10030772   0.847   0.856   4.052 -0.3548  0.3682  0.3413
  217MOL   C10130773   0.742   0.962   4.028  0.9446  0.0257  0.6060
  217MOL   C10230774   0.798   1.094   4.018  0.0739 -1.0728 -0.4706
  217MOL   N10330775   0.849   1.204   4.021  0.0462 -0.2026  0.0624
  217MOL   H10430776   0.892   0.884   4.147  2.3713  0.4294 -0.9126
  217MOL   H10530777   0.925   0.857   3.976 -0.1471  0.6883  0.5569
  217MOL   H10630778   0.676   0.975   4.114  1.6718 -0.3204  1.2199
  217MOL   C10730779   0.657   0.917   3.905  0.1277  0.4796  0.1405
  217MOL   C10830780   0.546   1.015   3.862  0.4660 -0.0568 -0.5315
  217MOL   C10930781   0.596   1.092   3.749  0.7193 -0.2939  0.2064
  217MOL   N11030782   0.626   1.157   3.658  0.0965 -0.0512  0.2110
  217MOL   H11130783   0.724   0.895   3.822  1.4633 -0.2014  1.3848
  217MOL   H11230784   0.603   0.825   3.928 -0.8302  0.5193 -1.8080
  217MOL   H11330785   0.519   1.077   3.948 -2.4593  0.7623 -1.9749
  217MOL   C11430786   0.420   0.948   3.817  0.0834 -0.2449 -0.4197
  217MOL   C11530787   0.311   1.042   3.756  0.3430 -0.2878  0.2293
  217MOL   C11630788   0.202   0.963   3.711  0.3471  0.0817  0.3664
  217MOL   N11730789   0.113   0.896   3.673 -0.7094  0.2536 -0.2982
  217MOL   H11830790   0.451   0.868   3.749  2.1524  0.1505  0.0265
  217MOL   H11930791   0.374   0.901   3.904 -0.2050 -0.9942 -0.9699
  217MOL   H12030792   0.344   1.079   3.658  4.0389 -2.0442  0.7203
  217MOL   C12130793   0.290   1.179   3.825  0.2778 -0.0444  0.4066
  217MOL   C12230794   0.160   1.249   3.792  0.8549 -0.5218 -0.5140
  217MOL   C12330795   0.121   1.350   3.889  0.5221  0.3338 -0.1710
  217MOL   N12430796   0.085   1.438   3.960 -0.1378  0.8863 -0.5607
  217MOL   H12530797   0.283   1.163   3.933  0.8474  1.2514  0.6393
  217MOL   H12630798   0.380   1.236   3.801  1.5493 -1.0426  2.5369
  217MOL   H12730799   0.079   1.176   3.804 -1.8872  2.3940 -0.4454
  217MOL   C12830800   0.159   1.311   3.659  0.5710  0.2418 -0.2274
  217MOL   C12930801   0.022   1.332   3.589 -0.0573 -0.1457  0.0445
  217MOL   C13030802   8.262   1.441   3.649  0.2286 -0.2809  0.5162
  217MOL   N13130803   8.197   1.526   3.695  0.3442 -0.4597 -0.2738
  217MOL   H13230804   0.207   1.409   3.660 -2.6894  1.9203 -1.2559
  217MOL   H13330805   0.214   1.243   3.595  0.0211  1.3905 -1.9621
  217MOL   H13430806   8.288   1.235   3.607 -1.6424  0.2155 -1.8744
  217MOL   C13530807   0.030   1.358   3.438  0.4177 -0.4381 -0.6178
  217MOL   C13630808   8.205   1.352   3.373  0.0347 -0.0867  0.1258
  217MOL   C13730809   8.153   1.219   3.373  0.2899 -0.5008 -0.0849
  217MOL   N13830810   8.115   1.110   3.379  0.8885  0.2516 -0.2569
  217MOL   H13930811   0.076   1.453   3.409 -0.5917  0.0927 -0.4776
  217MOL   H14030812   0.081   1.270   3.399  0.8040  0.8517 -3.1024
  217MOL   H14130813   8.205   1.380   3.267  1.5637 -1.1708 -0.1804
  217MOL   H14230814   8.144   1.427   3.423  0.8260  1.0667 -0.6075
  218MOL     C130815   1.815   5.710   2.418  0.0196  0.1186 -0.3244
  218MOL     C230816   1.801   5.562   2.377  0.2164 -0.5831  0.4632
  218MOL     C330817   1.703   5.549   2.273  0.0296  0.0514  0.6347
  218MOL     N430818   1.626   5.538   2.188  0.3883 -0.3658 -0.6509
  218MOL     H530819   1.808   5.776   2.332 -1.2221 -1.2883 -1.3346
  218MOL     H630820   1.900   5.729   2.483 -1.7682  0.3458  2.0141
  218MOL     H730821   1.763   5.524   2.472  1.2592 -1.7159  0.4372
  218MOL     H830822   1.726   5.729   2.478  0.0880 -0.3069 -0.0811
  218MOL     C930823   1.937   5.489   2.354  0.7671  0.7756  1.0239
  218MOL    C1030824   2.047   5.503   2.451  0.1927 -0.7206  0.2483
  218MOL    C1130825   2.002   5.454   2.582  0.5221 -0.4304  0.4647
  218MOL    N1230826   1.974   5.410   2.685  0.3574  0.4030 -0.3511
  218MOL    H1330827   1.902   5.385   2.350 -0.5293  1.2754 -1.7779
  218MOL    H1430828   1.973   5.515   2.254 -0.4748 -0.2198  0.2918
  218MOL    H1530829   2.065   5.608   2.473 -0.2838 -0.4926 -0.4306
  218MOL    C1630830   2.185   5.447   2.410  0.1701  0.6717 -0.0449
  218MOL    C1730831   2.298   5.419   2.519  0.6594 -0.3261 -0.6534
  218MOL    C1830832   2.297   5.520   2.625 -0.4066 -0.6981 -0.7061
  218MOL    N1930833   2.296   5.598   2.702 -0.0161 -0.6143 -0.4868
  218MOL    H2030834   2.173   5.354   2.355  0.9537  0.1486  0.6543
  218MOL    H2130835   2.225   5.511   2.331  0.2660 -0.3464 -0.8259
  218MOL    H2230836   2.393   5.440   2.470  2.1499 -3.7910  0.5518
  218MOL    C2330837   2.287   5.271   2.565 -0.3469  0.2182 -0.0614
  218MOL    C2430838   2.416   5.205   2.636  0.4412  0.0339 -0.1883
  218MOL    C2530839   2.456   5.281   2.754 -0.5992 -0.1701  0.5125
  218MOL    N2630840   2.471   5.338   2.853 -0.5843  0.1547  0.1068
  218MOL    H2730841   2.202   5.274   2.633  0.1127  0.1795  0.5209
  218MOL    H2830842   2.270   5.206   2.479  0.9344 -0.6899  0.3504
  218MOL    H2930843   2.503   5.210   2.571  1.5342 -1.8604  1.0859
  218MOL    C3030844   2.390   5.057   2.652  0.4778 -0.1515  0.7667
  218MOL    C3130845   2.484   4.985   2.741 -0.1696  0.1881 -0.3870
  218MOL    C3230846   2.443   4.851   2.763  0.3993 -0.5631  0.6290
  218MOL    N3330847   2.411   4.746   2.789 -0.0630 -0.0895 -0.1185
  218MOL    H3430848   2.287   5.050   2.685  0.6317  1.4905  1.6538
  218MOL    H3530849   2.387   5.015   2.552 -0.1543 -1.5296  1.3493
  218MOL    H3630850   2.487   5.031   2.840 -0.6642 -1.7822  0.5689
  218MOL    C3730851   2.634   4.990   2.699  0.1436 -0.3435 -0.1421
  218MOL    C3830852   2.730   4.957   2.819  0.6850  0.6107 -0.0493
  218MOL    C3930853   2.671   4.968   2.950  0.2802  0.3394  0.3113
  218MOL    N4030854   2.624   4.969   3.052 -0.1592  0.5531 -0.3082
  218MOL    H4130855   2.648   4.934   2.607  1.0880  1.7951 -1.3592
  218MOL    H4230856   2.651   5.092   2.663 -2.5084  0.0658 -0.3726
  218MOL    H4330857   2.807   5.035   2.816  0.9059  0.3897 -0.1466
  218MOL    C4430858   2.801   4.816   2.808  0.4604  0.0367  0.0909
  218MOL    C4530859   2.936   4.819   2.733 -0.3461  0.2873 -0.2677
  218MOL    C4630860   2.922   4.837   2.591 -0.0971  0.1937 -0.1763
  218MOL    N4730861   2.920   4.854   2.476  0.3736 -0.5782  0.0120
  218MOL    H4830862   2.816   4.770   2.906  0.9746  0.6394  0.2988
  218MOL    H4930863   2.729   4.744   2.769 -1.2267  1.6923  0.0706
  218MOL    H5030864   2.976   4.718   2.737  2.0471  1.1459 -1.5364
  218MOL    C5130865   3.048   4.902   2.807  0.0218 -0.5732  0.0235
  218MOL    C5230866   3.125   5.008   2.732  0.0473 -0.1721 -0.8363
  218MOL    C5330867   3.031   5.113   2.684 -0.1368 -0.0459 -0.0047
  218MOL    N5430868   2.957   5.195   2.646 -0.7087 -0.0740 -0.2282
  218MOL    H5530869   3.013   4.943   2.901  0.9929 -1.5667  0.8315
  218MOL    H5630870   3.127   4.836   2.844  0.6401  0.2214  0.1367
  218MOL    H5730871   3.164   4.977   2.635 -2.0355  0.0801 -1.7783
  218MOL    C5830872   3.227   5.074   2.823  0.2872 -1.4192 -0.0174
  218MOL    C5930873   3.351   4.984   2.861 -0.1517  0.0048 -0.3717
  218MOL    C6030874   3.319   4.898   2.972  0.4589  0.0998  0.0891
  218MOL    N6130875   3.296   4.823   3.063 -0.2019  0.0623  0.0428
  218MOL    H6230876   3.266   5.165   2.779  0.7532 -1.4190  0.3878
  218MOL    H6330877   3.179   5.104   2.916 -0.5463  3.7514 -1.9881
  218MOL    H6430878   3.431   5.046   2.900  0.6567 -1.3241  0.1111
  218MOL    C6530879   3.411   4.903   2.742  0.6581 -0.5547  0.0157
  218MOL    C6630880   3.552   4.843   2.752 -0.6180  0.4833 -0.3399
  218MOL    C6730881   3.589   4.797   2.893  0.5016  0.0060 -0.5914
  218MOL    N6830882   3.625   4.768   3.002  0.0815 -0.3401  0.1569
  218MOL    H6930883   3.342   4.818   2.740 -1.7970  1.3741  0.0518
  218MOL    H7030884   3.398   4.960   2.650 -0.9233  0.2522  0.7230
  218MOL    H7130885   3.631   4.917   2.740  0.8154 -0.8750  0.5015
  218MOL    C7230886   3.583   4.739   2.654  0.8948  0.9788  0.4707
  218MOL    C7330887   3.741   4.712   2.649 -0.0583 -0.0906  0.0130
  218MOL    C7430888   3.767   4.568   2.619  0.0415  0.3263  0.2904
  218MOL    N7530889   3.782   4.460   2.597  0.3573 -0.1569 -0.0357
  218MOL    H7630890   3.528   4.647   2.675  1.4449  0.1047 -1.7762
  218MOL    H7730891   3.547   4.771   2.556 -0.0708  0.7345  0.7425
  218MOL    H7830892   3.785   4.731   2.747  0.5773 -0.2898 -0.2296
  218MOL    C7930893   3.806   4.805   2.545 -0.1484  0.5464 -0.6325
  218MOL    C8030894   3.954   4.779   2.536  0.1264  0.7425  1.2609
  218MOL    C8130895   3.978   4.655   2.460  0.8074  0.0232  0.2226
  218MOL    N8230896   4.004   4.554   2.404  0.2851  0.8854 -0.0491
  218MOL    H8330897   3.753   4.812   2.449  0.9142 -1.3067 -1.3715
  218MOL    H8430898   3.794   4.901   2.596 -2.0294  0.6001 -1.1161
  218MOL    H8530899   3.999   4.763   2.634  2.5703  2.3457  0.4567
  218MOL    C8630900   4.044   4.894   2.490  0.1753  0.0967 -0.3691
  218MOL    C8730901   4.104   4.966   2.607  0.2988  0.4734 -0.3932
  218MOL    C8830902   4.006   5.023   2.704 -0.2838  0.3639  0.2599
  218MOL    N8930903   3.931   5.065   2.783 -0.1701 -0.9357  0.1321
  218MOL    H9030904   4.125   4.865   2.424  0.1878 -0.9296  0.0868
  218MOL    H9130905   3.988   4.970   2.435  1.0565  1.6324  0.8235
  218MOL    H9230906   4.154   5.055   2.568 -2.6684  2.0121 -0.8555
  218MOL    C9330907   4.222   4.895   2.669  0.7203  0.0223 -0.0499
  218MOL    C9430908   4.278   4.964   2.794  0.2218 -0.2778 -0.0242
  218MOL    C9530909   4.192   4.944   2.905 -0.3688  0.4644 -0.6576
  218MOL    N9630910   4.125   4.928   2.996  0.3023 -0.1686 -0.0154
  218MOL    H9730911   4.184   4.797   2.695  0.1905  0.6780  1.7480
  218MOL    H9830912   4.306   4.886   2.600  1.9758  1.1712  1.2875
  218MOL    H9930913   4.283   5.070   2.769  0.7362 -0.4309 -0.6052
  218MOL   C10030914   4.424   4.918   2.816 -0.8984 -0.3106 -0.0775
  218MOL   C10130915   4.478   4.971   2.950  0.1632 -0.1609  0.5263
  218MOL   C10230916   4.433   4.902   3.074  0.0173 -0.7533  0.0034
  218MOL   N10330917   4.397   4.850   3.170  0.1097 -0.2973  0.2804
  218MOL   H10430918   4.443   4.812   2.801  1.1108 -0.0047  0.1763
  218MOL   H10530919   4.490   4.963   2.741 -2.5767  0.1118 -1.3313
  218MOL   H10630920   4.455   5.077   2.950  2.7390  0.4486 -0.9696
  218MOL   C10730921   4.633   4.965   2.951  1.0523 -0.3006 -0.4791
  218MOL   C10830922   4.702   4.988   3.082  0.1117 -0.5367  0.0143
  218MOL   C10930923   4.849   5.014   3.075  0.7058 -0.1046 -0.1708
  218MOL   N11030924   4.965   5.026   3.069 -0.2938 -0.4417 -0.0885
  218MOL   H11130925   4.669   4.874   2.904 -0.6276 -1.0166 -0.4112
  218MOL   H11230926   4.666   5.039   2.879 -0.9928  1.6247  0.5017
  218MOL   H11330927   4.703   4.888   3.126  1.2490 -0.3671  0.3903
  218MOL   C11430928   4.641   5.099   3.174 -0.7925  0.4794  0.5193
  218MOL   C11530929   4.646   5.065   3.323 -0.7500 -0.0519  0.8958
  218MOL   C11630930   4.762   4.983   3.366  0.6132 -0.6026  0.6995
  218MOL   N11730931   4.856   4.922   3.397  0.4647  0.2137 -0.4248
  218MOL   H11830932   4.698   5.191   3.157 -1.1060  0.5456 -0.2118
  218MOL   H11930933   4.538   5.120   3.146 -1.1256  0.2266  1.5604
  218MOL   H12030934   4.560   5.001   3.341  0.7667 -2.2498  0.6079
  218MOL   C12130935   4.639   5.187   3.424 -0.4388 -0.0727 -0.0868
  218MOL   C12230936   4.577   5.160   3.562  0.3096  0.2586  0.3626
  218MOL   C12330937   4.646   5.058   3.644 -0.2359 -0.4113 -0.0478
  218MOL   N12430938   4.703   4.980   3.703  0.2408  0.3339 -0.0054
  218MOL   H12530939   4.739   5.221   3.449 -0.1575 -1.1622  0.3027
  218MOL   H12630940   4.589   5.266   3.369 -1.5973 -0.0830  0.9200
  218MOL   H12730941   4.487   5.107   3.531  0.2962 -1.5267  3.2720
  218MOL   C12830942   4.537   5.285   3.635  0.2274 -0.8025 -0.5688
  218MOL   C12930943   4.472   5.269   3.771 -0.9512 -0.3252 -1.1464
  218MOL   C13030944   4.369   5.164   3.774  0.0238 -0.2998 -0.1404
  218MOL   N13130945   4.293   5.082   3.775  0.5959 -0.3029 -0.3350
  218MOL   H13230946   4.615   5.360   3.623  0.1437 -0.4361  1.1280
  218MOL   H13330947   4.454   5.331   3.581  1.0389  0.8129 -0.4660
  218MOL   H13430948   4.419   5.364   3.777  0.8277  0.5698  0.6766
  218MOL   C13530949   4.588   5.256   3.886 -0.0791  0.0567 -0.2434
  218MOL   C13630950   4.556   5.312   4.021 -0.1224  0.2476 -0.0843
  218MOL   C13730951   4.583   5.457   4.030  0.0237 -0.4215 -0.7337
  218MOL   N13830952   4.592   5.570   4.034  0.1329  0.0230 -0.2807
  218MOL   H13930953   4.625   5.154   3.901 -3.1672 -1.1497 -0.3830
  218MOL   H14030954   4.680   5.298   3.845  0.1411 -1.1235 -1.0076
  218MOL   H14130955   4.619   5.272   4.101 -2.2425 -0.3492  1.3357
  218MOL   H14230956   4.454   5.283   4.045  0.7864 -3.3388 -0.2420
  219MOL     C130957   1.576   3.191   6.969 -0.3475 -0.0453  0.3718
  219MOL     C230958   1.718   3.162   6.919 -0.2859 -0.1656 -0.2877
  219MOL     C330959   1.749   3.015   6.943  0.6725 -0.1174  0.1970
  219MOL     N430960   1.774   2.904   6.954 -0.0252  0.4516 -0.4582
  219MOL     H530961   1.538   3.280   6.919  2.4974  0.4284 -1.0804
  219MOL     H630962   1.575   3.216   7.075 -0.0144 -2.2211  0.9008
  219MOL     H730963   1.791   3.218   6.977 -1.3541 -2.5808  3.5342
  219MOL     H830964   1.502   3.116   6.943 -2.8306  2.8155 -1.1659
  219MOL     C930965   1.740   3.177   6.765 -0.5347 -0.5226  0.1209
  219MOL    C1030966   1.730   3.329   6.717 -0.3313  0.2540  0.6622
  219MOL    C1130967   1.845   3.405   6.767  0.0188  0.1871  0.4480
  219MOL    N1230968   1.934   3.466   6.806 -0.0664  0.0614  1.0360
  219MOL    H1330969   1.841   3.150   6.736 -0.9265 -1.6535 -0.1990
  219MOL    H1430970   1.669   3.111   6.716 -0.1364 -1.1206  0.3539
  219MOL    H1530971   1.639   3.379   6.749 -0.0352 -0.5127  2.7389
  219MOL    C1630972   1.743   3.337   6.566 -0.2104  0.3151  1.0878
  219MOL    C1730973   1.619   3.332   6.473  0.2760  0.1346 -0.6226
  219MOL    C1830974   1.532   3.446   6.478 -0.1989 -0.1104  0.3927
  219MOL    N1930975   1.462   3.536   6.482  0.1719  0.1190  0.1955
  219MOL    H2030976   1.778   3.440   6.555 -1.7255  0.6203 -1.4534
  219MOL    H2130977   1.831   3.282   6.534 -0.3094  0.1969  1.0184
  219MOL    H2230978   1.556   3.247   6.502  1.3906 -1.2126 -2.0733
  219MOL    C2330979   1.646   3.317   6.325  1.1350  0.0785 -0.2742
  219MOL    C2430980   1.700   3.187   6.275  0.3202 -0.2328  0.2189
  219MOL    C2530981   1.587   3.094   6.280  0.5479 -0.4386 -0.0857
  219MOL    N2630982   1.495   3.031   6.284  0.5582  0.5876  0.3385
  219MOL    H2730983   1.561   3.352   6.267  0.5873  1.7315  1.4712
  219MOL    H2830984   1.706   3.405   6.298  0.2885  0.2318 -1.7108
  219MOL    H2930985   1.755   3.145   6.359  1.3210 -1.9769 -1.2818
  219MOL    C3030986   1.786   3.187   6.146  0.5234 -0.6582 -0.7617
  219MOL    C3130987   1.699   3.155   6.023 -0.3834 -0.5502  0.6557
  219MOL    C3230988   1.585   3.247   6.015  0.0970  0.5778  0.3249
  219MOL    N3330989   1.491   3.309   6.006 -0.7750  0.4773  0.5463
  219MOL    H3430990   1.853   3.273   6.141  0.4272 -0.5076  0.6090
  219MOL    H3530991   1.850   3.101   6.164 -0.8238 -1.1091  2.0690
  219MOL    H3630992   1.651   3.059   6.042 -0.3335 -1.1866 -2.2946
  219MOL    C3730993   1.779   3.154   5.881  0.1111 -0.0912  0.0193
  219MOL    C3830994   1.695   3.095   5.769  0.0022  0.1932  0.2830
  219MOL    C3930995   1.743   3.139   5.638  0.2574  0.0282  0.0067
  219MOL    N4030996   1.777   3.172   5.531 -0.2036 -0.2672 -0.1086
  219MOL    H4130997   1.803   3.260   5.875 -2.5227  0.7703  3.1498
  219MOL    H4230998   1.873   3.100   5.890  0.5694  0.9020  1.2762
  219MOL    H4330999   1.602   3.150   5.782  0.1914  0.3283  1.1304
  219MOL    C4431000   1.673   2.945   5.782  0.4152  1.3545 -0.0117
  219MOL    C4531001   1.573   2.881   5.686  0.8019 -0.1759  0.2309
  219MOL    C4631002   1.621   2.855   5.550 -0.0578 -0.2750  0.1961
  219MOL    N4731003   1.659   2.827   5.443  0.0196  0.2559  0.2435
  219MOL    H4831004   1.766   2.889   5.794 -0.2671  0.4443  1.2063
  219MOL    H4931005   1.625   2.925   5.878 -1.3666 -0.5461 -1.2546
  219MOL    H5031006   1.492   2.950   5.664  1.0174  0.2158  0.6784
  219MOL    C5131007   1.490   2.763   5.740  0.0698  0.6470 -0.7687
  219MOL    C5231008   1.570   2.629   5.737  1.0290 -0.0675 -0.1370
  219MOL    C5331009   1.709   2.645   5.778 -0.0847  0.0603  0.0355
  219MOL    N5431010   1.818   2.656   5.814 -0.1852  0.5214 -0.4014
  219MOL    H5531011   1.465   2.781   5.844 -1.3290  0.0373 -0.9901
  219MOL    H5631012   1.394   2.748   5.692 -0.4512  0.9190  0.1865
  219MOL    H5731013   1.576   2.616   5.629  3.1490 -1.2684  0.1076
  219MOL    C5831014   1.495   2.516   5.808  0.0016 -0.0306 -0.1792
  219MOL    C5931015   1.453   2.542   5.959 -0.2512 -0.1191 -0.2765
  219MOL    C6031016   1.541   2.622   6.042 -0.1845 -0.4554  0.6082
  219MOL    N6131017   1.604   2.697   6.103 -0.0649 -0.3596 -0.1629
  219MOL    H6231018   1.406   2.502   5.746  0.5130 -2.0234 -0.5025
  219MOL    H6331019   1.552   2.423   5.809 -0.0682 -0.0748  0.5198
  219MOL    H6431020   1.463   2.441   5.999  1.7821 -0.2275 -0.9812
  219MOL    C6531021   1.302   2.581   5.963 -0.4070  0.4159  0.1996
  219MOL    C6631022   1.256   2.652   6.093 -0.0452 -0.1902  1.2395
  219MOL    C6731023   1.120   2.682   6.056  1.1158 -0.3458 -0.0258
  219MOL    N6831024   1.013   2.709   6.018  0.1125 -0.2490  0.6156
  219MOL    H6931025   1.297   2.658   5.886  1.1905 -0.7103 -1.0708
  219MOL    H7031026   1.233   2.504   5.928 -1.6272  0.7307  1.8847
  219MOL    H7131027   1.310   2.745   6.109  2.0285 -1.3641  1.1841
  219MOL    C7231028   1.267   2.566   6.221 -0.4792 -0.1675 -0.1098
  219MOL    C7331029   1.247   2.634   6.360 -0.2436  0.1267 -1.3327
  219MOL    C7431030   1.219   2.529   6.456 -0.2745  0.4595  0.2961
  219MOL    N7531031   1.202   2.442   6.535 -0.1359  0.1927 -0.0150
  219MOL    H7631032   1.182   2.498   6.214 -0.1340 -0.4382 -1.7353
  219MOL    H7731033   1.356   2.503   6.223 -1.3294 -1.4111 -0.8162
  219MOL    H7831034   1.157   2.694   6.373 -0.7942 -1.3995  2.5146
  219MOL    C7931035   1.364   2.728   6.402  0.1362  0.2669  0.3481
  219MOL    C8031036   1.371   2.784   6.550 -0.1190  0.5160  0.3924
  219MOL    C8131037   1.502   2.840   6.589  0.0954 -0.6612  0.2873
  219MOL    N8231038   1.606   2.875   6.621 -0.7341 -0.4623  0.3734
  219MOL    H8331039   1.453   2.666   6.392 -1.0467 -1.0948 -2.2776
  219MOL    H8431040   1.371   2.812   6.334  1.2432  0.0067  0.1301
  219MOL    H8531041   1.337   2.700   6.610 -0.5943  0.7770  0.4964
  219MOL    C8631042   1.255   2.888   6.575 -0.8626 -0.3921  0.3843
  219MOL    C8731043   1.248   2.959   6.715 -0.6686  0.2208 -0.0527
  219MOL    C8831044   1.305   3.094   6.691  0.0652 -0.1696  0.1386
  219MOL    N8931045   1.354   3.198   6.668  0.4901 -0.3850  0.5018
  219MOL    H9031046   1.254   2.958   6.492  1.8930 -1.6431 -0.7611
  219MOL    H9131047   1.164   2.833   6.554  0.4937 -2.7346  0.4336
  219MOL    H9231048   1.302   2.906   6.794  0.3827  0.7538 -0.3990
  219MOL    C9331049   1.102   2.968   6.769 -0.2674  1.0583  0.2760
  219MOL    C9431050   1.090   2.979   6.918  0.5937 -0.0394 -0.3752
  219MOL    C9531051   1.179   3.083   6.966 -0.0275 -0.2659 -0.2499
  219MOL    N9631052   1.253   3.167   7.001 -0.2758  0.0564 -0.0390
  219MOL    H9731053   1.049   3.042   6.709  0.0819 -1.6218 -3.5893
  219MOL    H9831054   1.060   2.871   6.739  0.7456  0.4166  0.9118
  219MOL    H9931055   1.134   2.891   6.964 -0.8980 -1.0234 -0.8042
  219MOL   C10031056   0.943   3.009   6.953 -0.4020 -0.1757 -0.0628
  219MOL   C10131057   0.850   2.890   6.944 -0.4735 -0.0007 -0.3145
  219MOL   C10231058   0.898   2.770   7.005 -0.7236 -0.3209 -0.3233
  219MOL   N10331059   0.943   2.677   7.051  0.8704  0.5722 -0.1698
  219MOL   H10431060   0.951   3.060   7.049  2.1754 -1.7487  0.5894
  219MOL   H10531061   0.914   3.096   6.894  3.5943 -0.4372 -2.6215
  219MOL   H10631062   0.840   2.860   6.840 -3.2107  1.1551 -0.4218
  219MOL   C10731063   0.712   2.928   7.000 -0.0295 -0.1239 -0.0248
  219MOL   C10831064   0.603   2.820   6.983 -0.8617  1.1293 -0.0541
  219MOL   C10931065   0.474   2.873   7.030  0.5687 -0.5035  0.4470
  219MOL   N11031066   0.377   2.918   7.073  0.0001  0.0738 -0.1764
  219MOL   H11131067   0.710   2.970   7.101  0.6975 -2.4649  1.0095
  219MOL   H11231068   0.672   3.009   6.939 -0.6703  0.2827  0.9207
  219MOL   H11331069   0.613   2.736   7.051 -0.9742  0.6196 -0.6633
  219MOL   C11431070   0.589   2.773   6.838 -0.1052  0.1143  0.1083
  219MOL   C11531071   0.467   2.677   6.812 -0.0778  0.2614  0.6106
  219MOL   C11631072   0.451   2.678   6.668 -0.3017  0.2074  0.0469
  219MOL   N11731073   0.447   2.684   6.553  0.1012 -0.0175  0.1281
  219MOL   H11831074   0.566   2.856   6.772 -1.9575 -0.5116 -0.0498
  219MOL   H11931075   0.680   2.740   6.787 -1.1100 -1.7988 -0.4971
  219MOL   H12031076   0.369   2.711   6.847  0.3376  2.3413 -0.1462
  219MOL   C12131077   0.481   2.536   6.869  0.1508  0.4115  0.3462
  219MOL   C12231078   0.354   2.457   6.870 -0.6018 -0.1323 -0.3751
  219MOL   C12331079   0.277   2.440   6.743  0.4236 -0.6958 -0.4512
  219MOL   N12431080   0.221   2.426   6.644  0.7294  0.1708 -0.4123
  219MOL   H12531081   0.554   2.480   6.812 -0.4975  0.2466 -0.3288
  219MOL   H12631082   0.520   2.548   6.970 -0.4448 -0.4009  0.6714
  219MOL   H12731083   0.282   2.494   6.944 -1.2105 -1.0845 -0.4743
  219MOL   C12831084   0.363   2.313   6.924  0.7553 -0.3818  0.6294
  219MOL   C12931085   0.383   2.279   7.074 -0.3525  0.5549 -0.4097
  219MOL   C13031086   0.266   2.310   7.159 -0.2483  0.2915  0.0879
  219MOL   N13131087   0.170   2.328   7.226 -0.0449  0.2173 -0.4572
  219MOL   H13231088   0.271   2.259   6.899 -0.1595  0.8215  1.3305
  219MOL   H13331089   0.434   2.265   6.857 -0.4493  1.2451 -1.9226
  219MOL   H13431090   0.470   2.340   7.100 -1.8557  2.3215  0.5238
  219MOL   C13531091   0.419   2.127   7.079  0.0544 -0.0208 -0.2641
  219MOL   C13631092   0.483   2.089   7.208  0.4353  0.2153  1.3626
  219MOL   C13731093   0.610   2.160   7.233 -1.1068 -0.7467  0.5091
  219MOL   N13831094   0.706   2.221   7.252  0.4549  0.9594 -0.9919
  219MOL   H13931095   0.330   2.070   7.052  0.1167  0.6650 -1.9807
  219MOL   H14031096   0.500   2.107   7.008  0.0390 -0.0432 -0.2750
  219MOL   H14131097   0.506   1.982   7.200  1.3067  0.5370 -1.0214
  219MOL   H14231098   0.429   2.123   7.296 -1.6646  0.9519 -0.1863
  220MOL     C131099   1.046   1.340   2.423  0.5910 -0.0507  0.2317
  220MOL     C231100   1.171   1.261   2.474  0.3236 -0.2165  0.7500
  220MOL     C331101   1.203   1.150   2.379  0.1515 -0.2194  0.0087
  220MOL     N431102   1.223   1.064   2.300 -0.4086 -0.3798  0.6497
  220MOL     H531103   0.958   1.280   2.445  1.0325 -1.5044 -1.7931
  220MOL     H631104   1.052   1.357   2.316  0.2011  0.4339  0.2846
  220MOL     H731105   1.163   1.208   2.569 -0.5538 -0.7753  0.3686
  220MOL     H831106   1.034   1.437   2.471  0.4261  0.5357 -0.9895
  220MOL     C931107   1.293   1.359   2.505 -0.3343  0.3103  0.1995
  220MOL    C1031108   1.372   1.419   2.397 -0.2387  0.4503  0.0619
  220MOL    C1131109   1.290   1.479   2.291  0.3080 -1.2467  0.7603
  220MOL    N1231110   1.227   1.530   2.213 -0.3397  0.0373 -0.1991
  220MOL    H1331111   1.257   1.446   2.560 -3.4544  0.6319 -2.2163
  220MOL    H1431112   1.354   1.304   2.578  1.8051  0.7814 -1.2040
  220MOL    H1531113   1.427   1.340   2.346  1.0909  1.5549 -0.2501
  220MOL    C1631114   1.473   1.518   2.447 -0.6246 -0.5230 -0.2581
  220MOL    C1731115   1.603   1.554   2.362  0.0295  0.9553 -0.2310
  220MOL    C1831116   1.574   1.573   2.215  0.3990  0.0414  0.2473
  220MOL    N1931117   1.551   1.584   2.102 -0.5827 -1.0755 -0.5397
  220MOL    H2031118   1.409   1.606   2.454 -0.1004 -0.1661  0.1108
  220MOL    H2131119   1.490   1.505   2.554  0.5020 -1.7711 -0.5676
  220MOL    H2231120   1.661   1.464   2.382 -1.5376 -0.4946 -1.9929
  220MOL    C2331121   1.682   1.681   2.411 -0.0577  0.0997  0.0325
  220MOL    C2431122   1.833   1.656   2.441  0.7148 -0.1748 -0.0979
  220MOL    C2531123   1.857   1.562   2.547 -0.1124 -0.6555 -0.3195
  220MOL    N2631124   1.883   1.486   2.625  0.2709  0.2346  0.3251
  220MOL    H2731125   1.669   1.764   2.341  1.5810  0.1681 -0.2069
  220MOL    H2831126   1.629   1.712   2.502 -0.1308 -1.0485  0.3875
  220MOL    H2931127   1.868   1.749   2.485  1.4095 -1.2654  1.7374
  220MOL    C3031128   1.936   1.648   2.319 -0.3035  0.7890 -0.1197
  220MOL    C3131129   2.090   1.642   2.354  0.7992  0.1653 -0.9041
  220MOL    C3231130   2.133   1.514   2.411  0.5985  0.1098 -0.3170
  220MOL    N3331131   2.169   1.413   2.457  0.0585  0.0632  0.0972
  220MOL    H3431132   1.914   1.561   2.257  1.0397  1.2064 -1.1948
  220MOL    H3531133   1.899   1.723   2.249 -3.6205  0.0920  0.7763
  220MOL    H3631134   2.096   1.716   2.433  0.8371  0.6616 -1.3688
  220MOL    C3731135   2.180   1.671   2.239 -0.4302 -0.1633  0.7427
  220MOL    C3831136   2.150   1.593   2.107  0.0945 -0.2721  0.1046
  220MOL    C3931137   2.030   1.644   2.038 -0.2475  0.0347 -0.4616
  220MOL    N4031138   1.935   1.686   1.988 -0.7331  0.1696 -0.3911
  220MOL    H4131139   2.165   1.778   2.225  1.5195  0.0500  0.0414
  220MOL    H4231140   2.281   1.657   2.279  0.5523 -0.6098 -1.8205
  220MOL    H4331141   2.136   1.489   2.137  0.6803 -0.2237  0.5568
  220MOL    C4431142   2.267   1.596   2.008 -0.0139  0.4299  0.1532
  220MOL    C4531143   2.225   1.532   1.869 -0.1492  1.0780 -0.2189
  220MOL    C4631144   2.176   1.627   1.762 -0.5765  0.4719  0.1723
  220MOL    N4731145   2.143   1.694   1.675 -0.1944  0.2363 -0.2265
  220MOL    H4831146   2.304   1.697   1.993 -2.7362  1.1931 -1.8327
  220MOL    H4931147   2.350   1.540   2.052  0.0893  0.2936 -0.2104
  220MOL    H5031148   2.146   1.461   1.889  0.9271  0.1643  0.8595
  220MOL    C5131149   2.351   1.458   1.812  0.1490 -0.2670 -0.8120
  220MOL    C5231150   2.334   1.381   1.678 -0.1095  0.0554  0.5146
  220MOL    C5331151   2.213   1.295   1.675  0.0115  0.2474 -0.4356
  220MOL    N5431152   2.116   1.232   1.675 -0.3232  0.4650 -0.1023
  220MOL    H5531153   2.428   1.535   1.813  1.6999 -1.7618 -1.7109
  220MOL    H5631154   2.375   1.377   1.881 -0.3470 -0.5499 -0.9694
  220MOL    H5731155   2.417   1.311   1.673  1.0774  1.3733  1.4188
  220MOL    C5831156   2.360   1.457   1.543 -0.7394  0.0225  0.2084
  220MOL    C5931157   2.502   1.516   1.524  0.7195 -0.3717 -0.0340
  220MOL    C6031158   2.600   1.411   1.558  0.0159  0.1102  0.2684
  220MOL    N6131159   2.681   1.328   1.581  0.2954  0.5939 -0.2396
  220MOL    H6231160   2.328   1.383   1.470 -1.4043 -0.8932  1.4308
  220MOL    H6331161   2.292   1.542   1.533 -1.2262 -0.1227  2.1540
  220MOL    H6431162   2.509   1.605   1.587 -1.6264  0.9535 -1.5974
  220MOL    C6531163   2.513   1.573   1.377  0.4481 -0.9144 -0.0168
  220MOL    C6631164   2.643   1.651   1.326 -0.0718  0.2503  0.8042
  220MOL    C6731165   2.629   1.709   1.188 -0.1369  0.7520 -0.0668
  220MOL    N6831166   2.614   1.749   1.083  0.4177  0.2244 -0.2906
  220MOL    H6931167   2.506   1.494   1.303  2.9038  0.5908 -1.9193
  220MOL    H7031168   2.422   1.630   1.358  0.6170  0.1984  2.2161
  220MOL    H7131169   2.731   1.587   1.318  0.9144  1.5850  0.9496
  220MOL    C7231170   2.678   1.768   1.417  0.0013 -0.1234  0.2692
  220MOL    C7331171   2.794   1.865   1.373  0.5798  0.1421  0.4771
  220MOL    C7431172   2.789   1.974   1.466 -0.3383 -0.2739 -0.6242
  220MOL    N7531173   2.783   2.069   1.535 -0.0713 -0.7566 -0.2259
  220MOL    H7631174   2.592   1.833   1.432  0.2809  0.1571  0.6786
  220MOL    H7731175   2.709   1.735   1.517 -1.0658  0.3603  0.7661
  220MOL    H7831176   2.767   1.900   1.273  0.0515 -0.3149  0.4569
  220MOL    C7931177   2.927   1.783   1.353  0.2388  0.0677 -0.3234
  220MOL    C8031178   3.056   1.862   1.363  0.6282  0.8317  0.3138
  220MOL    C8131179   3.084   1.913   1.499 -0.5924  0.1794 -0.1104
  220MOL    N8231180   3.102   1.949   1.606 -0.3450  0.0406 -0.3336
  220MOL    H8331181   2.936   1.717   1.439  1.6520 -0.6077 -0.9761
  220MOL    H8431182   2.917   1.733   1.256 -0.1457 -0.2252 -0.1318
  220MOL    H8531183   3.045   1.954   1.306  1.9554  1.9702  1.8381
  220MOL    C8631184   3.166   1.781   1.294 -0.4965 -0.1993 -0.2936
  220MOL    C8731185   3.313   1.849   1.286  0.0785  0.4622 -0.2278
  220MOL    C8831186   3.395   1.771   1.192  0.7344 -0.4022 -0.3337
  220MOL    N8931187   3.461   1.712   1.118  0.4910 -0.0122 -0.0265
  220MOL    H9031188   3.180   1.685   1.344  0.0698  0.3741  0.6605
  220MOL    H9131189   3.131   1.771   1.192 -1.7064  0.4652  0.0479
  220MOL    H9231190   3.352   1.852   1.388 -0.6284  1.4713  0.0215
  220MOL    C9331191   3.300   2.001   1.250  0.2668 -0.7686 -0.7084
  220MOL    C9431192   3.429   2.070   1.209  0.4351  0.4666 -0.4510
  220MOL    C9531193   3.424   2.111   1.069  0.2692 -0.7207  0.5131
  220MOL    N9631194   3.419   2.147   0.957  1.0443 -0.3040  0.5086
  220MOL    H9731195   3.218   2.023   1.181 -0.9455 -0.4961  0.7776
  220MOL    H9831196   3.250   2.044   1.337 -0.9066  1.3808 -2.4101
  220MOL    H9931197   3.520   2.010   1.216  0.1970  0.1031 -0.4282
  220MOL   C10031198   3.457   2.199   1.292  0.3816 -0.0506  0.1143
  220MOL   C10131199   3.490   2.179   1.439  0.5262 -0.2162 -0.3902
  220MOL   C10231200   3.626   2.122   1.446 -0.4994 -0.2862 -0.9534
  220MOL   N10331201   3.732   2.076   1.452 -0.4743  0.3630 -0.3954
  220MOL   H10431202   3.537   2.254   1.243 -1.2854  0.8520 -1.6964
  220MOL   H10531203   3.382   2.278   1.281  0.5559  0.3329  1.6306
  220MOL   H10631204   3.421   2.102   1.474  1.2596  0.7023  3.2523
  220MOL   C10731205   3.454   2.299   1.539 -0.6869  0.2619  0.7255
  220MOL   C10831206   3.548   2.421   1.531  0.2186 -0.7589  0.0563
  220MOL   C10931207   3.523   2.472   1.395 -0.9214  0.2817  0.4588
  220MOL   N11031208   3.506   2.517   1.291 -0.4219  0.5959  0.1586
  220MOL   H11131209   3.353   2.322   1.505 -0.9818  1.5751  2.4381
  220MOL   H11231210   3.450   2.258   1.640 -2.5869 -1.2638  0.0686
  220MOL   H11331211   3.651   2.385   1.533  0.8026  0.8500 -0.4513
  220MOL   C11431212   3.520   2.518   1.641  0.0269  0.2729  0.3213
  220MOL   C11531213   3.635   2.608   1.683 -0.3618  0.1207  0.9774
  220MOL   C11631214   3.715   2.656   1.566 -1.3459  0.2075 -0.1772
  220MOL   N11731215   3.773   2.701   1.479 -0.8524  0.0031  0.0873
  220MOL   H11831216   3.433   2.584   1.631 -0.1790 -0.0138  0.2018
  220MOL   H11931217   3.493   2.472   1.736  0.4592 -0.8489 -0.0915
  220MOL   H12031218   3.703   2.549   1.745  0.1347  0.2695  0.5757
  220MOL   C12131219   3.581   2.725   1.772 -0.1614  0.3781 -0.3997
  220MOL   C12231220   3.544   2.855   1.697  0.6027 -0.4943  0.4351
  220MOL   C12331221   3.458   2.839   1.578 -0.1317 -0.4562  0.4358
  220MOL   N12431222   3.391   2.827   1.487 -0.1054 -0.1719  0.3501
  220MOL   H12531223   3.494   2.683   1.822  2.1520 -0.3617  3.2245
  220MOL   H12631224   3.649   2.745   1.854 -1.9969 -4.0755  2.4045
  220MOL   H12731225   3.633   2.886   1.643  0.8584 -1.0166  0.5498
  220MOL   C12831226   3.489   2.959   1.800 -0.3470  0.3627 -0.2151
  220MOL   C12931227   3.342   2.940   1.844 -0.3336 -0.0863 -0.4987
  220MOL   C13031228   3.324   2.958   1.990 -0.0687  0.0206  0.8879
  220MOL   N13131229   3.302   2.974   2.100  0.3055 -0.1271  0.7792
  220MOL   H13231230   3.549   2.955   1.892 -0.0995 -0.5472 -0.4123
  220MOL   H13331231   3.510   3.059   1.762 -0.2622  0.6178  0.4917
  220MOL   H13431232   3.302   2.840   1.833  1.3736 -0.9429  0.8543
  220MOL   C13531233   3.247   3.024   1.757 -0.4382  0.6703 -0.1270
  220MOL   C13631234   3.102   3.022   1.811 -0.1577 -0.1999  0.2242
  220MOL   C13731235   3.026   3.123   1.740  0.6384 -0.7609  0.4891
  220MOL   N13831236   2.967   3.204   1.684 -0.4912 -0.0322 -0.6698
  220MOL   H13931237   3.277   3.128   1.768  1.3537  0.1077  0.5358
  220MOL   H14031238   3.254   2.991   1.654  2.7231 -0.8017  0.4732
  220MOL   H14131239   3.102   3.049   1.916 -2.1127 -2.7275  0.9207
  220MOL   H14231240   3.051   2.929   1.784 -0.7897  0.1454  0.2433
  221MOL     C131241   0.827   6.084   0.290 -0.2027 -0.4496  0.3197
  221MOL     C231242   0.692   6.011   0.249  0.0185  0.3650  0.2668
  221MOL     C331243   0.602   6.104   0.188  0.8880  0.0309 -0.1641
  221MOL     N431244   0.530   6.184   0.145  0.7778 -0.0767  0.5745
  221MOL     H531245   0.815   6.126   0.389 -0.4098 -0.7793  0.4369
  221MOL     H631246   0.841   6.166   0.219  0.5240 -1.2321 -0.4545
  221MOL     H731247   0.642   5.976   0.339 -1.1069  0.6423 -0.2501
  221MOL     H831248   0.921   6.031   0.297  0.0692 -0.0727 -0.3726
  221MOL     C931249   0.734   5.890   0.172 -0.2394  0.1917  0.0780
  221MOL    C1031250   0.620   5.813   0.096  0.7426  0.3166 -0.0494
  221MOL    C1131251   0.685   5.717   0.001 -0.0197 -0.0872  0.6188
  221MOL    N1231252   0.741   5.645   8.243 -0.1003 -0.7441  0.2714
  221MOL    H1331253   0.817   5.919   0.108 -0.8457  1.0146 -0.3493
  221MOL    H1431254   0.782   5.821   0.241  0.1405  0.0839 -0.2908
  221MOL    H1531255   0.588   5.891   0.026 -1.1025  0.1570  0.6009
  221MOL    C1631256   0.506   5.754   0.181  0.1364  0.5645  0.2607
  221MOL    C1731257   0.402   5.671   0.113  0.9368  0.0192 -0.0397
  221MOL    C1831258   0.454   5.547   0.049 -0.3105 -0.0006  0.4201
  221MOL    N1931259   0.489   5.446   0.001  0.3284  0.9308  0.5891
  221MOL    H2031260   0.554   5.699   0.262  0.2776  1.2720  0.6612
  221MOL    H2131261   0.459   5.834   0.239 -1.6147 -1.6033  1.9472
  221MOL    H2231262   0.376   5.733   0.027 -0.2927 -1.2146 -0.5819
  221MOL    C2331263   0.279   5.655   0.201 -0.4468  0.0520 -0.3020
  221MOL    C2431264   0.295   5.602   0.344 -0.0789 -0.2426  0.6272
  221MOL    C2531265   0.179   5.616   0.430  0.7735 -0.4106  0.8119
  221MOL    N2631266   0.077   5.626   0.489 -0.0679 -0.4165  0.1928
  221MOL    H2731267   0.243   5.758   0.208 -0.7971 -0.0986  0.2026
  221MOL    H2831268   0.204   5.594   0.152 -0.6653 -0.8021  1.0520
  221MOL    H2931269   0.374   5.658   0.394 -0.1874 -0.5093  1.1032
  221MOL    C3031270   0.334   5.461   0.355  0.6302 -0.5289 -0.1009
  221MOL    C3131271   0.227   5.352   0.363 -0.4127 -0.2381 -0.0043
  221MOL    C3231272   0.146   5.346   0.238  0.0514 -0.4207  0.3331
  221MOL    N3331273   0.085   5.347   0.140  0.6290  0.6170  0.3259
  221MOL    H3431274   0.404   5.437   0.275 -0.6033  0.0264 -1.3519
  221MOL    H3531275   0.387   5.451   0.450  0.6552  1.5061  0.1091
  221MOL    H3631276   0.158   5.365   0.446  1.2742  2.1780  1.0653
  221MOL    C3731277   0.302   5.214   0.393  0.5062  0.1968  0.2698
  221MOL    C3831278   0.213   5.082   0.387 -0.1382  0.6296 -0.5625
  221MOL    C3931279   0.170   5.045   0.256  0.0450  0.1846  0.1871
  221MOL    N4031280   0.133   5.012   0.150 -0.0645 -0.0455  0.4852
  221MOL    H4131281   0.387   5.207   0.325  0.1865  3.6677 -0.6231
  221MOL    H4231282   0.332   5.217   0.498  0.4235 -0.5649  0.3139
  221MOL    H4331283   0.116   5.105   0.432  0.7581  0.7090  1.3492
  221MOL    C4431284   0.267   4.953   0.458  0.0515 -0.3446  0.6838
  221MOL    C4531285   0.239   4.952   0.609 -0.8627 -0.4960  0.3410
  221MOL    C4631286   0.093   4.942   0.634  0.0069 -0.6692  0.5487
  221MOL    N4731287   8.295   4.935   0.664 -0.2575 -0.2003  0.2438
  221MOL    H4831288   0.219   4.865   0.415  0.1753  1.1306 -2.6533
  221MOL    H4931289   0.374   4.952   0.438 -0.0686 -1.6446  0.0402
  221MOL    H5031290   0.262   5.050   0.651  1.8466 -0.3197 -1.4752
  221MOL    C5131291   0.318   4.835   0.675 -0.6088  0.6434  0.5341
  221MOL    C5231292   0.300   4.817   0.826 -0.2284  0.0554 -0.3927
  221MOL    C5331293   0.321   4.941   0.906 -0.2692  0.3055 -0.6926
  221MOL    N5431294   0.335   5.042   0.962 -0.3933  0.2967  0.4760
  221MOL    H5531295   0.278   4.747   0.625  1.6459 -1.0901  1.6809
  221MOL    H5631296   0.426   4.837   0.658 -0.4189  1.7010  1.7698
  221MOL    H5731297   0.385   4.754   0.854 -0.8374 -0.2509  0.7919
  221MOL    C5831298   0.169   4.751   0.880  0.2724  0.0897  0.2001
  221MOL    C5931299   0.140   4.604   0.840  0.0301 -0.1400 -0.0319
  221MOL    C6031300   0.261   4.521   0.822  0.0493 -0.5916 -0.6163
  221MOL    N6131301   0.358   4.461   0.804  0.5108  1.5709 -0.0417
  221MOL    H6231302   0.182   4.754   0.988 -0.7675 -1.8184  0.4061
  221MOL    H6331303   0.073   4.800   0.867  1.2304  1.9805  0.1429
  221MOL    H6431304   0.102   4.594   0.738 -1.1583  0.5750  0.3340
  221MOL    C6531305   0.033   4.544   0.939  0.5821  0.7013  0.1108
  221MOL    C6631306   8.301   4.396   0.922 -0.4910  0.6368  0.3644
  221MOL    C6731307   0.096   4.306   0.961 -0.2493 -0.6142  1.1714
  221MOL    N6831308   0.184   4.236   0.983  0.4769 -0.1167 -0.2264
  221MOL    H6931309   0.079   4.551   1.037  0.0352  0.4948  0.3831
  221MOL    H7031310   8.260   4.612   0.947  0.1600  0.2301 -0.3873
  221MOL    H7131311   8.293   4.384   0.814  1.7631 -0.0240  0.2405
  221MOL    C7231312   8.159   4.354   0.976 -0.1391  0.1790 -0.3303
  221MOL    C7331313   8.137   4.209   1.017  0.2662 -0.6450  0.5649
  221MOL    C7431314   8.015   4.200   1.096 -0.2315 -1.4544  0.5958
  221MOL    N7531315   7.913   4.191   1.158 -0.0512 -0.1690 -0.7834
  221MOL    H7631316   8.141   4.411   1.067  2.2458 -1.4110  1.2063
  221MOL    H7731317   8.078   4.381   0.908 -1.8267  0.0617  1.5869
  221MOL    H7831318   8.226   4.186   1.075  1.4118  0.0590 -0.8812
  221MOL    C7931319   8.140   4.105   0.899 -0.1585 -0.5512 -0.1546
  221MOL    C8031320   8.211   3.973   0.932  0.1393  0.4588  0.3344
  221MOL    C8131321   8.184   3.923   1.071 -0.1281 -0.5194 -0.1928
  221MOL    N8231322   8.168   3.882   1.178  0.2400  0.8958  0.2528
  221MOL    H8331323   8.033   4.083   0.897 -0.5020  1.0636 -0.2113
  221MOL    H8431324   8.168   4.151   0.804  0.6489  0.1569  0.4152
  221MOL    H8531325   0.007   3.984   0.931  0.0482  1.3552 -1.0521
  221MOL    C8631326   8.193   3.863   0.826 -0.5209  0.1534 -0.1379
  221MOL    C8731327   8.247   3.719   0.867  0.2512  0.3265  0.0552
  221MOL    C8831328   8.136   3.638   0.915 -0.3526 -1.0100  0.0781
  221MOL    N8931329   8.051   3.577   0.954 -0.2905  0.1256  0.0232
  221MOL    H9031330   8.087   3.845   0.814 -0.2840 -2.2249  1.0484
  221MOL    H9131331   8.232   3.896   0.729  0.8609 -0.0747  0.3186
  221MOL    H9231332   0.022   3.726   0.932  1.7226 -1.1907 -1.6945
  221MOL    C9331333   8.302   3.660   0.739 -0.7892  0.8926 -0.5518
  221MOL    C9431334   0.046   3.515   0.746  0.9097  0.7561 -0.5945
  221MOL    C9531335   0.119   3.481   0.869  0.0559 -0.4724 -0.1928
  221MOL    N9631336   0.182   3.452   0.963 -0.3844  0.0446 -0.2330
  221MOL    H9731337   8.231   3.664   0.657  0.0430 -0.0283 -1.3269
  221MOL    H9831338   0.074   3.727   0.723  0.3652  0.4198  3.0350
  221MOL    H9931339   0.124   3.509   0.669 -0.3366  0.7492 -1.8743
  221MOL   C10031340   8.254   3.391   0.714 -0.1502  0.7383 -0.0424
  221MOL   C10131341   8.259   3.333   0.570  0.8554  0.0661  0.2572
  221MOL   C10231342   8.187   3.204   0.555 -0.0305 -0.0510 -0.3946
  221MOL   N10331343   8.134   3.101   0.542 -0.0302 -0.6010  0.6825
  221MOL   H10431344   8.285   3.307   0.776  0.9977  0.1151 -1.4352
  221MOL   H10531345   8.147   3.410   0.726 -0.1380 -0.0953  1.5353
  221MOL   H10631346   0.048   3.296   0.553  0.9275 -0.3230  1.4631
  221MOL   C10731347   8.221   3.426   0.460 -0.1718 -0.7027  0.1887
  221MOL   C10831348   0.017   3.522   0.411 -0.6740 -0.8857 -0.0262
  221MOL   C10931349   0.142   3.459   0.370  0.2256  0.1088 -0.3062
  221MOL   N11031350   0.245   3.412   0.344 -0.2964  0.2496 -0.0482
  221MOL   H11131351   8.197   3.369   0.370  1.1537 -2.3449  0.8281
  221MOL   H11231352   8.132   3.475   0.499  1.1117  0.5577  1.5793
  221MOL   H11331353   0.052   3.588   0.491 -0.7862 -0.3362 -0.4278
  221MOL   C11431354   8.278   3.599   0.287 -0.2716  0.8391 -0.8232
  221MOL   C11531355   0.032   3.732   0.262 -0.0452 -0.0227 -0.0077
  221MOL   C11631356   0.033   3.759   0.116  0.6477  0.1357  0.4062
  221MOL   N11731357   0.035   3.777   8.312 -0.4362  0.0928  0.4229
  221MOL   H11831358   8.292   3.539   0.197  0.8451  1.5144 -1.1082
  221MOL   H11931359   8.170   3.615   0.290 -0.8287 -2.4644 -1.8625
  221MOL   H12031360   0.137   3.709   0.281  0.9129  3.4781 -0.7376
  221MOL   C12131361   8.285   3.846   0.351  0.3492 -1.1100 -0.2353
  221MOL   C12231362   8.216   3.963   0.277 -0.3494 -0.5854  0.3791
  221MOL   C12331363   8.083   3.930   0.230  0.0228 -0.2917  0.7159
  221MOL   N12431364   7.982   3.900   0.185  0.2166  0.1527  0.5392
  221MOL   H12531365   8.221   3.814   0.434 -0.5017  0.7165 -0.1741
  221MOL   H12631366   0.054   3.900   0.400 -0.8561  1.4567 -0.9795
  221MOL   H12731367   8.275   3.972   0.185  0.8022  0.6241  1.2203
  221MOL   C12831368   8.229   4.101   0.353 -0.5054  0.3821 -0.9938
  221MOL   C12931369   8.159   4.225   0.290  0.7166  0.1922  0.0498
  221MOL   C13031370   8.017   4.221   0.321 -0.0452  0.1924  0.0717
  221MOL   N13131371   7.905   4.213   0.346  0.2155  0.4839 -0.1405
  221MOL   H13231372   8.198   4.089   0.457  0.7147 -0.0590 -0.6710
  221MOL   H13331373   0.020   4.119   0.381 -0.9227 -0.1768  1.0140
  221MOL   H13431374   8.163   4.213   0.181  1.6404 -1.5248  0.2443
  221MOL   C13531375   8.235   4.361   0.316  0.1700  0.0928  0.7493
  221MOL   C13631376   8.227   4.423   0.455  0.8342 -0.5909 -0.2365
  221MOL   C13731377   8.310   4.541   0.460 -0.5566  0.2699 -0.1267
  221MOL   N13831378   0.067   4.639   0.463  0.3152  0.2796 -0.1227
  221MOL   H13931379   0.023   4.331   0.287 -0.1142 -0.2543  0.1252
  221MOL   H14031380   8.205   4.436   0.243 -0.2066  2.0362  2.8422
  221MOL   H14131381   8.254   4.363   0.541  0.5020 -1.0074 -0.4182
  221MOL   H14231382   8.126   4.460   0.471  0.9170  0.3767 -1.8324
  222MOL     C131383   1.189   6.091   0.737  0.1163 -0.3075 -0.1979
  222MOL     C231384   1.111   6.220   0.770  0.4633  0.8361  0.5929
  222MOL     C331385   1.188   6.297   0.864 -0.3005  0.6375 -0.7766
  222MOL     N431386   1.248   6.364   0.936  0.1004 -0.7788  0.0866
  222MOL     H531387   1.143   6.033   0.657 -1.1823  1.7836 -1.0001
  222MOL     H631388   1.207   6.033   0.827  0.9245  0.0268 -0.1374
  222MOL     H731389   1.021   6.194   0.825  0.8113  1.5730  1.5137
  222MOL     H831390   1.286   6.118   0.697  0.3062 -1.8835 -0.8297
  222MOL     C931391   1.069   6.288   0.633  0.0628  0.5393  0.0576
  222MOL    C1031392   0.971   6.409   0.650 -0.4641 -0.5802 -0.1091
  222MOL    C1131393   1.047   6.538   0.704 -0.0487  0.2579 -0.7620
  222MOL    N1231394   1.095   6.638   0.741 -0.2770 -0.1150  0.0612
  222MOL    H1331395   1.151   6.311   0.565 -1.9071  1.7920 -1.9514
  222MOL    H1431396   1.010   6.210   0.586 -0.3988  0.7951  0.2075
  222MOL    H1531397   0.908   6.388   0.736  1.4685 -2.0805  0.9972
  222MOL    C1631398   0.878   6.429   0.518 -0.0166 -0.0786 -0.6355
  222MOL    C1731399   0.779   6.544   0.546 -0.8247 -0.2101 -0.4878
  222MOL    C1831400   0.818   6.683   0.513 -0.9739  0.0529 -0.8931
  222MOL    N1931401   0.847   6.797   0.491  0.4838  0.1895  0.2706
  222MOL    H2031402   0.932   6.457   0.428  1.0978  1.0210  0.3449
  222MOL    H2131403   0.829   6.338   0.485  0.0824 -0.3023 -0.1865
  222MOL    H2231404   0.766   6.537   0.654  0.4600 -0.4157 -0.3353
  222MOL    C2331405   0.633   6.534   0.499  0.3756 -0.1569  0.9946
  222MOL    C2431406   0.606   6.555   0.349 -0.3665  0.5406 -0.2813
  222MOL    C2531407   0.691   6.468   0.264 -0.5633  0.3618  0.8896
  222MOL    N2631408   0.754   6.407   0.194 -0.2074  0.0172 -0.9715
  222MOL    H2731409   0.605   6.432   0.527 -1.0351 -0.7935 -2.4556
  222MOL    H2831410   0.571   6.597   0.563 -0.3390  2.4942 -2.1746
  222MOL    H2931411   0.636   6.657   0.327 -0.9106  1.3222  2.4254
  222MOL    C3031412   0.456   6.546   0.316  0.9189  0.3059  0.2009
  222MOL    C3131413   0.396   6.400   0.355  0.0927  0.0049  0.2089
  222MOL    C3231414   0.360   6.385   0.498  0.5015  0.3269 -0.4557
  222MOL    N3331415   0.337   6.374   0.615  0.3099  0.1696 -0.4183
  222MOL    H3431416   0.400   6.627   0.362 -0.7795 -0.8246  0.1691
  222MOL    H3531417   0.437   6.566   0.210 -1.1113  0.4662  0.5734
  222MOL    H3631418   0.477   6.328   0.345 -1.3177 -1.7850  1.4043
  222MOL    C3731419   0.283   6.356   0.255 -0.4835  0.2274 -0.1497
  222MOL    C3831420   0.204   6.222   0.297  0.5176 -0.6945  0.1705
  222MOL    C3931421   0.292   6.117   0.351  0.5541  0.1192 -0.6287
  222MOL    N4031422   0.362   6.032   0.397 -0.5688 -0.1887 -0.0728
  222MOL    H4131423   0.209   6.436   0.243  2.1310  2.2303 -3.8599
  222MOL    H4231424   0.333   6.344   0.159  0.3993 -0.6675  0.4101
  222MOL    H4331425   0.180   6.180   0.200  3.8054 -0.6780 -0.6929
  222MOL    C4431426   0.069   6.235   0.385 -0.0623  0.3720  0.4150
  222MOL    C4531427   8.291   6.114   0.379  0.2422 -1.1300  0.3544
  222MOL    C4631428   8.210   6.103   0.497 -0.0844  0.2600  0.6602
  222MOL    N4731429   8.143   6.099   0.596  0.2670  0.3972  0.1753
  222MOL    H4831430   0.101   6.258   0.487  0.8786 -0.3741  0.2972
  222MOL    H4931431   0.012   6.322   0.353 -0.0794  0.0050 -0.5750
  222MOL    H5031432   0.045   6.028   0.376  1.9565  0.1496  0.7998
  222MOL    C5131433   8.202   6.115   0.256 -0.3923  0.0380 -0.0027
  222MOL    C5231434   8.061   6.183   0.271  0.0041 -0.4948  0.1179
  222MOL    C5331435   8.061   6.313   0.338 -0.6888 -0.1601 -0.2208
  222MOL    N5431436   8.061   6.419   0.394  0.1759  0.3144  0.2670
  222MOL    H5531437   8.259   6.163   0.176  1.0014 -2.7391 -0.7470
  222MOL    H5631438   8.192   6.014   0.215 -1.0756  0.2315 -0.3292
  222MOL    H5731439   8.006   6.119   0.340 -4.1777  1.1993 -1.4525
  222MOL    C5831440   7.984   6.199   0.139  0.6343  0.5811 -0.3465
  222MOL    C5931441   7.838   6.163   0.148 -0.2483 -0.5625 -0.6143
  222MOL    C6031442   7.773   6.240   0.258  0.2573  0.3966 -0.5350
  222MOL    N6131443   7.720   6.299   0.342 -0.1272  0.0212  0.4951
  222MOL    H6231444   8.007   6.299   0.101  1.6369 -0.0600 -1.4719
  222MOL    H6331445   8.028   6.131   0.066  0.3176 -1.9061  1.7250
  222MOL    H6431446   7.822   6.059   0.179 -0.7508 -0.0858  0.7842
  222MOL    C6531447   7.755   6.198   0.023 -0.4054 -0.2879  0.2051
  222MOL    C6631448   7.788   6.121   8.207 -0.6141  0.1731 -0.1536
  222MOL    C6731449   7.924   6.148   8.159  0.4123  0.2149  0.1826
  222MOL    N6831450   8.033   6.166   8.121  0.3341 -0.2524  0.2735
  222MOL    H6931451   7.648   6.185   0.039 -0.4739 -0.2574 -0.2094
  222MOL    H7031452   7.762   6.302   8.306 -1.0551 -0.8061 -1.8474
  222MOL    H7131453   7.715   6.159   8.136 -0.2710 -0.3418 -0.7826
  222MOL    C7231454   7.753   5.978   8.209 -0.2769 -0.1459  0.1763
  222MOL    C7331455   7.747   5.913   8.074 -0.2422  0.0544 -0.0682
  222MOL    C7431456   7.651   5.978   7.987 -0.0329  0.2785 -0.3732
  222MOL    N7531457   7.574   6.035   7.927  0.8698  0.2089 -0.7280
  222MOL    H7631458   7.825   5.931   8.276  0.0218  2.1145  1.4834
  222MOL    H7731459   7.657   5.960   8.257  0.5164 -2.3498  1.0296
  222MOL    H7831460   7.695   5.817   8.085 -1.2695  0.8438  2.1754
  222MOL    C7931461   7.882   5.890   8.008  0.1947 -0.3708 -0.0892
  222MOL    C8031462   7.880   5.802   7.882  0.1335 -0.1257  0.6973
  222MOL    C8131463   7.824   5.877   7.770 -0.0082  0.4998  0.1564
  222MOL    N8231464   7.773   5.942   7.689  0.9899  0.4941 -0.6679
  222MOL    H8331465   7.910   5.990   7.974 -4.4720  1.5031  1.3147
  222MOL    H8431466   7.958   5.854   8.078  0.8030  1.6113  0.2944
  222MOL    H8531467   7.811   5.719   7.899 -0.0726  0.0738  0.8323
  222MOL    C8631468   8.012   5.734   7.855  0.2168 -0.0726 -0.1565
  222MOL    C8731469   8.032   5.673   7.718  0.2664 -0.7357  0.0455
  222MOL    C8831470   8.184   5.646   7.705 -1.3389  1.3325  0.0818
  222MOL    N8931471   8.295   5.620   7.701  0.4108 -0.3139  1.1815
  222MOL    H9031472   8.086   5.814   7.859  0.5746 -0.3990 -0.1849
  222MOL    H9131473   8.047   5.662   7.929  1.7058  0.2935 -0.5023
  222MOL    H9231474   8.009   5.742   7.638  0.6085 -3.1060 -2.1558
  222MOL    C9331475   7.954   5.543   7.712  0.2494  0.1636  0.1789
  222MOL    C9431476   7.926   5.465   7.577  0.3299  0.2178 -1.1089
  222MOL    C9531477   8.055   5.453   7.516  0.1567 -0.4939  0.4172
  222MOL    N9631478   8.158   5.441   7.463  0.2390 -0.6253 -0.3853
  222MOL    H9731479   7.993   5.467   7.780  0.7127 -0.7458 -1.0707
  222MOL    H9831480   7.856   5.559   7.757 -0.9985  0.2284 -2.4719
  222MOL    H9931481   7.863   5.526   7.511  0.7205  0.7019 -1.0351
  222MOL   C10031482   7.855   5.329   7.585 -0.0867  0.3270 -0.0068
  222MOL   C10131483   7.834   5.251   7.451 -1.3801  0.1488 -0.5660
  222MOL   C10231484   7.765   5.119   7.471 -0.1856 -0.0028 -0.4895
  222MOL   N10331485   7.710   5.019   7.484 -0.2464 -0.3740  0.0675
  222MOL   H10431486   7.899   5.271   7.666 -1.2031 -1.4670 -0.6778
  222MOL   H10531487   7.756   5.355   7.623 -0.7731 -1.0948 -0.8238
  222MOL   H10631488   7.932   5.216   7.418 -1.2848 -1.0189  0.9078
  222MOL   C10731489   7.769   5.328   7.334  0.3197 -0.3136  0.0841
  222MOL   C10831490   7.624   5.372   7.360  0.3124  0.3765 -0.5580
  222MOL   C10931491   7.627   5.490   7.445  0.1394 -0.2507 -0.3950
  222MOL   N11031492   7.630   5.587   7.514  0.2021 -0.6099 -0.2057
  222MOL   H11131493   7.826   5.418   7.309 -0.5593  0.4497  0.8002
  222MOL   H11231494   7.775   5.274   7.239 -2.8514 -1.4920  0.5118
  222MOL   H11331495   7.582   5.296   7.426 -0.8505  1.3969 -0.1003
  222MOL   C11431496   7.530   5.408   7.244 -0.3121 -0.5184 -0.5527
  222MOL   C11531497   7.484   5.294   7.143 -0.3715  1.1824  0.3705
  222MOL   C11631498   7.448   5.168   7.203  0.3110  0.2185 -0.6562
  222MOL   N11731499   7.432   5.064   7.250 -0.1304 -0.2831  0.1980
  222MOL   H11831500   7.444   5.459   7.287  0.6404 -1.8556  3.0915
  222MOL   H11931501   7.572   5.493   7.189  2.8392 -0.9001  1.1816
  222MOL   H12031502   7.566   5.258   7.080 -1.3028  0.2406 -0.3126
  222MOL   C12131503   7.373   5.367   7.052 -0.2572 -0.0115 -1.0663
  222MOL   C12231504   7.335   5.283   6.926  0.1893  0.0653 -0.7241
  222MOL   C12331505   7.214   5.341   6.866  0.7041 -0.6680 -0.4123
  222MOL   N12431506   7.122   5.390   6.820 -0.0192 -0.4248  0.3396
  222MOL   H12531507   7.281   5.364   7.109 -0.3106  1.6602 -1.0339
  222MOL   H12631508   7.373   5.476   7.052  1.0464  0.0336  1.3379
  222MOL   H12731509   7.290   5.186   6.949  0.8696 -0.6620 -2.4210
  222MOL   C12831510   7.450   5.282   6.816  0.4213  0.8035  0.4071
  222MOL   C12931511   7.408   5.205   6.688 -0.2924  0.4944 -0.1227
  222MOL   C13031512   7.523   5.193   6.606  0.2459  0.1846  0.2377
  222MOL   N13131513   7.618   5.180   6.541 -0.0584  0.5227 -0.0083
  222MOL   H13231514   7.482   5.384   6.793 -0.0242  1.2930  1.8337
  222MOL   H13331515   7.539   5.240   6.861  0.7054  1.1509  0.1712
  222MOL   H13431516   7.339   5.261   6.625 -1.5852 -2.4331 -1.3937
  222MOL   C13531517   7.344   5.058   6.721 -0.8047 -0.8572  0.7105
  222MOL   C13631518   7.196   5.046   6.673  0.2877  0.7140  0.1639
  222MOL   C13731519   7.176   5.063   6.529 -0.0538  0.0726 -0.1073
  222MOL   N13831520   7.158   5.064   6.413  0.2510 -0.1235  0.3022
  222MOL   H13931521   7.403   4.979   6.674  2.0812  0.7770  1.4752
  222MOL   H14031522   7.356   5.028   6.825 -1.3051 -0.8914  0.7569
  222MOL   H14131523   7.135   5.119   6.727  1.8265  2.3597 -0.2492
  222MOL   H14231524   7.147   4.953   6.701 -0.6866  1.5943  1.4629
  223MOL     C131525   5.472   1.537   4.102  0.0343 -0.5113  0.2522
  223MOL     C231526   5.515   1.685   4.087  0.0986  0.1965  0.8138
  223MOL     C331527   5.408   1.768   4.144 -0.2617 -0.3889  0.3548
  223MOL     N431528   5.317   1.829   4.190 -0.4653 -1.0631 -0.5117
  223MOL     H531529   5.526   1.468   4.037  0.5223  0.0334  0.0731
  223MOL     H631530   5.368   1.527   4.069 -0.2191 -2.4085  1.5133
  223MOL     H731531   5.509   1.716   3.983 -0.4602 -0.0248  0.7742
  223MOL     H831532   5.481   1.508   4.207 -0.7515 -2.4283 -0.1798
  223MOL     C931533   5.642   1.717   4.156 -0.7676 -0.5976 -0.3566
  223MOL    C1031534   5.768   1.644   4.122  0.5837  0.1363  0.4890
  223MOL    C1131535   5.780   1.632   3.975  0.3577  0.3289  0.0549
  223MOL    N1231536   5.784   1.626   3.861  0.4082  0.2749  0.2199
  223MOL    H1331537   5.661   1.824   4.140 -0.4129 -0.3005  1.8101
  223MOL    H1431538   5.634   1.703   4.264 -0.5594 -1.0647 -0.4005
  223MOL    H1531539   5.753   1.541   4.155 -0.8553 -0.2135 -1.1650
  223MOL    C1631540   5.904   1.698   4.174  0.1568 -0.1121 -0.1796
  223MOL    C1731541   6.031   1.635   4.122  0.2143  0.3607  0.0544
  223MOL    C1831542   6.141   1.688   4.209 -0.6530 -0.0177 -0.0395
  223MOL    N1931543   6.229   1.725   4.280  0.1126 -0.2261  0.7215
  223MOL    H2031544   5.911   1.806   4.155  1.0906 -0.0753  0.3790
  223MOL    H2131545   5.908   1.691   4.282 -0.4407  0.6066 -0.0965
  223MOL    H2231546   6.050   1.675   4.023  1.6260 -0.0297  0.1592
  223MOL    C2331547   6.037   1.483   4.101 -0.0303 -0.4320 -0.5669
  223MOL    C2431548   6.036   1.387   4.227 -0.4856  0.1314  0.1769
  223MOL    C2531549   5.905   1.382   4.294  0.2500  0.8099  0.2197
  223MOL    N2631550   5.807   1.372   4.354  0.3229  0.3061 -0.9510
  223MOL    H2731551   5.977   1.465   4.012 -0.2908 -0.0507 -0.4700
  223MOL    H2831552   6.132   1.455   4.056  1.3643 -0.7192  2.4441
  223MOL    H2931553   6.110   1.429   4.295 -1.5218  0.4015  1.1430
  223MOL    C3031554   6.076   1.240   4.177 -0.8506 -0.3618  0.1076
  223MOL    C3131555   6.096   1.119   4.280  0.0285 -0.6353  0.2585
  223MOL    C3231556   5.982   1.088   4.367  0.2901 -0.3515  0.1750
  223MOL    N3331557   5.883   1.066   4.424  0.1355 -0.2816 -0.2547
  223MOL    H3431558   5.995   1.213   4.108 -0.2874  1.8949 -1.5272
  223MOL    H3531559   6.156   1.247   4.103 -1.6994  0.6537 -0.7515
  223MOL    H3631560   6.173   1.150   4.352  1.5421  1.0293 -1.9819
  223MOL    C3731561   6.161   0.993   4.215 -0.6605 -0.1957 -0.0877
  223MOL    C3831562   6.238   0.893   4.308  0.9200  0.6274 -0.0954
  223MOL    C3931563   6.254   0.753   4.248  0.2349  0.0596 -1.4942
  223MOL    N4031564   6.265   0.645   4.205 -0.1234 -0.2368 -0.0617
  223MOL    H4131565   6.074   0.945   4.170 -0.6958 -0.4852  0.2893
  223MOL    H4231566   6.227   1.027   4.135 -0.6457 -1.2985 -0.5517
  223MOL    H4331567   6.164   0.870   4.385 -0.4231  2.1427 -0.8874
  223MOL    C4431568   6.371   0.945   4.365  0.2629 -0.0405 -0.2469
  223MOL    C4531569   6.504   0.928   4.286  0.6623  0.1544 -0.0021
  223MOL    C4631570   6.584   1.054   4.301  0.0990 -0.7366 -0.0285
  223MOL    N4731571   6.647   1.153   4.312  0.0905  0.2022  0.0945
  223MOL    H4831572   6.364   1.051   4.386 -0.9000 -0.5349  2.1100
  223MOL    H4931573   6.388   0.900   4.463 -0.2683 -1.7618 -0.9134
  223MOL    H5031574   6.473   0.919   4.182  0.1958 -2.3074  0.3398
  223MOL    C5131575   6.599   0.804   4.329 -0.1261  0.5056 -0.0778
  223MOL    C5231576   6.718   0.793   4.234  0.0779 -0.4009  0.0143
  223MOL    C5331577   6.828   0.882   4.275 -0.0140 -0.2716 -0.0432
  223MOL    N5431578   6.912   0.950   4.307  0.3748 -0.2411  0.5449
  223MOL    H5531579   6.637   0.806   4.431  2.3195  1.4077 -0.9604
  223MOL    H5631580   6.541   0.712   4.322  0.5294  0.0758  0.2040
  223MOL    H5731581   6.674   0.815   4.136  1.3097 -0.1383 -0.4887
  223MOL    C5831582   6.769   0.656   4.209  0.0647 -0.4167  0.1126
  223MOL    C5931583   6.892   0.656   4.108  0.5157 -0.4237  0.8240
  223MOL    C6031584   7.026   0.670   4.179 -0.1500  1.1349  0.3146
  223MOL    N6131585   7.130   0.678   4.232  0.1095  0.6898  0.1739
  223MOL    H6231586   6.804   0.617   4.305 -1.0053 -2.3744 -0.2550
  223MOL    H6331587   6.686   0.587   4.190 -0.9902  0.7948  0.2194
  223MOL    H6431588   6.877   0.748   4.052 -2.6318 -1.6231 -0.4647
  223MOL    C6531589   6.878   0.555   3.988  0.4037 -0.1390 -0.4808
  223MOL    C6631590   6.982   0.574   3.880 -0.3427  0.1952  0.3327
  223MOL    C6731591   7.116   0.558   3.932 -0.2242  0.0468 -0.3998
  223MOL    N6831592   7.221   0.539   3.974 -0.2129  0.0777 -0.5181
  223MOL    H6931593   6.872   0.452   4.023 -0.9388  0.6682  1.7437
  223MOL    H7031594   6.784   0.569   3.935  0.5801 -1.1467 -1.0827
  223MOL    H7131595   6.984   0.678   3.847  0.3644 -0.3682 -1.4703
  223MOL    C7231596   6.963   0.474   3.761  0.3773  0.1670 -0.4818
  223MOL    C7331597   6.854   0.503   3.650 -0.7255  0.0543 -0.4101
  223MOL    C7431598   6.712   0.502   3.693  0.5617 -0.5467  0.0561
  223MOL    N7531599   6.599   0.494   3.721  0.0104 -0.2185  0.4190
  223MOL    H7631600   7.062   0.472   3.715 -0.1453 -0.1979 -1.6106
  223MOL    H7731601   6.951   0.381   3.816 -1.5041  0.4301 -0.4027
  223MOL    H7831602   6.864   0.421   3.579  1.2230 -0.3439  0.2860
  223MOL    C7931603   6.873   0.643   3.585 -0.2021  0.1744 -0.4734
  223MOL    C8031604   6.828   0.652   3.443 -0.0445 -0.9048  0.2930
  223MOL    C8131605   6.687   0.643   3.421  0.0992  0.1183 -0.5271
  223MOL    N8231606   6.572   0.636   3.410 -0.5776  0.5531 -0.5693
  223MOL    H8331607   6.844   0.723   3.652  2.8971  0.2791  0.8557
  223MOL    H8431608   6.980   0.664   3.584  0.0160 -0.8561  0.0978
  223MOL    H8531609   6.872   0.566   3.393 -1.5493 -1.2052 -0.5637
  223MOL    C8631610   6.889   0.761   3.351 -0.1271 -0.3551  0.3680
  223MOL    C8731611   6.805   0.876   3.291  0.5839  0.4710 -0.7993
  223MOL    C8831612   6.771   0.954   3.410  0.9081 -0.5170 -0.0485
  223MOL    N8931613   6.747   1.022   3.503  0.0306  0.0699 -0.3363
  223MOL    H9031614   6.977   0.802   3.401  0.5843  0.7067 -1.6554
  223MOL    H9131615   6.940   0.709   3.270  0.8086  0.5710  0.3520
  223MOL    H9231616   6.708   0.849   3.251  0.6868  0.5979 -1.1334
  223MOL    C9331617   6.886   0.964   3.196 -0.3895 -0.6749  0.6169
  223MOL    C9431618   6.803   1.037   3.084  0.3555 -0.4367  0.6152
  223MOL    C9531619   6.677   1.102   3.123  0.0477 -0.2573  0.3522
  223MOL    N9631620   6.578   1.151   3.151  0.6763 -0.7516 -0.0171
  223MOL    H9731621   6.952   1.029   3.253 -1.7207  0.7649  0.5653
  223MOL    H9831622   6.958   0.902   3.143 -0.8197 -0.1918 -0.5441
  223MOL    H9931623   6.767   0.952   3.026 -0.8297  0.3001  0.2684
  223MOL   C10031624   6.876   1.129   2.991  0.2935 -0.7840 -0.6177
  223MOL   C10131625   6.838   1.123   2.839 -0.6056 -0.1549  0.5017
  223MOL   C10231626   6.691   1.144   2.813 -0.5929 -0.4202  0.3931
  223MOL   N10331627   6.578   1.154   2.794 -0.0910  0.7172 -0.6328
  223MOL   H10431628   6.869   1.230   3.031  0.9061 -1.2043  0.6008
  223MOL   H10531629   6.981   1.099   2.999  0.6774  0.2769 -1.6134
  223MOL   H10631630   6.858   1.020   2.811  2.0067 -0.2394  2.5399
  223MOL   C10731631   6.923   1.223   2.758  0.3228  0.1485  0.4446
  223MOL   C10831632   7.066   1.163   2.717  0.0643 -0.1848 -0.3237
  223MOL   C10931633   7.067   1.052   2.624 -0.2884 -0.0827  0.6566
  223MOL   N11031634   7.063   0.958   2.550 -1.3765 -0.7609 -0.0361
  223MOL   H11131635   6.877   1.241   2.662  0.5568  0.7845  0.4531
  223MOL   H11231636   6.920   1.321   2.806  1.3828  0.2467  0.3221
  223MOL   H11331637   7.108   1.109   2.802  0.4608  2.5517  1.2892
  223MOL   C11431638   7.160   1.264   2.647 -0.4365  0.3002 -0.0777
  223MOL   C11531639   7.221   1.376   2.738 -0.4558 -1.0879  0.1929
  223MOL   C11631640   7.261   1.313   2.862  0.1422 -0.1133  0.3171
  223MOL   N11731641   7.296   1.259   2.959  0.0011 -0.3013  0.1765
  223MOL   H11831642   7.232   1.204   2.590 -3.3354 -2.1290 -1.3107
  223MOL   H11931643   7.089   1.302   2.575 -0.2020 -0.7919 -0.9100
  223MOL   H12031644   7.140   1.447   2.758  0.3623  0.3238 -1.4047
  223MOL   C12131645   7.331   1.447   2.671  0.1440  0.1056  0.9989
  223MOL   C12231646   7.431   1.535   2.750  0.5996 -0.5248 -0.5527
  223MOL   C12331647   7.549   1.566   2.663  0.1515  0.0585 -0.0887
  223MOL   N12431648   7.636   1.585   2.597  0.2089  0.1312 -0.3715
  223MOL   H12531649   7.395   1.369   2.631  2.4632  2.4073  0.0942
  223MOL   H12631650   7.289   1.490   2.580 -3.7345 -0.3471  2.4624
  223MOL   H12731651   7.464   1.474   2.834  0.5342  0.1476 -0.0265
  223MOL   C12831652   7.362   1.659   2.821 -0.1406  1.0854 -0.4936
  223MOL   C12931653   7.370   1.797   2.756 -0.2711 -0.0207  0.7951
  223MOL   C13031654   7.507   1.849   2.739 -0.4695 -0.1118  0.1428
  223MOL   N13131655   7.616   1.896   2.730 -0.5221 -0.3160 -0.2580
  223MOL   H13231656   7.257   1.635   2.837  0.6477 -2.2453  0.2935
  223MOL   H13331657   7.398   1.655   2.924 -3.1310  0.1022  0.5745
  223MOL   H13431658   7.333   1.869   2.828  0.6566  0.4305  0.8302
  223MOL   C13531659   7.277   1.821   2.632 -0.4337 -0.2252 -0.3352
  223MOL   C13631660   7.270   1.969   2.575 -0.2785 -0.0380  0.0395
  223MOL   C13731661   7.153   1.995   2.488 -0.3330 -0.0882 -0.3255
  223MOL   N13831662   7.061   2.022   2.427 -0.3537  0.0106 -0.2419
  223MOL   H13931663   7.310   1.767   2.543  2.1684 -0.1216  0.5273
  223MOL   H14031664   7.179   1.794   2.671  0.2214 -0.9641  0.8433
  223MOL   H14131665   7.361   1.999   2.523 -0.3264  1.7330  0.9233
  223MOL   H14231666   7.265   2.048   2.651  1.7607  0.7019 -0.5637
  224MOL     C131667   8.163   4.977   2.355  0.4484  0.0874 -0.1519
  224MOL     C231668   8.147   5.034   2.212  0.0073 -0.2496  0.3718
  224MOL     C331669   8.252   4.985   2.121  0.2664  0.6995 -0.2261
  224MOL     N431670   0.024   4.946   2.049 -0.2060  0.1555  0.2725
  224MOL     H531671   8.178   4.869   2.362 -2.7327 -0.5656 -2.2406
  224MOL     H631672   8.083   5.020   2.415 -2.0221 -0.3639 -2.9881
  224MOL     H731673   8.163   5.142   2.214  1.7384 -0.3766 -2.9976
  224MOL     H831674   8.254   5.019   2.398  0.0572 -1.0754  1.8934
  224MOL     C931675   8.008   5.009   2.154 -0.2238  0.0629  0.1728
  224MOL    C1031676   7.982   5.048   2.005  0.4067 -0.5120  0.1154
  224MOL    C1131677   7.835   5.021   1.974 -0.3916  0.1940  0.0896
  224MOL    N1231678   7.725   5.003   1.948  0.9298 -0.0507  0.3942
  224MOL    H1331679   7.982   4.903   2.156 -1.2377  0.3117  1.0189
  224MOL    H1431680   7.930   5.067   2.204 -1.3905 -0.2348 -1.2724
  224MOL    H1531681   8.044   4.991   1.937  0.6505 -0.5756  0.3902
  224MOL    C1631682   7.999   5.195   1.966  0.3109  0.4739  0.4785
  224MOL    C1731683   7.972   5.229   1.823 -0.5347  0.1579  0.5740
  224MOL    C1831684   7.966   5.376   1.811 -0.0039 -0.1702  0.1451
  224MOL    N1931685   7.963   5.490   1.803  0.0086 -0.4816  0.0252
  224MOL    H2031686   7.944   5.263   2.032  0.5201  1.6522 -0.5331
  224MOL    H2131687   8.106   5.211   1.982  0.5214  0.1279 -0.5647
  224MOL    H2231688   7.876   5.190   1.789 -1.0351  0.4530  1.6288
  224MOL    C2331689   8.068   5.165   1.719  0.4497 -0.1762 -0.3771
  224MOL    C2431690   8.038   5.193   1.565  0.4118  0.5663  0.2828
  224MOL    C2531691   8.151   5.167   1.471 -0.4946  0.7452 -0.0531
  224MOL    N2631692   8.241   5.142   1.402 -0.2565  0.2424 -0.0663
  224MOL    H2731693   8.172   5.196   1.729  1.8416 -5.1597  1.6820
  224MOL    H2831694   8.073   5.059   1.742  0.2757 -0.1358 -0.1537
  224MOL    H2931695   8.029   5.302   1.561 -2.4522  0.3511 -0.6748
  224MOL    C3031696   7.909   5.125   1.521  0.6969  0.0375 -0.0388
  224MOL    C3131697   7.903   4.969   1.519  0.3043 -0.2316  0.0114
  224MOL    C3231698   7.775   4.921   1.579 -0.3210 -0.9044 -0.4098
  224MOL    N3331699   7.678   4.885   1.623  0.9319 -0.3911  0.1861
  224MOL    H3431700   7.831   5.156   1.591  1.2592 -0.5235  0.8461
  224MOL    H3531701   7.874   5.164   1.425 -0.7000 -1.3667 -0.1317
  224MOL    H3631702   7.976   4.931   1.590  0.6390  0.3142 -0.0383
  224MOL    C3731703   7.939   4.909   1.379  0.1045  0.5418 -0.0282
  224MOL    C3831704   7.920   4.757   1.365  0.2781 -0.7409 -0.1073
  224MOL    C3931705   7.940   4.702   1.232  0.2619  0.5222 -0.5457
  224MOL    N4031706   7.956   4.658   1.128 -0.4422 -0.2471 -0.0869
  224MOL    H4131707   7.880   4.963   1.305  1.2098  4.1077  1.5475
  224MOL    H4231708   8.044   4.924   1.355  0.0895  0.8176  0.0745
  224MOL    H4331709   7.814   4.739   1.385  0.2197  0.1549  0.3937
  224MOL    C4431710   7.993   4.674   1.480  0.2499 -0.7712 -0.4781
  224MOL    C4531711   7.957   4.530   1.490 -0.4581  0.4864  0.0523
  224MOL    C4631712   8.044   4.461   1.400  0.4620  0.3367 -0.0155
  224MOL    N4731713   8.118   4.408   1.327 -0.6537  0.4693 -0.0403
  224MOL    H4831714   8.100   4.687   1.465  0.0972 -1.2082 -2.0347
  224MOL    H4931715   7.968   4.720   1.576  0.3988  1.0630 -1.2955
  224MOL    H5031716   7.853   4.524   1.458 -0.1765  0.2482 -0.8289
  224MOL    C5131717   7.952   4.477   1.634  0.4413 -0.7702 -0.1393
  224MOL    C5231718   8.092   4.486   1.708  0.1632  0.2461  0.0977
  224MOL    C5331719   8.135   4.628   1.735 -0.4810  0.2693 -0.1061
  224MOL    N5431720   8.168   4.735   1.753  0.0023  0.1155 -0.3505
  224MOL    H5531721   7.876   4.534   1.688  1.4730 -0.8339  1.4082
  224MOL    H5631722   7.911   4.375   1.633  1.2753 -1.1155 -2.9585
  224MOL    H5731723   8.172   4.437   1.653 -0.0999 -1.3516  1.1101
  224MOL    C5831724   8.079   4.405   1.836 -0.4973  0.0780 -0.2942
  224MOL    C5931725   8.207   4.399   1.917  0.1727  0.0798 -0.3171
  224MOL    C6031726   0.000   4.367   1.821  1.6651 -0.0824 -0.4984
  224MOL    N6131727   0.083   4.340   1.745  0.3766  0.1646  0.1186
  224MOL    H6231728   7.997   4.435   1.901 -1.1088 -0.0157 -1.0078
  224MOL    H6331729   8.043   4.304   1.815 -0.1436  0.2330 -1.7189
  224MOL    H6431730   8.184   4.317   1.985 -0.4568  0.3196 -0.2342
  224MOL    C6531731   8.250   4.512   2.008  0.2199  0.3834  0.3662
  224MOL    C6631732   0.078   4.504   2.083 -0.6804  0.0275 -0.0513
  224MOL    C6731733   0.129   4.367   2.102 -1.1382  0.2130  1.1411
  224MOL    N6831734   0.169   4.262   2.119 -0.3252  0.7471 -0.5645
  224MOL    H6931735   8.233   4.607   1.957 -0.6001 -0.6480 -1.3028
  224MOL    H7031736   8.162   4.512   2.073  1.3982  1.6247  2.0065
  224MOL    H7131737   0.049   4.541   2.182 -2.3864 -1.9662  0.2411
  224MOL    C7231738   0.181   4.601   2.027  0.5985 -0.1777  0.8107
  224MOL    C7331739   0.319   4.611   2.094  0.2525  0.5252 -0.7942
  224MOL    C7431740   0.303   4.571   2.239 -0.2463  0.2642  0.4039
  224MOL    N7531741   0.294   4.535   2.351  0.0001 -0.7115 -0.1124
  224MOL    H7631742   0.183   4.600   1.918 -1.3741  0.6595  0.7396
  224MOL    H7731743   0.135   4.696   2.054 -1.8566 -0.8338 -0.8428
  224MOL    H7831744   0.347   4.713   2.068 -0.2737  0.7115 -0.6370
  224MOL    C7931745   0.425   4.519   2.027  0.1466  0.0553  0.4701
  224MOL    C8031746   0.428   4.504   1.870 -0.2178 -0.0580 -0.2403
  224MOL    C8131747   0.480   4.626   1.810 -0.9896  0.0071 -0.2434
  224MOL    N8231748   0.521   4.727   1.760 -0.1237 -0.1976  0.5429
  224MOL    H8331749   0.522   4.555   2.062 -0.6868  1.9994  0.8866
  224MOL    H8431750   0.408   4.419   2.068  0.4521 -0.4654 -0.6743
  224MOL    H8531751   0.331   4.477   1.827 -0.3305  0.8793 -0.5923
  224MOL    C8631752   0.522   4.388   1.812  0.7475 -0.1456 -0.4010
  224MOL    C8731753   0.474   4.343   1.670 -0.0133  0.2279  0.3849
  224MOL    C8831754   0.476   4.455   1.573 -0.9105 -0.9361  0.1637
  224MOL    N8931755   0.474   4.540   1.496 -0.5321 -0.1651 -0.1520
  224MOL    H9031756   0.626   4.416   1.825  0.5952 -0.1391  0.9542
  224MOL    H9131757   0.515   4.298   1.874 -1.0102  0.1697 -0.1095
  224MOL    H9231758   0.369   4.321   1.691  0.7081 -1.9154  2.0208
  224MOL    C9331759   0.550   4.216   1.615 -0.7508  0.1671  0.1760
  224MOL    C9431760   0.485   4.145   1.498  0.0193 -0.1933 -0.1208
  224MOL    C9531761   0.576   4.041   1.451 -0.2140  0.0045 -0.6074
  224MOL    N9631762   0.647   3.956   1.419 -0.1562  0.5255 -1.0588
  224MOL    H9731763   0.645   4.261   1.584  0.1046 -1.1871  0.8192
  224MOL    H9831764   0.559   4.143   1.695 -1.1261  0.2461  0.2884
  224MOL    H9931765   0.469   4.213   1.414 -3.0947  0.9349  1.2882
  224MOL   C10031766   0.346   4.089   1.535 -0.1035 -0.5589 -0.1089
  224MOL   C10131767   0.272   4.032   1.412  0.6686 -0.7461  0.0258
  224MOL   C10231768   0.334   3.913   1.359  1.0027 -0.0998 -0.1094
  224MOL   N10331769   0.372   3.815   1.323  0.1062 -0.2793 -0.0015
  224MOL   H10431770   0.362   4.012   1.610 -1.3092 -1.8033 -1.1053
  224MOL   H10531771   0.296   4.168   1.591 -0.3299 -0.2225 -0.7832
  224MOL   H10631772   0.269   4.110   1.336 -0.2163  0.1559  0.9849
  224MOL   C10731773   0.126   4.013   1.450 -0.1460 -0.9178 -0.8281
  224MOL   C10831774   0.055   4.140   1.507 -0.6913  0.1527 -0.8012
  224MOL   C10931775   0.104   4.273   1.455 -0.4391  0.1461  0.3949
  224MOL   N11031776   0.142   4.375   1.418  0.9072  0.1928 -0.8815
  224MOL   H11131777   0.067   4.005   1.359  0.3461 -0.0338 -1.2315
  224MOL   H11231778   0.123   3.922   1.511  3.7883 -0.3474  0.3959
  224MOL   H11331779   0.085   4.142   1.612  0.1626 -0.2889 -1.0266
  224MOL   C11431780   8.212   4.126   1.505 -0.3371 -0.3266 -0.1108
  224MOL   C11531781   8.134   3.993   1.526  0.3081  0.1124 -0.4957
  224MOL   C11631782   8.202   3.899   1.619  0.0118  0.6677 -0.9005
  224MOL   N11731783   8.255   3.820   1.693 -0.0099 -0.5161  0.5857
  224MOL   H11831784   8.172   4.196   1.579 -0.2697  0.6578 -0.9899
  224MOL   H11931785   8.177   4.167   1.411  1.6096  2.0741  0.1693
  224MOL   H12031786   8.141   3.938   1.432 -0.0803  1.1014 -1.1207
  224MOL   C12131787   7.986   4.028   1.571 -0.8284 -0.3761  0.2977
  224MOL   C12231788   7.894   3.906   1.565  0.1248  0.6923 -0.0097
  224MOL   C12331789   7.912   3.813   1.679 -0.4001  0.0387 -0.3208
  224MOL   N12431790   7.922   3.741   1.769 -0.3984  0.1337  0.3921
  224MOL   H12531791   7.994   4.073   1.670 -0.0688  2.1876 -0.8906
  224MOL   H12631792   7.945   4.104   1.504 -0.1347  0.6668  1.0492
  224MOL   H12731793   7.912   3.849   1.474  1.7778 -0.5516  1.0676
  224MOL   C12831794   7.741   3.944   1.569  0.5929 -0.7168  0.0049
  224MOL   C12931795   7.682   4.005   1.439 -0.6228 -0.3034 -0.3652
  224MOL   C13031796   7.720   4.145   1.445 -0.1668  0.1035 -0.3765
  224MOL   N13131797   7.753   4.255   1.452  0.1391  0.7956  0.2343
  224MOL   H13231798   7.690   3.848   1.572  0.1488 -0.4533  2.2523
  224MOL   H13331799   7.707   4.001   1.656 -0.6033 -1.4459  0.0162
  224MOL   H13431800   7.573   4.005   1.435 -0.6570 -0.7678  0.5213
  224MOL   C13531801   7.740   3.936   1.311  0.2564  0.5869  0.4053
  224MOL   C13631802   7.659   3.969   1.182 -0.3402  0.0444 -0.2976
  224MOL   C13731803   7.750   3.952   1.068 -0.3820  0.4822 -0.2028
  224MOL   N13831804   7.819   3.937   0.974  0.0941 -0.6741  0.0508
  224MOL   H13931805   7.833   3.984   1.281  0.2936 -0.2247 -0.8024
  224MOL   H14031806   7.748   3.828   1.325 -0.5712  0.4330 -0.2543
  224MOL   H14131807   7.626   4.073   1.177 -0.2361  0.1841  1.5365
  224MOL   H14231808   7.576   3.899   1.170 -1.9787  1.7408  0.7793
  225MOL     C131809   3.386   6.503   8.168 -0.5145 -0.5144 -0.2535
  225MOL     C231810   3.402   6.652   8.122 -0.2260 -0.3546 -0.2911
  225MOL     C331811   3.382   6.733   8.241  0.1107 -0.0444  0.5336
  225MOL     N431812   3.363   6.807   0.015 -0.4838 -0.2128 -0.5255
  225MOL     H531813   3.396   6.429   8.089  1.4150  1.2569 -1.7041
  225MOL     H631814   3.291   6.482   8.218 -0.2233 -0.2266  0.4286
  225MOL     H731815   3.313   6.666   8.061 -0.0054  0.1504 -0.4935
  225MOL     H831816   3.459   6.480   8.245 -1.4010  2.8314  1.6805
  225MOL     C931817   3.542   6.668   8.052 -0.1506  0.0916  0.7978
  225MOL    C1031818   3.550   6.573   7.932  0.5549  0.2910  0.2265
  225MOL    C1131819   3.434   6.573   7.847  0.7954  0.8003  0.6654
  225MOL    N1231820   3.339   6.570   7.773 -0.1119  0.1161 -0.2119
  225MOL    H1331821   3.554   6.769   8.012  2.7188 -1.0917 -1.5222
  225MOL    H1431822   3.617   6.634   8.122 -0.4662 -1.1677  0.5311
  225MOL    H1531823   3.563   6.476   7.980 -1.5970 -0.2802 -0.3117
  225MOL    C1631824   3.678   6.589   7.852 -0.5987 -0.0623  1.0927
  225MOL    C1731825   3.724   6.459   7.776 -0.1922  0.2316 -0.3098
  225MOL    C1831826   3.634   6.433   7.658 -0.0153 -0.0779  0.3827
  225MOL    N1931827   3.560   6.418   7.573 -0.5991 -0.1632 -0.7977
  225MOL    H2031828   3.682   6.681   7.795 -0.9106 -0.4257  0.4869
  225MOL    H2131829   3.755   6.591   7.929 -0.5015 -0.3347  1.0033
  225MOL    H2231830   3.717   6.370   7.839 -1.0072  1.5239  1.4796
  225MOL    C2331831   3.870   6.464   7.734 -0.3591 -0.5013  0.5007
  225MOL    C2431832   3.934   6.342   7.666  0.3794 -0.0869 -0.1839
  225MOL    C2531833   4.033   6.376   7.556 -0.4900 -0.0496 -0.1258
  225MOL    N2631834   4.105   6.400   7.469 -0.6678 -0.1293  0.3220
  225MOL    H2731835   3.880   6.537   7.654  0.5169 -0.3147  0.7792
  225MOL    H2831836   3.936   6.511   7.807  1.4970  1.8694 -2.6045
  225MOL    H2931837   3.859   6.279   7.619  0.1317 -0.4752  0.7080
  225MOL    C3031838   3.993   6.255   7.780  0.0328  0.2823  0.3064
  225MOL    C3131839   4.060   6.125   7.742  0.1819  0.7965  0.1393
  225MOL    C3231840   4.158   6.128   7.639 -0.7472  0.4926 -0.4840
  225MOL    N3331841   4.232   6.125   7.556  0.1470 -0.2288  0.3125
  225MOL    H3431842   4.072   6.318   7.821  1.3500 -0.6367 -0.8158
  225MOL    H3531843   3.913   6.235   7.852 -0.9569 -1.1733 -1.1638
  225MOL    H3631844   3.978   6.070   7.695 -0.4947  1.2093  0.8186
  225MOL    C3731845   4.120   6.055   7.863  0.2911  0.9567  0.6238
  225MOL    C3831846   4.036   5.947   7.944  0.5830  1.0792 -0.7232
  225MOL    C3931847   3.973   5.849   7.849  0.8052  1.0255  0.4086
  225MOL    N4031848   3.931   5.769   7.776 -0.6106 -0.2639 -0.0975
  225MOL    H4131849   4.193   5.989   7.816  0.2718  0.6182  1.0701
  225MOL    H4231850   4.165   6.132   7.924  0.2275  2.7370 -1.4978
  225MOL    H4331851   3.951   5.994   7.993 -0.6761 -2.1653  0.2900
  225MOL    C4431852   4.138   5.881   8.041 -0.1339  0.3806 -0.2059
  225MOL    C4531853   4.079   5.798   8.160  0.0296 -0.3075 -0.2902
  225MOL    C4631854   3.983   5.706   8.104  0.6371  0.4452 -0.2869
  225MOL    N4731855   3.906   5.633   8.055  0.1278 -0.2426  0.5324
  225MOL    H4831856   4.200   5.811   7.987  0.9640 -0.8678  2.5914
  225MOL    H4931857   4.213   5.951   8.079  0.7757 -0.9176  0.3845
  225MOL    H5031858   4.023   5.871   8.219 -0.0909 -0.8102  0.2287
  225MOL    C5131859   4.182   5.730   8.258 -0.0256  0.0171  0.5209
  225MOL    C5231860   4.128   5.691   0.089  0.2729  0.0572 -0.3906
  225MOL    C5331861   3.998   5.621   0.080  0.2661  0.0647  0.9351
  225MOL    N5431862   3.900   5.566   0.075 -0.2339 -0.0829  0.2634
  225MOL    H5531863   4.224   5.640   8.213  1.5576 -0.1151  2.2194
  225MOL    H5631864   4.261   5.803   8.276 -0.1132  0.5040 -0.9869
  225MOL    H5731865   4.114   5.786   0.141  2.7658 -0.9191  2.2065
  225MOL    C5831866   4.238   5.625   0.177  0.6627 -0.1096 -0.0919
  225MOL    C5931867   4.207   5.641   0.325  0.6100 -0.2635 -0.7952
  225MOL    C6031868   4.086   5.571   0.364  0.5739  0.6653  0.0644
  225MOL    N6131869   3.992   5.522   0.407  0.9168  0.2350 -0.5367
  225MOL    H6231870   4.244   5.519   0.152  0.6849 -0.5009  1.5126
  225MOL    H6331871   4.331   5.675   0.149  0.2950 -0.4992 -2.1219
  225MOL    H6431872   4.194   5.748   0.341 -1.8938 -0.9719  2.4039
  225MOL    C6531873   4.333   5.591   0.407  0.2673 -0.0306  0.1643
  225MOL    C6631874   4.307   5.548   0.555 -0.0666 -1.0666  0.0845
  225MOL    C6731875   4.238   5.652   0.637 -1.0011 -0.4105  0.2122
  225MOL    N6831876   4.179   5.733   0.697 -0.0003 -0.2587 -0.4789
  225MOL    H6931877   4.375   5.504   0.357 -0.2565 -0.2283  0.0668
  225MOL    H7031878   4.407   5.667   0.380  0.9098 -0.3598  0.9825
  225MOL    H7131879   4.400   5.538   0.611 -1.2183 -0.7698  2.1042
  225MOL    C7231880   4.234   5.411   0.561  0.3695 -0.0726  0.0083
  225MOL    C7331881   4.305   5.304   0.646  0.1471  0.3738  0.6926
  225MOL    C7431882   4.352   5.351   0.779  1.3763  0.2278 -0.0107
  225MOL    N7531883   4.386   5.390   0.883 -0.2624 -0.2302  0.1631
  225MOL    H7631884   4.139   5.435   0.611  0.0288 -0.7902 -0.2877
  225MOL    H7731885   4.203   5.371   0.465  0.4471  0.9088 -0.4264
  225MOL    H7831886   4.390   5.277   0.583  0.6054  0.4937  1.2569
  225MOL    C7931887   4.231   5.172   0.681 -0.8530 -0.8794  0.1929
  225MOL    C8031888   4.104   5.191   0.768  0.1087 -0.0615  0.4402
  225MOL    C8131889   3.981   5.216   0.691  0.2575  0.2899  0.5299
  225MOL    N8231890   3.885   5.244   0.626  0.1303  0.4763 -0.1108
  225MOL    H8331891   4.202   5.116   0.592 -0.9824  1.3823 -1.2249
  225MOL    H8431892   4.308   5.120   0.738 -1.2249 -0.9697  0.6161
  225MOL    H8531893   4.125   5.282   0.825  0.4549  2.1319 -3.0134
  225MOL    C8631894   4.094   5.069   0.867 -0.1760  0.3004 -0.2610
  225MOL    C8731895   3.965   5.077   0.958  1.0549 -0.6589  0.7373
  225MOL    C8831896   3.843   5.042   0.879  0.7123  0.3536  0.5817
  225MOL    N8931897   3.753   5.009   0.813 -0.1341  0.0981  0.0130
  225MOL    H9031898   4.101   4.975   0.811 -3.9588  0.1064 -0.5629
  225MOL    H9131899   4.184   5.067   0.928  0.0020 -0.0501 -0.5284
  225MOL    H9231900   3.936   5.179   0.985  0.8307 -0.4230 -0.3693
  225MOL    C9331901   3.979   4.994   1.087  0.0306  0.8178 -1.1029
  225MOL    C9431902   3.926   5.047   1.219 -0.4598 -0.1785  0.2986
  225MOL    C9531903   3.958   5.196   1.228  0.1893  0.4256 -0.3379
  225MOL    N9631904   3.981   5.306   1.249 -0.0896 -0.3860  0.1749
  225MOL    H9731905   3.940   4.893   1.078  2.0554 -0.0654 -0.2712
  225MOL    H9831906   4.083   4.984   1.119 -1.2044  1.2300  3.2532
  225MOL    H9931907   3.982   4.997   1.298  0.3090 -0.8254 -0.6454
  225MOL   C10031908   3.775   5.017   1.234 -0.1671 -0.0439  0.6122
  225MOL   C10131909   3.719   5.042   1.380 -0.1869  0.7864 -0.0624
  225MOL   C10231910   3.799   4.980   1.485  0.3767  0.1385 -0.2416
  225MOL   N10331911   3.864   4.935   1.573  0.5626  0.1700 -0.1306
  225MOL   H10431912   3.712   5.070   1.163 -0.1182 -3.5510 -2.1592
  225MOL   H10531913   3.765   4.911   1.209  1.1340 -0.5748  2.2271
  225MOL   H10631914   3.625   4.992   1.399  2.4130 -4.7323 -0.7958
  225MOL   C10731915   3.703   5.195   1.412  0.5118  0.3364  0.0294
  225MOL   C10831916   3.631   5.278   1.303  0.9799 -0.5518  0.0568
  225MOL   C10931917   3.491   5.231   1.262 -0.2138 -0.0640  0.0652
  225MOL   N11031918   3.389   5.191   1.228  0.0072  0.1003  0.0853
  225MOL   H11131919   3.650   5.218   1.505 -0.6605 -1.0901 -0.2731
  225MOL   H11231920   3.800   5.240   1.431  1.1590 -0.9272 -0.2050
  225MOL   H11331921   3.692   5.284   1.212  1.4395  0.1955  0.4045
  225MOL   C11431922   3.625   5.422   1.350  0.3504  0.0455  0.6327
  225MOL   C11531923   3.659   5.525   1.241 -0.5477 -0.6321  0.2444
  225MOL   C11631924   3.559   5.541   1.138  1.0697  0.6165 -0.6661
  225MOL   N11731925   3.481   5.553   1.054 -0.1005 -0.0541  0.2995
  225MOL   H11831926   3.528   5.448   1.394 -0.7211 -0.3167 -1.4316
  225MOL   H11931927   3.691   5.450   1.432 -0.1060  1.9575  0.3699
  225MOL   H12031928   3.749   5.483   1.196 -0.0936 -0.2289  0.7705
  225MOL   C12131929   3.685   5.667   1.310 -0.3428  0.0685  0.5445
  225MOL   C12231930   3.765   5.777   1.242  0.3707  0.5769  0.6807
  225MOL   C12331931   3.679   5.847   1.145  0.0707 -0.4506  0.0853
  225MOL   N12431932   3.615   5.909   1.068 -0.2762 -0.4159 -0.5528
  225MOL   H12531933   3.592   5.696   1.359  0.3797  2.3880  0.6023
  225MOL   H12631934   3.746   5.644   1.398 -1.0886  0.6469  1.2174
  225MOL   H12731935   3.832   5.736   1.166 -0.4116 -1.3262  0.9683
  225MOL   C12831936   3.847   5.872   1.328  0.3035  0.0577  0.3815
  225MOL   C12931937   3.772   5.949   1.432 -1.0251  0.4124  0.6666
  225MOL   C13031938   3.727   5.861   1.542 -0.0414  0.4089 -0.4394
  225MOL   N13131939   3.689   5.795   1.633  0.1782  0.4709  0.2156
  225MOL   H13231940   3.933   5.827   1.377  0.9157  0.7727 -0.0239
  225MOL   H13331941   3.901   5.938   1.260  2.0995 -1.8882 -0.0947
  225MOL   H13431942   3.677   5.996   1.405 -0.2519  1.6324  0.0268
  225MOL   C13531943   3.853   6.071   1.478 -0.3035 -0.3824  0.2573
  225MOL   C13631944   3.776   6.163   1.576 -0.9461  0.3434  0.0125
  225MOL   C13731945   3.859   6.282   1.596  0.4731  0.4682 -0.4439
  225MOL   N13831946   3.919   6.379   1.614  0.0393 -0.3280  0.1656
  225MOL   H13931947   3.939   6.031   1.532 -0.7023  0.2204  1.3710
  225MOL   H14031948   3.879   6.128   1.389  2.0258 -1.2584  0.3673
  225MOL   H14131949   3.768   6.103   1.667  0.8881  0.5818  0.3600
  225MOL   H14231950   3.676   6.190   1.541 -0.8699 -0.3015 -0.7151
  226MOL     C131951   1.837   2.384   7.495  0.4708 -0.6125  0.1794
  226MOL     C231952   1.819   2.235   7.505  0.0355 -0.8871 -0.3033
  226MOL     C331953   1.855   2.192   7.642 -0.6015  0.3397  0.0762
  226MOL     N431954   1.888   2.155   7.748 -0.3212  0.4508 -0.3769
  226MOL     H531955   1.921   2.426   7.551  0.5004 -2.5927  1.6940
  226MOL     H631956   1.751   2.444   7.523  0.7071 -0.7683  1.2336
  226MOL     H731957   1.894   2.190   7.441 -0.4328  0.8057 -2.0790
  226MOL     H831958   1.854   2.404   7.389 -2.2330  2.9097  0.3291
  226MOL     C931959   1.678   2.189   7.466 -0.3200 -0.0064  0.3344
  226MOL    C1031960   1.667   2.039   7.441  0.1276  0.3558  0.3190
  226MOL    C1131961   1.693   1.957   7.563  0.3584  0.1213  0.9026
  226MOL    N1231962   1.709   1.890   7.659  0.0312 -0.6967  0.0680
  226MOL    H1331963   1.607   2.228   7.538 -1.2438 -2.1318  0.6238
  226MOL    H1431964   1.654   2.253   7.381  1.5349  2.4687  1.5849
  226MOL    H1531965   1.750   2.002   7.381 -1.8398 -3.0984 -0.4451
  226MOL    C1631966   1.540   1.995   7.360 -0.1311  0.3398 -0.8257
  226MOL    C1731967   1.407   2.024   7.438 -0.1941 -0.3936  0.2329
  226MOL    C1831968   1.293   1.977   7.355  0.4036  0.4063 -0.0024
  226MOL    N1931969   1.206   1.940   7.285  0.1439  0.7161  0.0483
  226MOL    H2031970   1.540   2.040   7.261 -2.5998 -0.4530 -1.2125
  226MOL    H2131971   1.543   1.887   7.344  0.8828  0.3029 -0.4288
  226MOL    H2231972   1.395   2.132   7.431 -0.8982 -0.4404  0.6406
  226MOL    C2331973   1.401   1.976   7.585  0.3088  0.3293 -0.2262
  226MOL    C2431974   1.371   1.827   7.602 -0.2709 -1.0813 -0.8050
  226MOL    C2531975   1.466   1.741   7.536 -0.3488  0.2217  0.5450
  226MOL    N2631976   1.546   1.681   7.476  0.5005  0.7970  0.1124
  226MOL    H2731977   1.483   2.011   7.648 -0.0782  1.3849 -0.2969
  226MOL    H2831978   1.331   2.046   7.632  0.5829 -0.5898  1.6137
  226MOL    H2931979   1.287   1.806   7.536  0.0408 -3.1949 -0.5702
  226MOL    C3031980   1.342   1.784   7.747 -0.2859  0.6098 -0.1861
  226MOL    C3131981   1.314   1.633   7.755  0.2761 -0.4468  0.6144
  226MOL    C3231982   1.436   1.566   7.793  0.4508 -0.7871  0.4550
  226MOL    N3331983   1.535   1.510   7.817  0.7792 -0.1110 -0.4341
  226MOL    H3431984   1.430   1.804   7.808 -0.4974  0.1437  0.2799
  226MOL    H3531985   1.262   1.847   7.784  1.1342  2.8368 -0.7920
  226MOL    H3631986   1.281   1.595   7.659 -0.3229 -1.2679  1.1391
  226MOL    C3731987   1.187   1.593   7.839 -0.1347  0.2784 -0.2425
  226MOL    C3831988   1.174   1.447   7.869 -0.6882  0.1725 -0.4623
  226MOL    C3931989   1.258   1.402   7.980  0.1609  0.1091  0.0945
  226MOL    N4031990   1.326   1.364   8.064 -0.0062  0.1495 -0.4628
  226MOL    H4131991   1.197   1.643   7.935 -0.4598  1.4344 -0.8052
  226MOL    H4231992   1.098   1.625   7.786 -0.1640  0.8944  0.1742
  226MOL    H4331993   1.217   1.390   7.787  2.6287  3.1915 -0.9701
  226MOL    C4431994   1.027   1.405   7.906 -1.0493  0.5964 -0.6215
  226MOL    C4531995   0.915   1.421   7.801 -0.1051  0.6646 -0.0269
  226MOL    C4631996   0.834   1.545   7.814  0.3167 -0.5809  0.1173
  226MOL    N4731997   0.766   1.640   7.832  0.2185  0.1242  0.4299
  226MOL    H4831998   1.021   1.301   7.937 -2.1676  0.4539 -1.2632
  226MOL    H4931999   0.993   1.445   8.001 -0.3284  1.5686 -0.7740
  226MOL    H5032000   0.849   1.346   7.844 -1.4699  1.6164 -0.4465
  226MOL    C5132001   0.937   1.373   7.659 -0.0778  0.3489  0.0264
  226MOL    C5232002   0.813   1.335   7.583  0.2410  0.6302  0.6404
  226MOL    C5332003   0.705   1.433   7.587  0.0643  0.1034  0.6141
  226MOL    N5432004   0.622   1.514   7.589 -1.1775 -0.3511 -0.5616
  226MOL    H5532005   0.991   1.440   7.593 -0.2027  1.6893  1.2464
  226MOL    H5632006   1.008   1.291   7.668  1.1918  1.3723 -0.6076
  226MOL    H5732007   0.753   1.257   7.629 -0.2286  0.6147  0.0180
  226MOL    C5832008   0.844   1.288   7.439 -1.0424 -0.2059 -0.1635
  226MOL    C5932009   0.716   1.241   7.369 -0.4109 -0.3380 -0.1494
  226MOL    C6032010   0.640   1.350   7.308  0.1772  0.0541 -0.6530
  226MOL    N6132011   0.582   1.442   7.261 -0.6468 -0.6886  0.3554
  226MOL    H6232012   0.884   1.373   7.384 -1.4071 -0.3404 -0.6395
  226MOL    H6332013   0.923   1.212   7.440 -0.9800 -0.1282  0.6311
  226MOL    H6432014   0.653   1.202   7.449 -0.2232  0.1071  0.2167
  226MOL    C6532015   0.730   1.125   7.266  0.0448 -0.1665  0.1362
  226MOL    C6632016   0.766   0.989   7.324  0.4607 -0.4044 -0.4171
  226MOL    C6732017   0.683   0.964   7.446 -0.7254 -0.0064 -0.3430
  226MOL    N6832018   0.615   0.947   7.541 -0.2663  0.3565  0.4965
  226MOL    H6932019   0.628   1.118   7.228 -0.1898  0.0990  0.7148
  226MOL    H7032020   0.792   1.148   7.180  2.6263 -3.5078  1.0112
  226MOL    H7132021   0.869   0.995   7.357  0.6328 -0.2997 -0.9650
  226MOL    C7232022   0.771   0.872   7.221  0.9471  0.0451  0.0233
  226MOL    C7332023   0.799   0.735   7.290  0.6354 -0.1532  0.1932
  226MOL    C7432024   0.765   0.622   7.203  0.4427 -0.1684  0.1307
  226MOL    N7532025   0.744   0.530   7.138  0.3416 -0.8099  0.0117
  226MOL    H7632026   0.675   0.860   7.172  0.6538  1.0456  0.3414
  226MOL    H7732027   0.847   0.900   7.148 -0.3355 -0.2061 -1.4415
  226MOL    H7832028   0.723   0.725   7.367 -1.7773  0.1501 -2.0925
  226MOL    C7932029   0.947   0.729   7.343  0.3288 -0.3083  0.4157
  226MOL    C8032030   1.002   0.607   7.416  0.4735  0.3388 -0.4326
  226MOL    C8132031   1.150   0.613   7.412 -0.1865 -0.0852  0.2649
  226MOL    N8232032   1.268   0.620   7.411  0.0404 -0.1177 -0.0677
  226MOL    H8332033   1.005   0.737   7.251 -2.0376  3.1568 -0.8984
  226MOL    H8432034   0.972   0.823   7.393  0.1622 -0.2303  0.3543
  226MOL    H8532035   0.961   0.518   7.369  0.2748  0.0228  0.3311
  226MOL    C8632036   0.960   0.614   7.571  0.1699  0.5374  0.5795
  226MOL    C8732037   0.812   0.585   7.606  0.3461  0.1446  0.4000
  226MOL    C8832038   0.762   0.463   7.549 -0.0284 -0.2986  0.1453
  226MOL    N8932039   0.728   0.365   7.495 -0.0871  0.1066 -0.1398
  226MOL    H9032040   1.031   0.552   7.625 -0.0329 -1.4576 -1.3955
  226MOL    H9132041   0.976   0.718   7.601 -0.8419  1.0735 -0.6567
  226MOL    H9232042   0.740   0.652   7.559  0.0198 -0.0254  0.6544
  226MOL    C9332043   0.780   0.583   7.761 -0.3039  0.3755  0.2376
  226MOL    C9432044   0.844   0.459   7.831  0.9954  0.2250  0.1093
  226MOL    C9532045   0.974   0.494   7.881 -0.2193 -0.6329 -0.2961
  226MOL    N9632046   1.074   0.525   7.928 -0.0328 -0.0793  0.2547
  226MOL    H9732047   0.812   0.666   7.823 -1.4299  1.2029 -0.2736
  226MOL    H9832048   0.672   0.568   7.765 -0.1672 -1.7632 -2.2473
  226MOL    H9932049   0.850   0.385   7.752 -2.7465  1.2694 -1.2837
  226MOL   C10032050   0.753   0.405   7.941  0.2682 -0.3257 -0.3456
  226MOL   C10132051   0.726   0.504   8.067 -0.3148  0.8696  0.8468
  226MOL   C10232052   0.667   0.634   8.037 -0.1902 -0.3444 -0.2984
  226MOL   N10332053   0.625   0.739   8.015 -0.3125  0.3474 -0.1852
  226MOL   H10432054   0.658   0.370   7.900 -0.5048 -1.8479  2.5834
  226MOL   H10532055   0.806   0.318   7.979  1.8405 -0.0523 -1.8902
  226MOL   H10632056   0.825   0.521   8.110  0.7650 -1.0801 -0.7817
  226MOL   C10732057   0.640   0.433   8.170 -0.5562  0.3589  0.0043
  226MOL   C10832058   0.632   0.516   8.308  0.7122 -0.2265 -0.8425
  226MOL   C10932059   0.504   0.486   0.078  0.1968 -0.5399 -0.4078
  226MOL   N11032060   0.406   0.465   0.133 -0.2302 -0.5119 -0.0814
  226MOL   H11132061   0.536   0.432   8.137 -0.2052  2.3200 -1.1703
  226MOL   H11232062   0.663   0.328   8.190 -0.9791  0.5689  1.6901
  226MOL   H11332063   0.609   0.619   8.280  0.1094 -0.4220 -1.0997
  226MOL   C11432064   0.765   0.507   0.070 -0.4294 -0.8049 -0.0475
  226MOL   C11532065   0.796   0.596   0.193 -0.5361  0.0936  0.0891
  226MOL   C11632066   0.942   0.578   0.218 -0.1500  0.7517  0.4825
  226MOL   N11732067   1.052   0.565   0.242 -0.5095 -0.1727  0.1951
  226MOL   H11832068   0.767   0.405   0.108 -2.0662 -0.4947  0.9479
  226MOL   H11932069   0.848   0.516   0.000 -1.0772 -1.1003 -0.8621
  226MOL   H12032070   0.735   0.561   0.276 -0.8716 -3.0536 -1.4141
  226MOL   C12132071   0.750   0.737   0.159  0.3157 -0.5801  0.4516
  226MOL   C12232072   0.786   0.849   0.260  0.1664  0.6592  0.2047
  226MOL   C12332073   0.775   0.793   0.397 -0.0513 -0.4864 -0.8204
  226MOL   N12432074   0.762   0.745   0.505  0.2595  0.4994  0.2912
  226MOL   H12532075   0.780   0.773   0.060  3.0638  0.3845  1.5649
  226MOL   H12632076   0.641   0.736   0.154  0.3399 -1.3262  0.0651
  226MOL   H12732077   0.706   0.922   0.256  0.8560  1.3630 -0.9231
  226MOL   C12832078   0.909   0.937   0.231  0.0621  0.1837  0.0307
  226MOL   C12932079   0.972   1.017   0.344 -0.7481  0.9553 -0.4092
  226MOL   C13032080   0.869   1.068   0.445 -0.6796  0.3789  0.6200
  226MOL   N13132081   0.787   1.101   0.518  0.0519 -0.4671 -0.0245
  226MOL   H13232082   0.999   0.889   0.194 -1.2942 -0.6583 -2.2790
  226MOL   H13332083   0.883   1.017   0.162 -1.4239 -0.3613 -0.0551
  226MOL   H13432084   1.013   1.106   0.296  0.0668 -0.5931 -2.6805
  226MOL   C13532085   1.074   0.936   0.423  0.6853 -0.4828 -0.8798
  226MOL   C13632086   1.144   0.997   0.543 -0.5850  0.3720 -0.2256
  226MOL   C13732087   1.236   0.910   0.623 -0.6092 -0.1829  0.0810
  226MOL   N13832088   1.305   0.838   0.680 -0.1820  0.5404  0.1685
  226MOL   H13932089   1.028   0.840   0.448 -2.0563  0.4285 -2.2758
  226MOL   H14032090   1.158   0.916   0.356  2.3966 -0.4473  1.2001
  226MOL   H14132091   1.069   1.015   0.620 -0.5561 -1.6904  0.3148
  226MOL   H14232092   1.190   1.095   0.528  3.0241 -1.2859 -0.5432
  227MOL     C132093   5.862   4.284   0.646 -0.3428 -0.6886  0.6965
  227MOL     C232094   5.885   4.160   0.568 -0.3421  0.4366 -0.3008
  227MOL     C332095   5.938   4.054   0.652  0.1057 -0.2253 -0.3117
  227MOL     N432096   5.981   3.975   0.721  0.2844  0.3892 -0.3138
  227MOL     H532097   5.954   4.338   0.667  0.0145 -0.4977 -1.2166
  227MOL     H632098   5.806   4.277   0.739  0.3627  1.2521  1.3019
  227MOL     H732099   5.954   4.178   0.485 -1.5957  4.2806 -0.5853
  227MOL     H832100   5.805   4.355   0.586  0.2318 -0.3888  0.5009
  227MOL     C932101   5.755   4.100   0.499 -0.1831  0.1203  0.6854
  227MOL    C1032102   5.702   4.176   0.378  0.5257 -0.5656  0.2425
  227MOL    C1132103   5.807   4.201   0.287 -0.7696  0.6482 -0.3086
  227MOL    N1232104   5.895   4.217   0.208  0.5887  0.4946 -0.2891
  227MOL    H1332105   5.798   4.009   0.457  0.1757  0.3612  0.5303
  227MOL    H1432106   5.673   4.071   0.564  1.7246 -0.9236  2.6843
  227MOL    H1532107   5.664   4.274   0.407 -0.4066 -0.2544 -1.8826
  227MOL    C1632108   5.578   4.111   0.325 -0.0161  0.0364  0.6301
  227MOL    C1732109   5.613   3.993   0.225  0.4988  0.1455  0.5724
  227MOL    C1832110   5.520   3.887   0.237 -0.7945 -0.4177 -0.2223
  227MOL    N1932111   5.448   3.799   0.244  0.6860 -0.4299 -0.0451
  227MOL    H2032112   5.512   4.077   0.405 -1.1016 -1.4344 -0.8642
  227MOL    H2132113   5.516   4.184   0.273  0.0940 -0.0975  0.3092
  227MOL    H2232114   5.706   3.945   0.254  0.7735 -0.4526 -1.2253
  227MOL    C2332115   5.633   4.045   0.073 -0.2886 -0.2727  0.0271
  227MOL    C2432116   5.719   3.949   8.294  0.3579  0.2753  0.1534
  227MOL    C2532117   5.648   3.827   8.252  0.5244  0.2506  0.5102
  227MOL    N2632118   5.596   3.733   8.210  0.2552  0.3161  0.4396
  227MOL    H2732119   5.536   4.052   0.024 -1.5599  0.3467  2.5628
  227MOL    H2832120   5.671   4.147   0.077 -0.9596 -0.0338  0.2466
  227MOL    H2932121   5.800   3.917   0.047  1.1624 -0.9996 -1.4565
  227MOL    C3032122   5.778   4.025   8.173  0.3325 -0.1050  0.3574
  227MOL    C3132123   5.670   4.043   8.060  0.1457 -0.3605  0.5349
  227MOL    C3232124   5.591   4.159   8.088 -0.3533  0.2684 -0.5669
  227MOL    N3332125   5.536   4.255   8.121  0.4972  0.5323 -0.1703
  227MOL    H3432126   5.835   4.111   8.210  1.9782 -0.9884 -0.0857
  227MOL    H3532127   5.862   3.959   8.149  1.3214  0.5900  1.7989
  227MOL    H3632128   5.601   3.960   8.048  0.0548  0.1797 -3.5237
  227MOL    C3732129   5.741   4.041   7.923  0.3042 -0.0335 -0.2777
  227MOL    C3832130   5.661   4.059   7.789 -0.5931 -0.5763 -0.0513
  227MOL    C3932131   5.581   4.186   7.788  0.5891  0.5976 -0.8387
  227MOL    N4032132   5.514   4.283   7.784 -0.1935 -0.0202  0.3339
  227MOL    H4132133   5.816   4.119   7.924 -1.4047  1.6639 -1.3282
  227MOL    H4232134   5.786   3.942   7.925  1.3564  0.4472  0.6376
  227MOL    H4332135   5.584   3.983   7.776  1.4681 -2.4321 -1.7978
  227MOL    C4432136   5.753   4.032   7.670  0.0214 -0.1531 -0.1613
  227MOL    C4532137   5.692   4.037   7.531 -0.0521  0.3358 -0.1145
  227MOL    C4632138   5.575   3.957   7.523 -0.0370 -0.4263 -0.0362
  227MOL    N4732139   5.488   3.889   7.521 -0.3698  0.0863  0.1947
  227MOL    H4832140   5.836   4.104   7.672 -0.6512  0.6990 -1.9638
  227MOL    H4932141   5.800   3.934   7.682 -1.8643 -0.9653  0.7581
  227MOL    H5032142   5.764   4.007   7.454  0.2751  1.7716 -0.3806
  227MOL    C5132143   5.674   4.178   7.477  0.9640  0.3341 -0.4704
  227MOL    C5232144   5.602   4.195   7.339  0.0461  0.1382 -0.1257
  227MOL    C5332145   5.542   4.326   7.328 -0.4716  0.5234 -0.4373
  227MOL    N5432146   5.494   4.431   7.320  0.2303 -0.1831 -0.1458
  227MOL    H5532147   5.602   4.231   7.539  1.6205  1.8509 -0.9586
  227MOL    H5632148   5.763   4.241   7.484 -0.3019  2.1527 -0.5313
  227MOL    H5732149   5.512   4.134   7.342 -1.7672  2.6952 -0.5223
  227MOL    C5832150   5.683   4.167   7.211 -0.4234 -0.2507 -0.6054
  227MOL    C5932151   5.816   4.230   7.201 -0.7860  0.6179  0.6336
  227MOL    C6032152   5.883   4.156   7.093 -0.2510 -0.1353 -0.0266
  227MOL    N6132153   5.931   4.103   7.006 -0.0037  0.3154  0.2522
  227MOL    H6232154   5.710   4.062   7.207 -0.1485 -0.1592 -1.2423
  227MOL    H6332155   5.616   4.198   7.131 -2.3937  0.9108  1.4344
  227MOL    H6432156   5.872   4.213   7.294  0.2754  0.4051 -0.0365
  227MOL    C6532157   5.827   4.388   7.171  0.3416 -1.0350 -0.6709
  227MOL    C6632158   5.970   4.441   7.208 -0.3475 -0.2894 -0.4382
  227MOL    C6732159   6.011   4.548   7.112  0.2056  0.1083  0.8467
  227MOL    N6832160   6.039   4.624   7.029 -0.7086  0.3490  0.1689
  227MOL    H6932161   5.803   4.408   7.067 -0.6599 -1.1445 -0.4664
  227MOL    H7032162   5.753   4.448   7.223  1.8797 -0.6613  1.1490
  227MOL    H7132163   6.035   4.360   7.175  0.0111 -0.9008  1.7279
  227MOL    C7232164   5.989   4.494   7.357 -0.8628  0.3520 -0.0192
  227MOL    C7332165   6.131   4.536   7.404 -0.1490 -0.7980  0.0467
  227MOL    C7432166   6.156   4.677   7.357  0.1210  0.1916  0.5884
  227MOL    N7532167   6.178   4.785   7.318 -0.1257 -1.5198 -0.1429
  227MOL    H7632168   5.916   4.574   7.366 -0.7046  0.6228 -1.0167
  227MOL    H7732169   5.950   4.412   7.417  1.7263 -0.2037  1.0180
  227MOL    H7832170   6.201   4.475   7.348  0.5060  0.5871 -0.6753
  227MOL    C7932171   6.158   4.516   7.561 -0.3327  0.2201 -0.7423
  227MOL    C8032172   6.130   4.375   7.624 -0.0116 -0.4049 -0.4529
  227MOL    C8132173   6.114   4.268   7.526 -0.1055 -0.3817  0.0136
  227MOL    N8232174   6.096   4.186   7.447  0.1641  0.0002  0.3372
  227MOL    H8332175   6.262   4.539   7.581 -0.2968 -0.1661 -0.4795
  227MOL    H8432176   6.108   4.589   7.624  0.6671 -0.5605  0.9851
  227MOL    H8532177   6.028   4.389   7.660 -0.7195 -2.2706 -1.6553
  227MOL    C8632178   6.216   4.345   7.740 -0.1913 -0.3674 -0.0569
  227MOL    C8732179   6.215   4.443   7.857 -0.7115 -0.0310  0.5171
  227MOL    C8832180   6.076   4.441   7.902  0.2836 -0.6167  0.3146
  227MOL    N8932181   5.965   4.437   7.935  0.0080  0.5836 -0.3283
  227MOL    H9032182   6.190   4.246   7.778 -1.3034  0.6754  1.9672
  227MOL    H9132183   6.317   4.341   7.700 -0.3962 -0.2440 -0.5899
  227MOL    H9232184   6.238   4.542   7.818 -0.7296 -0.3858 -0.3976
  227MOL    C9332185   6.311   4.422   7.981 -0.0700 -0.4963 -0.5483
  227MOL    C9432186   6.461   4.395   7.953  0.0787  0.0401  0.2711
  227MOL    C9532187   6.479   4.262   7.895 -0.2183  0.0978  0.1359
  227MOL    N9632188   6.494   4.156   7.843  0.1878  0.2610 -0.4462
  227MOL    H9732189   6.306   4.514   8.039  1.5166 -1.0172  0.4610
  227MOL    H9832190   6.269   4.341   8.039  0.7452 -0.2049  0.4657
  227MOL    H9932191   6.513   4.386   8.049  0.3525  0.5019  0.1669
  227MOL   C10032192   6.514   4.504   7.864  0.1516 -0.1995  0.1882
  227MOL   C10132193   6.528   4.647   7.917  0.0939  0.5176  0.2806
  227MOL   C10232194   6.542   4.652   8.065 -0.2949 -0.0254 -0.0533
  227MOL   N10332195   6.551   4.661   8.180  0.5669 -0.2308 -0.1477
  227MOL   H10432196   6.617   4.475   7.841  1.0831  1.2955  2.3458
  227MOL   H10532197   6.473   4.501   7.763 -2.0041 -0.4321  1.0490
  227MOL   H10632198   6.439   4.704   7.892  0.7240  1.1035 -0.6801
  227MOL   C10732199   6.633   4.732   7.837 -0.4659 -0.2082 -0.0735
  227MOL   C10832200   6.653   4.873   7.884 -0.2720 -0.0807 -0.9234
  227MOL   C10932201   6.784   4.922   7.827 -0.3209 -0.1750  0.0549
  227MOL   N11032202   6.885   4.959   7.786  0.1186  0.1986 -0.0048
  227MOL   H11132203   6.727   4.677   7.844  0.9198  2.2334  1.1066
  227MOL   H11232204   6.596   4.717   7.735  1.0653 -0.5146 -0.5988
  227MOL   H11332205   6.669   4.870   7.992  1.3412  1.7356 -1.0815
  227MOL   C11432206   6.535   4.965   7.853 -0.6816 -0.4619 -0.1253
  227MOL   C11532207   6.548   5.107   7.896  0.2065  0.7735  0.0884
  227MOL   C11632208   6.480   5.195   7.808  0.1757 -0.1050 -0.3204
  227MOL   N11732209   6.420   5.261   7.734  0.4176  0.1670 -0.0448
  227MOL   H11832210   6.499   4.968   7.750 -0.6955 -3.0182 -0.2250
  227MOL   H11932211   6.442   4.916   7.882 -1.5055  1.7801  1.1257
  227MOL   H12032212   6.654   5.124   7.876  0.5892 -1.3814  0.1491
  227MOL   C12132213   6.530   5.130   8.044  0.2976  0.4860 -0.7769
  227MOL   C12232214   6.587   5.265   8.098 -0.2203  0.9927  0.1322
  227MOL   C12332215   6.516   5.384   8.047 -0.2376  0.5376  0.4329
  227MOL   N12432216   6.461   5.476   8.005  0.6797 -0.7291  0.2313
  227MOL   H12532217   6.423   5.116   8.063  0.0823 -2.1908 -3.4414
  227MOL   H12632218   6.571   5.044   8.097 -0.2967  0.8977  0.3517
  227MOL   H12732219   6.688   5.270   8.060 -0.0029  2.7690  0.8671
  227MOL   C12832220   6.595   5.254   8.252  0.2225  0.4163  0.1482
  227MOL   C12932221   6.658   5.377   0.014 -0.3381  0.2433  0.4620
  227MOL   C13032222   6.640   5.369   0.158  0.3433 -0.0123 -0.0502
  227MOL   N13132223   6.623   5.364   0.273 -0.1497  0.2661 -0.5959
  227MOL   H13232224   6.493   5.243   8.290 -0.2474  2.2369 -0.4998
  227MOL   H13332225   6.655   5.167   8.276  1.7103  1.1261 -0.9358
  227MOL   H13432226   6.598   5.463   8.295 -0.3025 -0.9744 -3.2196
  227MOL   C13532227   6.809   5.396   8.298 -0.3238  0.6884  0.3059
  227MOL   C13632228   6.875   5.489   0.077 -0.5130  0.8565 -0.1727
  227MOL   C13732229   6.798   5.616   0.098  0.4368  0.0540  0.5345
  227MOL   N13832230   6.739   5.717   0.115 -0.1460  0.1727  0.0366
  227MOL   H13932231   6.862   5.301   8.296 -0.8088  0.3428  2.6748
  227MOL   H14032232   6.810   5.441   8.198  1.4195 -0.5530 -0.2509
  227MOL   H14132233   6.975   5.489   0.035 -0.8548 -2.1976 -1.1030
  227MOL   H14232234   6.890   5.456   0.180  0.4656 -1.9474 -1.1776
  228MOL     C132235   1.441   1.316   1.454  0.4685  0.1689  0.4009
  228MOL     C232236   1.375   1.232   1.349 -0.3844  0.0620 -0.1201
  228MOL     C332237   1.296   1.327   1.267 -0.2959 -0.2312 -0.0085
  228MOL     N432238   1.239   1.401   1.204  0.6582  0.1636 -0.2880
  228MOL     H532239   1.363   1.363   1.514 -2.1054 -1.6052 -1.4244
  228MOL     H632240   1.496   1.387   1.393 -0.2999  1.4079  1.1386
  228MOL     H732241   1.308   1.159   1.393 -0.7626 -0.1808 -1.0878
  228MOL     H832242   1.510   1.260   1.517  1.0324  1.1712  0.6847
  228MOL     C932243   1.468   1.160   1.246  0.0455 -0.3585  0.7436
  228MOL    C1032244   1.568   1.057   1.314  0.3909 -0.6562 -0.2644
  228MOL    C1132245   1.482   0.948   1.367 -0.0138 -0.5123 -0.1881
  228MOL    N1232246   1.421   0.862   1.402  0.4872  0.5695 -0.2484
  228MOL    H1332247   1.415   1.113   1.164  2.3389 -1.1100 -0.3595
  228MOL    H1432248   1.536   1.228   1.195  2.6624 -2.5075  1.2529
  228MOL    H1532249   1.607   1.102   1.405 -1.8370  3.3577 -1.1616
  228MOL    C1632250   1.694   1.001   1.235  0.0476  0.0612 -0.2850
  228MOL    C1732251   1.786   0.919   1.318  0.1329 -0.1698  0.3726
  228MOL    C1832252   1.744   0.782   1.323 -0.9399 -0.5256 -0.3061
  228MOL    N1932253   1.718   0.669   1.332  0.4812 -0.7225  0.8901
  228MOL    H2032254   1.664   0.938   1.151  0.5186  0.6946 -0.9296
  228MOL    H2132255   1.745   1.085   1.188  0.9882 -1.6488 -2.3581
  228MOL    H2232256   1.786   0.960   1.419 -2.2375 -1.0977  0.7943
  228MOL    C2332257   1.935   0.938   1.282  0.6249 -0.5047  0.0031
  228MOL    C2432258   2.031   0.865   1.373 -0.1926  0.0659  0.0670
  228MOL    C2532259   2.167   0.844   1.308  1.0353  0.4843  0.2684
  228MOL    N2632260   2.267   0.824   1.256 -0.3548  0.2050 -0.5200
  228MOL    H2732261   1.952   0.897   1.182 -0.8519  0.2817 -0.5849
  228MOL    H2832262   1.961   1.044   1.285  0.4711 -0.3727 -2.1679
  228MOL    H2932263   1.984   0.768   1.390 -0.5775 -0.3788 -3.2910
  228MOL    C3032264   2.052   0.933   1.513  0.3673 -0.0742  0.2648
  228MOL    C3132265   2.119   0.849   1.619 -0.6187 -0.2539 -0.5981
  228MOL    C3232266   2.258   0.818   1.584 -0.0912  1.3243 -0.0428
  228MOL    N3332267   2.373   0.798   1.562  0.2768 -0.1856  0.1141
  228MOL    H3432268   2.102   1.028   1.490 -0.7118 -0.2056 -2.8856
  228MOL    H3532269   1.958   0.965   1.558  1.3379 -0.7970  2.8750
  228MOL    H3632270   2.074   0.750   1.613 -1.7431  0.1902  0.3236
  228MOL    C3732271   2.094   0.883   1.774 -0.0776  0.0028  0.1633
  228MOL    C3832272   2.210   0.881   1.869 -0.3440 -0.3323  0.0656
  228MOL    C3932273   2.307   0.995   1.836 -0.3193  0.0196 -0.1740
  228MOL    N4032274   2.383   1.075   1.815  0.7850  0.1629  0.3674
  228MOL    H4132275   2.040   0.977   1.781  0.4041  0.1729  1.7731
  228MOL    H4232276   2.017   0.814   1.809 -2.7880  1.8020 -2.0565
  228MOL    H4332277   2.275   0.794   1.859 -1.1270 -0.8002 -1.0625
  228MOL    C4432278   2.153   0.887   2.010 -0.3210  0.5707 -0.0454
  228MOL    C4532279   2.254   0.877   2.128  0.4733  0.2558  0.3133
  228MOL    C4632280   2.365   0.784   2.094 -0.3288  0.1857  0.6866
  228MOL    N4732281   2.460   0.718   2.070  0.4589 -0.1663  0.1000
  228MOL    H4832282   2.096   0.980   2.016 -2.0360 -0.5418  1.6594
  228MOL    H4932283   2.080   0.806   2.019  0.9756 -0.5056  0.9287
  228MOL    H5032284   2.200   0.829   2.210  2.8231 -1.9635  0.6432
  228MOL    C5132285   2.300   1.015   2.190  0.2804 -0.7358  0.1838
  228MOL    C5232286   2.188   1.107   2.231 -0.5093  0.1120 -0.1810
  228MOL    C5332287   2.146   1.191   2.123  0.4971  0.0095 -0.5225
  228MOL    N5432288   2.110   1.260   2.035  0.2071 -0.5722 -0.7569
  228MOL    H5532289   2.357   0.992   2.279 -1.5604  4.4857  2.9448
  228MOL    H5632290   2.369   1.068   2.124 -0.6787 -2.5515 -2.3903
  228MOL    H5732291   2.238   1.181   2.294 -0.1953 -0.5010  0.2864
  228MOL    C5832292   2.081   1.028   2.309  0.2419 -0.1711 -0.3510
  228MOL    C5932293   2.000   1.108   2.413 -0.7687  0.2115  0.6226
  228MOL    C6032294   1.916   1.209   2.347  0.8872  0.5806  0.2832
  228MOL    N6132295   1.850   1.290   2.298  0.1979 -0.1571 -0.2099
  228MOL    H6232296   2.006   0.979   2.248  0.0753 -1.6439  0.9957
  228MOL    H6332297   2.122   0.947   2.370 -0.7586 -0.3663  0.0780
  228MOL    H6432298   2.079   1.162   2.467  0.2110 -0.1637 -0.4234
  228MOL    C6532299   1.934   1.016   2.516  0.1689 -0.3775  0.3721
  228MOL    C6632300   1.837   1.088   2.618 -0.3296 -0.8829 -0.0139
  228MOL    C6732301   1.708   1.128   2.550  0.1176  0.8789 -0.6243
  228MOL    N6832302   1.609   1.148   2.491 -0.5439 -0.0158  0.2702
  228MOL    H6932303   1.886   0.924   2.482  1.6626 -0.1076 -2.6402
  228MOL    H7032304   2.009   0.977   2.584  0.8447 -0.4073 -0.3897
  228MOL    H7132305   1.887   1.177   2.657 -0.2671 -1.1238  0.4558
  228MOL    C7232306   1.803   0.994   2.738  0.5253  0.2322 -0.3229
  228MOL    C7332307   1.908   0.981   2.842 -0.3708  0.1362  0.1310
  228MOL    C7432308   1.937   1.109   2.903  0.6558 -0.5680 -0.7333
  228MOL    N7532309   1.964   1.210   2.953 -0.8974 -0.6554  0.1179
  228MOL    H7632310   1.716   1.026   2.795 -0.4600 -0.9016 -1.1614
  228MOL    H7732311   1.783   0.893   2.703  0.0339 -0.5053  2.0201
  228MOL    H7832312   2.001   0.944   2.798 -0.9593  0.2642 -1.2369
  228MOL    C7932313   1.868   0.871   2.935  0.3608  0.2794 -0.3415
  228MOL    C8032314   1.964   0.845   3.057  0.2215  0.2701  0.5066
  228MOL    C8132315   1.903   0.748   3.140 -0.5619  0.9879  0.5574
  228MOL    N8232316   1.860   0.662   3.202 -0.0108  0.8526 -0.1948
  228MOL    H8332317   1.767   0.895   2.968  1.1555  3.8589 -0.3649
  228MOL    H8432318   1.851   0.773   2.890  3.9162 -1.4210  1.7851
  228MOL    H8532319   1.975   0.929   3.126  1.9066  0.3503  0.1509
  228MOL    C8632320   2.104   0.796   3.002  0.0405  0.5562  0.3891
  228MOL    C8732321   2.213   0.776   3.113 -0.1719  0.1455  0.1565
  228MOL    C8832322   2.183   0.650   3.189  0.2438 -0.7047 -0.2972
  228MOL    N8932323   2.156   0.551   3.248  0.1925  0.4736  0.6294
  228MOL    H9032324   2.099   0.703   2.946  1.1762  0.5712  0.2612
  228MOL    H9132325   2.149   0.869   2.935  1.1183  0.5043  1.0446
  228MOL    H9232326   2.213   0.857   3.187  2.4835  0.6679 -0.3523
  228MOL    C9332327   2.363   0.767   3.055 -0.5946 -0.5833 -0.1967
  228MOL    C9432328   2.461   0.821   3.160 -0.0607  0.6002 -0.6018
  228MOL    C9532329   2.468   0.761   3.297 -0.5460  0.1295  0.0613
  228MOL    N9632330   2.472   0.718   3.404  0.0590 -0.5210 -0.0913
  228MOL    H9732331   2.389   0.665   3.028  1.4377 -0.3277  0.6787
  228MOL    H9832332   2.370   0.831   2.966  1.2013  1.4048  1.3214
  228MOL    H9932333   2.435   0.926   3.176  1.3132  0.4609  3.0074
  228MOL   C10032334   2.604   0.856   3.103  0.1557 -0.3937 -0.5704
  228MOL   C10132335   2.718   0.753   3.115  0.7130 -0.4609  0.0859
  228MOL   C10232336   2.754   0.717   3.254 -0.3635  0.2644 -0.4621
  228MOL   N10332337   2.783   0.691   3.363 -0.3571 -0.0244 -0.7974
  228MOL   H10432338   2.593   0.894   3.002  0.5951  0.3925 -0.3247
  228MOL   H10532339   2.643   0.946   3.150  1.2969 -0.4311 -1.4304
  228MOL   H10632340   2.812   0.803   3.090  1.1623 -1.3858 -0.1094
  228MOL   C10732341   2.697   0.642   3.020 -0.1815  0.6619 -0.2545
  228MOL   C10832342   2.811   0.528   3.016 -0.3824 -0.4555 -0.4328
  228MOL   C10932343   2.793   0.426   3.124 -0.3693 -0.5669 -0.4405
  228MOL   N11032344   2.787   0.344   3.209  0.0915 -0.4362 -0.3938
  228MOL   H11132345   2.605   0.586   3.037 -1.1045  2.0418 -0.6364
  228MOL   H11232346   2.673   0.682   2.922  2.3561  1.5409 -0.5552
  228MOL   H11332347   2.902   0.582   3.040 -1.0355  0.3635  0.2323
  228MOL   C11432348   2.813   0.464   2.873 -0.5523  0.2709 -0.3132
  228MOL   C11532349   2.960   0.438   2.826 -0.5233  0.7986 -0.0758
  228MOL   C11632350   3.017   0.324   2.901  0.1388  1.1713 -0.2867
  228MOL   N11732351   3.059   0.236   2.961  0.1120  0.1674 -0.0522
  228MOL   H11832352   2.750   0.375   2.865 -1.1022  0.3807  2.3292
  228MOL   H11932353   2.773   0.534   2.800  2.2902  1.5889 -0.6864
  228MOL   H12032354   3.014   0.525   2.863 -1.5205  0.8708  1.2690
  228MOL   C12132355   2.976   0.417   2.679 -0.2835  0.3136  0.5023
  228MOL   C12232356   3.112   0.428   2.618  0.9872  0.6276  0.3920
  228MOL   C12332357   3.101   0.434   2.468 -0.1391 -0.1881  0.2279
  228MOL   N12432358   3.091   0.441   2.352  0.2771 -0.7682 -0.5679
  228MOL   H12532359   2.945   0.314   2.661  0.0905 -0.3121  3.3077
  228MOL   H12632360   2.907   0.483   2.626 -0.8343 -1.0651 -0.5300
  228MOL   H12732361   3.163   0.332   2.614  0.3809  0.3594 -1.6862
  228MOL   C12832362   3.208   0.528   2.692  0.3150 -0.5805  0.5431
  228MOL   C12932363   3.354   0.540   2.627  1.0873  0.8175 -0.0359
  228MOL   C13032364   3.418   0.401   2.627  0.4432  0.2679 -0.4852
  228MOL   N13132365   3.474   0.298   2.630  0.3598 -0.1542  0.1632
  228MOL   H13232366   3.150   0.620   2.701 -1.3273 -1.5886  0.6474
  228MOL   H13332367   3.223   0.478   2.787 -1.6648 -2.0859  0.1218
  228MOL   H13432368   3.412   0.588   2.706 -2.4601 -0.5397  3.5663
  228MOL   C13532369   3.360   0.617   2.493 -0.0747  0.3149  0.2580
  228MOL   C13632370   3.485   0.695   2.478 -1.1049  0.1717  0.3303
  228MOL   C13732371   3.492   0.806   2.572 -0.1614  0.1108  0.5629
  228MOL   N13832372   3.499   0.901   2.634  0.6277 -0.2984  0.0962
  228MOL   H13932373   3.344   0.543   2.415  2.5335  0.8226 -0.8139
  228MOL   H14032374   3.277   0.687   2.497  0.6502  1.1078  1.6172
  228MOL   H14132375   3.482   0.763   2.393 -2.4472 -1.4204 -0.9415
  228MOL   H14232376   3.571   0.628   2.470 -0.3980  0.9131  1.6332
  229MOL     C132377   2.704   6.730   4.492  0.0756 -0.0273 -0.6674
  229MOL     C232378   2.586   6.820   4.443 -0.4048 -0.8839  0.3435
  229MOL     C332379   2.466   6.787   4.517  0.2608  0.1307 -0.7577
  229MOL     N432380   2.367   6.763   4.576 -0.6162  0.0512 -0.1314
  229MOL     H532381   2.799   6.759   4.447 -0.9272  0.4553 -2.5200
  229MOL     H632382   2.686   6.624   4.479 -1.4512  0.0765  0.4444
  229MOL     H732383   2.563   6.790   4.340  0.7696  1.8531 -0.7848
  229MOL     H832384   2.717   6.753   4.598 -0.3122 -1.9672 -0.1970
  229MOL     C932385   2.625   6.965   4.461 -0.2862  0.4476  0.4620
  229MOL    C1032386   2.532   7.085   4.453  0.2925  0.5534  0.4108
  229MOL    C1132387   2.434   7.089   4.558 -0.0936  0.4844 -0.2105
  229MOL    N1232388   2.365   7.096   4.646 -0.0212 -0.2700 -0.0015
  229MOL    H1332389   2.662   6.979   4.562  1.7980 -1.4810  0.0071
  229MOL    H1432390   2.705   6.978   4.388 -1.2588 -0.9822 -0.8973
  229MOL    H1532391   2.468   7.077   4.365  2.8083  0.0709 -1.4233
  229MOL    C1632392   2.602   7.220   4.451 -0.6124  0.9308  0.2377
  229MOL    C1732393   2.507   7.341   4.459  0.1833  0.0191  1.2099
  229MOL    C1832394   2.584   7.460   4.487 -0.2279 -0.1256 -0.1839
  229MOL    N1932395   2.640   7.559   4.503  0.3490  1.1218  1.1784
  229MOL    H2032396   2.664   7.222   4.541 -0.1091  0.6302 -0.0943
  229MOL    H2132397   2.677   7.224   4.372 -0.8007  2.0301  0.1139
  229MOL    H2232398   2.431   7.338   4.536  0.8663 -2.0641  1.8437
  229MOL    C2332399   2.418   7.349   4.335 -0.7716  0.9567  0.3711
  229MOL    C2432400   2.287   7.436   4.354  0.5080  0.5475  0.2805
  229MOL    C2532401   2.305   7.566   4.425  0.4760  0.0362 -0.4568
  229MOL    N2632402   2.312   7.673   4.473 -0.3097 -0.7256 -0.1394
  229MOL    H2732403   2.475   7.406   4.261  0.2183 -1.7908 -1.0463
  229MOL    H2832404   2.399   7.252   4.289 -2.2308  1.6438 -0.5064
  229MOL    H2932405   2.214   7.375   4.408  0.0599  0.5971 -0.2763
  229MOL    C3032406   2.227   7.461   4.224 -0.3013  0.2268 -0.1379
  229MOL    C3132407   2.085   7.514   4.227 -0.2639  0.2270 -0.2926
  229MOL    C3232408   1.990   7.452   4.317  0.0362 -0.4196 -0.5954
  229MOL    N3332409   1.913   7.405   4.389 -0.4627 -0.0981 -0.4862
  229MOL    H3432410   2.298   7.523   4.169 -1.9697  0.9957 -1.4835
  229MOL    H3532411   2.222   7.361   4.182  1.9260 -0.2728  0.7484
  229MOL    H3632412   2.039   7.480   4.134 -1.0089  0.4689 -0.0091
  229MOL    C3732413   2.092   7.666   4.220  0.3410  0.3564  0.3788
  229MOL    C3832414   1.957   7.728   4.167  0.4128 -0.1000 -0.0526
  229MOL    C3932415   1.861   7.727   4.275 -0.4265 -0.3505 -0.6196
  229MOL    N4032416   1.783   7.722   4.363  0.4718  0.1880  0.1675
  229MOL    H4132417   2.098   7.715   4.318  0.3126  0.2059  0.4552
  229MOL    H4232418   2.177   7.702   4.163 -0.7432 -1.9554 -2.8070
  229MOL    H4332419   1.922   7.660   4.089 -0.6882  0.7678 -0.3146
  229MOL    C4432420   1.960   7.866   4.102  0.0527  1.2551  0.9510
  229MOL    C4532421   2.026   7.872   3.966 -0.8762 -0.0566 -0.4270
  229MOL    C4632422   1.943   7.785   3.874  0.5487  0.3704  0.8954
  229MOL    N4732423   1.877   7.724   3.799 -0.5485  0.0216  0.6025
  229MOL    H4832424   1.859   7.906   4.096  0.6431  2.3622 -2.5633
  229MOL    H4932425   2.017   7.929   4.171  1.0197  2.0348 -0.5342
  229MOL    H5032426   2.126   7.828   3.963  0.1734  2.3529 -2.8892
  229MOL    C5132427   2.048   8.019   3.921 -0.5286 -0.5500  0.8364
  229MOL    C5232428   2.152   8.035   3.808 -0.0668  0.5993  0.0891
  229MOL    C5332429   2.125   7.935   3.708  0.1256 -0.0134  0.0494
  229MOL    N5432430   2.102   7.851   3.625 -0.6094  1.5646 -0.2278
  229MOL    H5532431   1.948   8.056   3.899  0.0301  0.3969 -0.1383
  229MOL    H5632432   2.070   8.086   4.004  0.1498  1.0502 -0.5966
  229MOL    H5732433   2.253   8.007   3.838  0.7073  2.1489 -1.0038
  229MOL    C5832434   2.165   8.176   3.755 -0.3710 -0.2432 -0.3057
  229MOL    C5932435   2.167   8.286   3.861  0.2468 -0.3510  0.7391
  229MOL    C6032436   2.274   8.270   3.964 -0.1051 -0.3378  0.5753
  229MOL    N6132437   2.361   8.262   4.035  0.7661  0.1704 -0.3083
  229MOL    H6232438   2.251   8.191   3.690 -1.0171 -2.6636 -1.7446
  229MOL    H6332439   2.078   8.191   3.690 -0.1599  3.1864  0.0868
  229MOL    H6432440   2.077   8.297   3.921  0.8546  0.7669  1.4554
  229MOL    C6532441   2.183   0.115   3.807  0.2164  0.7336  0.0327
  229MOL    C6632442   2.082   0.165   3.702 -0.2499  0.0658 -0.1459
  229MOL    C6732443   2.117   0.106   3.570  0.2640  0.1501  0.0134
  229MOL    N6832444   2.147   0.065   3.467  0.2823  0.4214  0.0034
  229MOL    H6932445   2.182   0.183   3.892 -0.8811  1.2512 -0.3901
  229MOL    H7032446   2.286   0.118   3.772 -0.4212  1.4134 -1.8078
  229MOL    H7132447   2.101   0.272   3.697 -0.4119  0.1352  0.7169
  229MOL    C7232448   1.931   0.151   3.742  0.5229 -0.4734  0.1184
  229MOL    C7332449   1.840   0.138   3.621  0.4980  0.1389 -0.7291
  229MOL    C7432450   1.705   0.099   3.670 -0.2799  0.3490  0.5080
  229MOL    N7532451   1.598   0.076   3.701 -0.0141  0.3115 -0.0020
  229MOL    H7632452   1.924   0.056   3.794 -0.8366  0.0767  0.9743
  229MOL    H7732453   1.900   0.233   3.806 -0.2556 -0.2380 -0.5491
  229MOL    H7832454   1.882   0.060   3.558  2.7319  0.6724  0.0820
  229MOL    C7932455   1.841   0.260   3.533  0.8108 -0.0903 -0.2201
  229MOL    C8032456   1.803   0.233   3.387 -0.5144 -0.0605 -0.6298
  229MOL    C8132457   1.672   0.284   3.357  1.0289  0.1826 -0.4795
  229MOL    N8232458   1.570   0.338   3.346  0.3902  0.8380  0.4000
  229MOL    H8332459   1.775   0.339   3.571 -1.1524 -1.2690 -1.1139
  229MOL    H8432460   1.945   0.290   3.544  1.2233 -1.4285 -0.4029
  229MOL    H8532461   1.796   0.125   3.369  2.2470 -0.6430  1.3992
  229MOL    C8632462   1.906   0.298   3.293  0.4145  0.0882  0.4663
  229MOL    C8732463   1.922   0.227   3.157 -0.1942  0.5942 -0.0901
  229MOL    C8832464   1.979   0.089   3.163 -0.1999  0.2077 -0.2987
  229MOL    N8932465   2.025   8.296   3.165  0.6476  0.3630 -0.6879
  229MOL    H9032466   1.868   0.398   3.272 -0.0353  0.3559  2.4564
  229MOL    H9132467   2.004   0.323   3.333 -0.2110  2.9224  0.3485
  229MOL    H9232468   1.996   0.291   3.109  0.2457 -0.0412 -0.2746
  229MOL    C9332469   1.789   0.221   3.076  0.2682 -0.7373 -0.3908
  229MOL    C9432470   1.739   0.363   3.025  0.3196 -0.1480  0.2351
  229MOL    C9532471   1.842   0.431   2.942 -0.6239  0.6083 -0.4855
  229MOL    N9632472   1.920   0.488   2.878 -0.0907 -0.2965 -0.1344
  229MOL    H9732473   1.813   0.152   2.994 -0.2049 -2.3399  0.7936
  229MOL    H9832474   1.719   0.158   3.131 -0.5954  0.0755 -0.5481
  229MOL    H9932475   1.720   0.426   3.112  0.9427  0.5387 -0.1279
  229MOL   C10032476   1.601   0.344   2.958 -0.1142 -0.2686  0.6787
  229MOL   C10132477   1.532   0.490   2.943 -0.1142 -0.8569  0.3283
  229MOL   C10232478   1.411   0.466   2.864  0.2080  0.1737 -0.7618
  229MOL   N10332479   1.310   0.447   2.798  0.1062 -0.4612  0.1903
  229MOL   H10432480   1.606   0.294   2.861  0.6819 -0.6116  0.8904
  229MOL   H10532481   1.536   0.282   3.019  1.4461 -1.3532  1.2633
  229MOL   H10632482   1.588   0.549   2.870 -0.9868  1.6376  1.6239
  229MOL   C10732483   1.516   0.586   3.070 -0.7562  0.2081  0.0262
  229MOL   C10832484   1.377   0.647   3.083  0.1238 -0.1650 -0.6546
  229MOL   C10932485   1.285   0.555   3.152 -0.4143 -0.5134 -0.3228
  229MOL   N11032486   1.214   0.479   3.196  0.6246  0.3978  0.1828
  229MOL   H11132487   1.526   0.524   3.159 -1.0063 -0.0035 -0.0915
  229MOL   H11232488   1.601   0.653   3.080 -1.5210  1.4704 -1.6863
  229MOL   H11332489   1.321   0.667   2.992  1.3530  1.3034 -1.1067
  229MOL   C11432490   1.377   0.785   3.151  0.4375 -0.0839 -0.4429
  229MOL   C11532491   1.402   0.912   3.067  0.0012 -0.6696 -0.7006
  229MOL   C11632492   1.437   0.876   2.929 -0.1982 -0.3359  1.0123
  229MOL   N11732493   1.463   0.849   2.822 -0.7635  0.0007  0.6483
  229MOL   H11832494   1.281   0.800   3.202  1.0565 -0.2338  0.7726
  229MOL   H11932495   1.441   0.782   3.240 -2.5590  0.1501  1.8208
  229MOL   H12032496   1.492   0.962   3.103 -0.3895  0.1671 -0.8966
  229MOL   C12132497   1.293   1.016   3.074  0.7000  0.2565 -0.0977
  229MOL   C12232498   1.169   0.995   2.979  0.2448 -0.1784 -0.0940
  229MOL   C12332499   1.112   0.858   2.999  0.3062  0.5404 -0.4199
  229MOL   N12432500   1.069   0.751   3.018  0.0876  0.3362  0.3098
  229MOL   H12532501   1.234   1.009   3.166 -1.0796 -0.1814 -1.2410
  229MOL   H12632502   1.318   1.121   3.085  0.6642  0.1597  1.0132
  229MOL   H12732503   1.206   1.008   2.877 -1.3868  1.2933 -0.5436
  229MOL   C12832504   1.067   1.107   2.984 -0.6220  0.1308  0.2560
  229MOL   C12932505   0.977   1.104   2.855  0.6795  0.7047 -0.2628
  229MOL   C13032506   0.871   1.004   2.856  0.3946 -0.6948  0.4864
  229MOL   N13132507   0.784   0.926   2.864  0.1678 -0.3506  0.1138
  229MOL   H13232508   0.996   1.072   3.058 -0.4528  1.8964  1.2791
  229MOL   H13332509   1.116   1.201   3.010 -0.5790 -0.3091  1.8137
  229MOL   H13432510   1.034   1.090   2.764 -0.9499  1.2385 -1.3782
  229MOL   C13532511   0.918   1.243   2.831 -0.7509 -0.5138 -0.1610
  229MOL   C13632512   0.817   1.259   2.723 -0.1007 -0.0542 -0.3503
  229MOL   C13732513   0.679   1.238   2.756  0.1834 -0.0610 -0.4939
  229MOL   N13832514   0.567   1.222   2.780  0.0457  0.1528  0.1431
  229MOL   H13932515   0.874   1.274   2.926 -1.4531  2.0928 -1.3207
  229MOL   H14032516   0.991   1.314   2.793  0.3192 -0.8056  1.2974
  229MOL   H14132517   0.852   1.196   2.641  1.5436  0.4261 -0.0310
  229MOL   H14232518   0.823   1.356   2.675  2.2220 -0.6898 -1.3864
  230MOL     C132519   7.159   1.803   4.386  0.3221 -0.1774  0.0976
  230MOL     C232520   7.081   1.805   4.517  0.7345 -0.0652  0.1372
  230MOL     C332521   7.000   1.931   4.529 -0.9668  0.9707 -0.4291
  230MOL     N432522   6.933   2.026   4.543 -0.1376 -0.1033  0.1338
  230MOL     H532523   7.220   1.892   4.373 -0.7736  0.7210  1.0570
  230MOL     H632524   7.099   1.802   4.295  0.0372  0.6196  0.2809
  230MOL     H732525   7.156   1.818   4.595 -1.2210 -2.0841  2.4725
  230MOL     H832526   7.227   1.717   4.385  0.5551  0.0085 -1.1818
  230MOL     C932527   6.991   1.681   4.551 -0.9704 -0.6656  0.5303
  230MOL    C1032528   6.864   1.654   4.462 -0.2545 -0.0167  0.5726
  230MOL    C1132529   6.909   1.618   4.329 -0.1077  0.7446 -0.1817
  230MOL    N1232530   6.949   1.593   4.224 -0.4274 -0.3345 -0.0850
  230MOL    H1332531   7.061   1.597   4.551 -0.4652 -0.2465  0.0360
  230MOL    H1432532   6.963   1.695   4.655  1.9037 -1.6866  1.4778
  230MOL    H1532533   6.801   1.742   4.459 -2.3260 -1.4884 -0.8547
  230MOL    C1632534   6.780   1.545   4.534 -0.0453 -0.2650  0.4038
  230MOL    C1732535   6.693   1.462   4.445 -0.5272 -0.9581  0.1483
  230MOL    C1832536   6.614   1.371   4.535 -0.0523 -0.3419 -0.1232
  230MOL    N1932537   6.552   1.301   4.605 -0.3725  0.1591  0.4480
  230MOL    H2032538   6.846   1.482   4.595 -0.8238  1.1049  2.7291
  230MOL    H2132539   6.713   1.590   4.607  0.7527 -1.3216  1.8210
  230MOL    H2232540   6.762   1.401   4.387 -0.2674 -1.7512  1.2588
  230MOL    C2332541   6.595   1.543   4.348 -0.1753  0.6456 -0.8706
  230MOL    C2432542   6.535   1.453   4.255  0.2129  0.6806 -0.0562
  230MOL    C2532543   6.420   1.387   4.314  0.1145  0.4944 -0.1465
  230MOL    N2632544   6.323   1.334   4.359  0.1665  0.3047 -0.0352
  230MOL    H2732545   6.514   1.593   4.401 -0.5152  0.3837 -1.1492
  230MOL    H2832546   6.651   1.624   4.300 -1.4326  1.5802 -0.8066
  230MOL    H2932547   6.594   1.372   4.212 -0.7592 -0.2072  0.2822
  230MOL    C3032548   6.492   1.544   4.131 -0.3121  0.6057 -0.2956
  230MOL    C3132549   6.602   1.581   4.021 -0.3168  0.0377  0.2783
  230MOL    C3232550   6.676   1.459   3.977  0.0238 -0.0160 -0.2330
  230MOL    N3332551   6.727   1.360   3.941 -0.3338  0.0466  0.7183
  230MOL    H3432552   6.407   1.495   4.082 -0.6424  0.7656  0.1192
  230MOL    H3532553   6.438   1.634   4.162  0.7758  2.0513 -2.5010
  230MOL    H3632554   6.675   1.648   4.067  0.6454 -0.6758 -0.1822
  230MOL    C3732555   6.536   1.661   3.903  0.1302  0.3745 -0.4283
  230MOL    C3832556   6.620   1.790   3.866 -0.1646 -0.0123 -0.2505
  230MOL    C3932557   6.762   1.780   3.864 -0.4425  0.5597 -0.2232
  230MOL    N4032558   6.877   1.772   3.871 -0.7527 -0.0595 -0.0000
  230MOL    H4132559   6.537   1.605   3.809  3.3162 -1.3925  0.5605
  230MOL    H4232560   6.431   1.674   3.926 -0.3053 -1.2870 -1.3832
  230MOL    H4332561   6.598   1.869   3.937 -0.7953 -0.4661  0.0642
  230MOL    C4432562   6.561   1.858   3.735 -0.9524 -0.6366  0.4126
  230MOL    C4532563   6.604   2.009   3.732 -0.4473 -0.2822  0.3987
  230MOL    C4632564   6.727   2.024   3.654 -0.5922  0.3027  0.2274
  230MOL    N4732565   6.828   2.037   3.601  0.7179 -0.6798  0.2345
  230MOL    H4832566   6.597   1.806   3.647  0.2040  0.1801  0.3841
  230MOL    H4932567   6.454   1.847   3.719 -1.0606  1.3612 -0.4433
  230MOL    H5032568   6.637   2.040   3.832 -2.3850 -2.0374  1.6121
  230MOL    C5132569   6.504   2.112   3.667 -0.3998 -0.4091  0.4139
  230MOL    C5232570   6.526   2.272   3.698 -0.1142 -0.1330  0.3764
  230MOL    C5332571   6.598   2.296   3.823  0.1304  0.3697  0.0782
  230MOL    N5432572   6.653   2.326   3.922 -0.0857  0.3196 -0.2709
  230MOL    H5532573   6.479   2.094   3.562 -1.1866 -0.2463  0.5668
  230MOL    H5632574   6.409   2.079   3.709 -0.8348 -0.0625 -0.2882
  230MOL    H5732575   6.431   2.325   3.703  1.2026  2.3692 -0.0574
  230MOL    C5832576   6.613   2.352   3.602 -0.2905 -0.1234  0.5693
  230MOL    C5932577   6.557   2.366   3.463 -0.6651  0.9271 -0.0505
  230MOL    C6032578   6.428   2.432   3.461  0.2102  0.1510 -0.1863
  230MOL    N6132579   6.322   2.480   3.459  0.0274  0.0518 -0.0288
  230MOL    H6232580   6.633   2.454   3.635  1.3902 -0.5372  0.8644
  230MOL    H6332581   6.713   2.308   3.606 -0.6325 -1.2037 -1.9143
  230MOL    H6432582   6.540   2.266   3.421 -2.4805  1.5165 -0.7785
  230MOL    C6532583   6.661   2.433   3.364  0.1690  0.3282 -0.0993
  230MOL    C6632584   6.780   2.341   3.334  0.7031 -0.2762  0.5662
  230MOL    C6732585   6.728   2.210   3.300 -0.1900 -0.3191  0.2659
  230MOL    N6832586   6.685   2.106   3.281 -0.5031  0.7314  0.3302
  230MOL    H6932587   6.627   2.455   3.263  2.1518 -2.1698 -1.3636
  230MOL    H7032588   6.694   2.526   3.411 -0.3134  0.7886 -0.6544
  230MOL    H7132589   6.855   2.335   3.412  1.9577 -0.3701 -0.6364
  230MOL    C7232590   6.859   2.406   3.221 -0.6342  0.6663  0.2427
  230MOL    C7332591   6.996   2.335   3.179 -0.2083 -0.1103  0.5356
  230MOL    C7432592   6.977   2.200   3.120  0.0770 -0.2060  0.0150
  230MOL    N7532593   6.963   2.095   3.070  0.3827  0.0747  0.4776
  230MOL    H7632594   6.800   2.422   3.131  2.7851 -1.7140 -2.5798
  230MOL    H7732595   6.884   2.505   3.258  1.5948  0.3809 -0.4022
  230MOL    H7832596   7.055   2.325   3.270  0.5546  0.8631  0.1447
  230MOL    C7932597   7.077   2.417   3.071  0.3331  0.2955  0.0388
  230MOL    C8032598   7.205   2.357   3.013  0.1890 -1.0293 -0.0360
  230MOL    C8132599   7.166   2.268   2.909 -0.3199  0.1260 -0.2425
  230MOL    N8232600   7.145   2.195   2.824  0.4254  0.0969 -0.1511
  230MOL    H8332601   7.006   2.446   2.993 -0.1583 -0.8339  0.0536
  230MOL    H8432602   7.104   2.513   3.115 -2.7466  1.1349  0.2244
  230MOL    H8532603   7.257   2.299   3.089  1.2671  0.8424  0.6869
  230MOL    C8632604   7.312   2.459   2.954  0.4263  0.2775  0.0476
  230MOL    C8732605   7.413   2.519   3.045 -0.7029  0.2915  0.0432
  230MOL    C8832606   7.352   2.603   3.146  0.0935 -0.3132 -0.9640
  230MOL    N8932607   7.300   2.672   3.223  0.4692 -0.1532  0.3174
  230MOL    H9032608   7.370   2.414   2.873  0.1945  0.5615 -0.2730
  230MOL    H9132609   7.251   2.537   2.910 -0.4660 -0.5669 -0.2452
  230MOL    H9232610   7.461   2.595   2.984 -1.5115  1.6058  1.0197
  230MOL    C9332611   7.517   2.411   3.092 -0.5775  0.1082 -0.1655
  230MOL    C9432612   7.661   2.435   3.050 -0.0196 -0.0585  0.5537
  230MOL    C9532613   7.710   2.573   3.076 -0.2823 -0.1315  0.6678
  230MOL    N9632614   7.756   2.681   3.093 -0.2685  0.0154 -0.4950
  230MOL    H9732615   7.517   2.415   3.201 -0.4859 -3.7670  0.0218
  230MOL    H9832616   7.478   2.316   3.056 -2.1223  0.4849  0.4421
  230MOL    H9932617   7.652   2.425   2.942 -0.3890  0.7751  0.4981
  230MOL   C10032618   7.755   2.327   3.102 -0.3623 -0.1466 -0.1697
  230MOL   C10132619   7.901   2.327   3.043 -0.1627  0.1425 -0.5492
  230MOL   C10232620   7.988   2.249   3.136 -0.2404 -0.5581 -0.2934
  230MOL   N10332621   8.056   2.191   3.209 -0.2010  0.3997 -0.0783
  230MOL   H10432622   7.771   2.348   3.208  1.7280  0.9139 -0.6588
  230MOL   H10532623   7.711   2.228   3.092 -0.6177  0.0001 -0.4958
  230MOL   H10632624   7.939   2.429   3.037  0.9961 -0.1626  1.4303
  230MOL   C10732625   7.904   2.267   2.900 -0.2587 -0.7287 -0.5177
  230MOL   C10832626   8.044   2.264   2.827 -0.1192 -0.0291 -0.5809
  230MOL   C10932627   8.127   2.165   2.898 -0.5282  0.1551 -0.4715
  230MOL   N11032628   8.189   2.087   2.952 -0.4354  0.0350  0.0920
  230MOL   H11132629   7.868   2.165   2.898  0.3178 -0.9370 -0.2844
  230MOL   H11232630   7.832   2.331   2.849  0.4380  1.5685  1.2843
  230MOL   H11332631   8.098   2.359   2.826  0.7826 -0.4909  1.2466
  230MOL   C11432632   8.039   2.206   2.687  0.0405  0.3934  0.1915
  230MOL   C11532633   7.997   2.309   2.579 -0.4031  0.5153  0.0662
  230MOL   C11632634   8.090   2.329   2.468  0.6301  0.3749 -0.7851
  230MOL   N11732635   8.162   2.344   2.384 -0.2247 -0.3500  0.1223
  230MOL   H11832636   8.139   2.179   2.652 -1.0042 -4.1970  0.4836
  230MOL   H11932637   7.977   2.118   2.669  0.8842 -0.2921  0.5760
  230MOL   H12032638   7.995   2.409   2.622 -1.1733  1.1549 -1.4499
  230MOL   C12132639   7.855   2.286   2.528  0.2927  0.4370 -0.0323
  230MOL   C12232640   7.776   2.400   2.461  0.0689 -0.1335  0.0419
  230MOL   C12332641   7.848   2.528   2.452 -0.1990  0.4731 -0.0499
  230MOL   N12432642   7.903   2.630   2.449 -0.1610  0.0038 -0.9170
  230MOL   H12532643   7.854   2.190   2.477 -0.4270  1.4928 -2.0908
  230MOL   H12632644   7.805   2.254   2.619 -2.1916 -1.6999 -2.0602
  230MOL   H12732645   7.705   2.434   2.537 -0.6456 -2.1473  0.3260
  230MOL   C12832646   7.702   2.356   2.336  0.5273  0.1160  0.2104
  230MOL   C12932647   7.608   2.239   2.342  0.0724 -0.3272  0.1208
  230MOL   C13032648   7.533   2.237   2.469  0.5513 -0.5637  0.5691
  230MOL   N13132649   7.474   2.235   2.569  0.2437 -0.3417  0.9476
  230MOL   H13232650   7.639   2.439   2.303 -0.2012 -0.5291 -0.0065
  230MOL   H13332651   7.781   2.350   2.260  0.1758  2.7680 -0.4338
  230MOL   H13432652   7.659   2.145   2.320  1.4843 -0.1762  2.5885
  230MOL   C13532653   7.520   2.253   2.215 -0.2085  0.4799  0.1307
  230MOL   C13632654   7.433   2.124   2.195 -0.6534 -0.3997 -0.8477
  230MOL   C13732655   7.514   2.025   2.134 -0.0975 -0.4798  0.3409
  230MOL   N13832656   7.585   1.941   2.094 -0.1875 -0.6149  0.2753
  230MOL   H13932657   7.451   2.335   2.238  1.5197  1.8666  0.4775
  230MOL   H14032658   7.578   2.276   2.126 -0.5589 -0.5132 -0.3573
  230MOL   H14132659   7.355   2.136   2.120  1.2746 -0.5375 -2.9189
  230MOL   H14232660   7.392   2.078   2.285  1.6876 -1.0289 -0.0706
  231MOL     C132661   2.688   1.312   5.419 -0.0719  0.4069  1.0954
  231MOL     C232662   2.774   1.197   5.483  0.4495  0.7070  0.6222
  231MOL     C332663   2.770   1.076   5.397 -0.7419 -0.5703  0.5411
  231MOL     N432664   2.763   0.981   5.332 -0.5671 -0.3741  0.3044
  231MOL     H532665   2.596   1.275   5.373  0.8300  1.7709 -1.9671
  231MOL     H632666   2.741   1.370   5.344 -0.6627 -0.1300  0.2519
  231MOL     H732667   2.721   1.154   5.569  0.1048 -0.9539 -0.4094
  231MOL     H832668   2.659   1.386   5.493  0.2984  0.8298  0.8189
  231MOL     C932669   2.917   1.250   5.508 -0.4499  0.6386  0.0437
  231MOL    C1032670   3.010   1.170   5.602  0.2352  0.1439  0.2654
  231MOL    C1132671   3.039   1.031   5.568 -1.2043 -0.2681 -0.4178
  231MOL    N1232672   3.060   0.923   5.531 -0.2339 -0.0661 -0.5049
  231MOL    H1332673   2.971   1.248   5.413 -1.0746 -0.0437 -0.2969
  231MOL    H1432674   2.898   1.355   5.533 -0.9958  0.1023  1.9361
  231MOL    H1532675   2.953   1.163   5.695  1.6651 -1.2346  1.0687
  231MOL    C1632676   3.145   1.241   5.652  0.2097 -0.3427  0.6091
  231MOL    C1732677   3.259   1.150   5.714  0.5348 -0.1304 -0.1703
  231MOL    C1832678   3.335   1.073   5.609  0.1574 -0.6503 -0.3316
  231MOL    N1932679   3.400   1.017   5.534 -0.8561  0.1123  0.1445
  231MOL    H2032680   3.178   1.298   5.566 -1.4259 -0.2442  0.0377
  231MOL    H2132681   3.112   1.319   5.721  2.2891  0.9460  0.1806
  231MOL    H2232682   3.218   1.073   5.779 -0.5421  1.1457  0.6841
  231MOL    C2332683   3.373   1.225   5.796  0.3115 -0.0178 -0.3977
  231MOL    C2432684   3.319   1.282   5.934 -0.5496  0.1500 -0.3559
  231MOL    C2532685   3.192   1.229   5.985  0.1873 -0.4571  0.3831
  231MOL    N2632686   3.092   1.186   6.023  0.3813 -0.3237  1.1279
  231MOL    H2732687   3.460   1.162   5.815  1.1428  0.5288 -2.2170
  231MOL    H2832688   3.413   1.312   5.744 -1.9259  1.4344  0.2669
  231MOL    H2932689   3.302   1.386   5.908  1.2878  0.3490 -0.8616
  231MOL    C3032690   3.431   1.276   6.047  0.1408  0.3355 -0.4398
  231MOL    C3132691   3.482   1.134   6.065 -0.0851 -0.2349  0.1709
  231MOL    C3232692   3.623   1.110   6.013  0.9781 -0.1505 -1.0484
  231MOL    N3332693   3.725   1.093   5.964  0.5289 -0.1241 -0.1009
  231MOL    H3432694   3.518   1.334   6.016  0.7912  1.2556  2.9037
  231MOL    H3532695   3.406   1.324   6.142 -1.7501  0.9728 -1.2315
  231MOL    H3632696   3.417   1.067   6.009 -0.1636  0.2044 -0.2716
  231MOL    C3732697   3.472   1.096   6.215 -0.2598 -0.4279  0.1570
  231MOL    C3832698   3.563   1.172   6.312 -0.3953  0.3608  0.2714
  231MOL    C3932699   3.485   1.214   6.431 -0.3622  0.3201 -0.0268
  231MOL    N4032700   3.425   1.238   6.527 -0.3085 -0.1850 -0.3526
  231MOL    H4132701   3.368   1.112   6.246 -0.3499  2.5469 -1.5178
  231MOL    H4232702   3.484   0.989   6.234 -1.8737 -1.1646 -2.6116
  231MOL    H4332703   3.603   1.267   6.274 -1.1818 -0.2726 -2.1692
  231MOL    C4432704   3.684   1.089   6.359  0.5275  0.2312 -0.2818
  231MOL    C4532705   3.813   1.161   6.419 -0.1727  0.2644  0.2211
  231MOL    C4632706   3.874   1.254   6.321 -0.1504  0.3475 -0.2941
  231MOL    N4732707   3.936   1.326   6.250 -0.0041 -0.6778 -0.4055
  231MOL    H4832708   3.652   1.010   6.426  0.6767  0.3871 -0.0294
  231MOL    H4932709   3.719   1.028   6.276 -2.7889 -1.0680 -0.7866
  231MOL    H5032710   3.890   1.086   6.438  0.2639  0.5357 -0.4165
  231MOL    C5132711   3.785   1.236   6.550 -0.4125  0.8665 -0.6127
  231MOL    C5232712   3.756   1.141   6.670  0.5109 -0.5281 -0.2409
  231MOL    C5332713   3.872   1.061   6.715  0.4809  0.5869 -0.2173
  231MOL    N5432714   3.961   0.993   6.751  0.1223 -0.0493 -0.1302
  231MOL    H5532715   3.865   1.304   6.579  0.3697 -0.1464 -0.3755
  231MOL    H5632716   3.693   1.296   6.548 -1.6897 -0.9951  0.5087
  231MOL    H5732717   3.682   1.066   6.642 -0.0800  0.3959 -1.1776
  231MOL    C5832718   3.685   1.212   6.786 -0.4232  0.3481  0.0994
  231MOL    C5932719   3.771   1.314   6.874 -0.5864 -0.0460 -0.3060
  231MOL    C6032720   3.795   1.430   6.790  0.3756 -0.0802  0.1465
  231MOL    N6132721   3.806   1.529   6.733 -0.5049  0.0917  0.1373
  231MOL    H6232722   3.587   1.252   6.761  0.1313 -0.0134 -2.8380
  231MOL    H6332723   3.659   1.130   6.852  0.9774 -1.8337 -1.9628
  231MOL    H6432724   3.873   1.279   6.891 -0.1603  0.3107 -1.9958
  231MOL    C6532725   3.699   1.353   7.011 -0.4242  0.0377  0.1999
  231MOL    C6632726   3.715   1.243   7.121  0.1307 -0.3811 -0.3378
  231MOL    C6732727   3.834   1.166   7.129 -0.2257  0.2706 -0.1118
  231MOL    N6832728   3.932   1.102   7.141  0.1052 -0.0870 -0.2279
  231MOL    H6932729   3.747   1.445   7.043  2.1240 -0.7890 -1.1347
  231MOL    H7032730   3.596   1.381   6.988  0.1368  1.5136 -0.5717
  231MOL    H7132731   3.658   1.155   7.093 -0.2814 -0.3209  0.2929
  231MOL    C7232732   3.649   1.281   7.253 -0.2713  0.3551 -0.2776
  231MOL    C7332733   3.497   1.287   7.231  0.4250 -0.1975 -0.1624
  231MOL    C7432734   3.445   1.151   7.180 -0.1498 -0.9084 -0.3019
  231MOL    N7532735   3.411   1.046   7.143  0.5737 -0.1938 -0.1539
  231MOL    H7632736   3.674   1.212   7.333  0.6850  1.2854  0.2275
  231MOL    H7732737   3.692   1.373   7.292  0.2661 -0.0271  0.0401
  231MOL    H7832738   3.478   1.365   7.157 -0.0058 -1.7964 -1.7951
  231MOL    C7932739   3.412   1.326   7.355 -0.4695  0.7530 -0.2638
  231MOL    C8032740   3.265   1.368   7.334 -0.3490 -0.2987  0.4628
  231MOL    C8132741   3.194   1.291   7.229  0.4832 -0.0061 -0.1240
  231MOL    N8232742   3.137   1.236   7.147 -0.4328  0.4312  0.6143
  231MOL    H8332743   3.426   1.256   7.438 -1.7442  1.6320  0.7150
  231MOL    H8432744   3.469   1.411   7.393 -0.9517  1.3081 -0.7739
  231MOL    H8532745   3.264   1.463   7.281  0.5312 -0.3986  0.2615
  231MOL    C8632746   3.187   1.388   7.467 -0.5301 -0.2537  0.3767
  231MOL    C8732747   3.041   1.419   7.440  0.4157 -0.4002 -0.4341
  231MOL    C8832748   2.969   1.411   7.567 -0.4954 -0.1113  0.1032
  231MOL    N8932749   2.909   1.397   7.667 -0.2449 -0.3755 -0.8351
  231MOL    H9032750   3.196   1.294   7.522 -0.7157 -1.4174 -1.5377
  231MOL    H9132751   3.236   1.461   7.531 -0.4849 -0.1244  0.1940
  231MOL    H9232752   3.007   1.338   7.376  0.4181 -1.5880  1.0586
  231MOL    C9332753   3.017   1.553   7.372  0.2483  0.1465  0.5432
  231MOL    C9432754   2.960   1.664   7.461 -0.0197 -0.3132  0.5847
  231MOL    C9532755   3.062   1.703   7.552  0.0159  0.0248  0.3283
  231MOL    N9632756   3.141   1.736   7.625  0.6298 -0.2068 -0.1506
  231MOL    H9732757   3.114   1.594   7.343 -0.0738 -0.5202 -1.5594
  231MOL    H9832758   2.964   1.541   7.277  0.6931 -0.9139  0.4244
  231MOL    H9932759   2.876   1.624   7.519 -1.5368  1.1478 -0.5793
  231MOL   C10032760   2.913   1.788   7.387 -0.4786 -0.2060  0.0785
  231MOL   C10132761   2.768   1.768   7.335  0.6330 -0.5864  0.0426
  231MOL   C10232762   2.680   1.768   7.456 -0.4908  0.4163  0.7399
  231MOL   N10332763   2.608   1.768   7.548  0.2188 -0.0054  0.3695
  231MOL   H10432764   2.932   1.877   7.447  2.1915  0.1570 -1.2543
  231MOL   H10532765   2.982   1.786   7.302  1.6697  0.9209  1.7407
  231MOL   H10632766   2.746   1.666   7.305 -2.4741 -0.9844  3.3741
  231MOL   C10732767   2.716   1.874   7.236 -0.2000  0.9954  0.9776
  231MOL   C10832768   2.744   1.830   7.095  0.0519 -0.9484  0.1466
  231MOL   C10932769   2.887   1.796   7.068  0.0933 -0.3410 -0.4283
  231MOL   N11032770   2.998   1.772   7.052  0.0058  0.5674  0.3467
  231MOL   H11132771   2.607   1.882   7.241 -0.4383 -0.0414 -1.5691
  231MOL   H11232772   2.772   1.963   7.264  0.2194  0.4859  1.7683
  231MOL   H11332773   2.714   1.918   7.037 -0.0748 -0.9060  0.2773
  231MOL   C11432774   2.655   1.716   7.049 -0.3715 -0.0618  0.6778
  231MOL   C11532775   2.659   1.672   6.897 -0.4162 -0.0899  1.3201
  231MOL   C11632776   2.562   1.567   6.870 -1.5584  0.1564 -0.0125
  231MOL   N11732777   2.484   1.484   6.855  0.2425 -0.3565  0.1468
  231MOL   H11832778   2.667   1.629   7.113  1.4392  0.8978  1.6716
  231MOL   H11932779   2.550   1.739   7.067 -0.8311  0.8858 -2.9185
  231MOL   H12032780   2.761   1.644   6.870 -0.8514  1.3930 -2.2090
  231MOL   C12132781   2.619   1.795   6.809  0.0376  0.1286 -0.0136
  231MOL   C12232782   2.577   1.767   6.664 -0.6552 -1.1616  0.6278
  231MOL   C12332783   2.426   1.757   6.658 -0.4978 -0.1183 -0.3463
  231MOL   N12432784   2.310   1.740   6.655 -0.6617 -0.2355  0.2305
  231MOL   H12532785   2.552   1.867   6.855  0.8421  1.2005 -0.4984
  231MOL   H12632786   2.714   1.849   6.809  0.8920 -1.3176  2.3782
  231MOL   H12732787   2.619   1.671   6.635  1.0326  0.0813 -1.2040
  231MOL   C12832788   2.633   1.873   6.571  1.0743 -0.8829 -0.6797
  231MOL   C12932789   2.584   1.864   6.424  0.3524 -0.1501  0.3418
  231MOL   C13032790   2.573   1.721   6.383  0.1985 -0.1954  0.6892
  231MOL   N13132791   2.565   1.611   6.346 -0.4152  0.2353 -0.7246
  231MOL   H13232792   2.607   1.965   6.623 -0.0211 -1.7409  0.3110
  231MOL   H13332793   2.741   1.860   6.567  0.9238 -2.2885 -0.4354
  231MOL   H13432794   2.659   1.900   6.354  2.4803 -2.3989  1.3905
  231MOL   C13532795   2.463   1.950   6.407  0.3381 -0.2997 -0.8515
  231MOL   C13632796   2.372   1.928   6.294 -0.4721  0.3502 -0.1759
  231MOL   C13732797   2.285   2.044   6.288  0.0448 -0.4718  0.3186
  231MOL   N13832798   2.214   2.133   6.282  0.4994  0.4017  0.8712
  231MOL   H13932799   2.394   1.948   6.492  0.4163 -1.1141 -0.8088
  231MOL   H14032800   2.487   2.056   6.410  0.4197 -0.3438  0.9755
  231MOL   H14132801   2.307   1.842   6.310 -0.1272  0.2149  0.5123
  231MOL   H14232802   2.433   1.918   6.204  2.1580  0.6362  1.4995
  232MOL     C132803   2.696   7.537   0.087  0.1206 -0.5629  0.6255
  232MOL     C232804   2.684   7.533   8.248 -0.6048 -0.0343  0.3197
  232MOL     C332805   2.769   7.429   8.187  0.0221 -0.4525  0.0049
  232MOL     N432806   2.840   7.354   8.145  0.0212 -0.7278 -0.4329
  232MOL     H532807   2.701   7.437   0.129 -2.0893 -1.2325 -0.6614
  232MOL     H632808   2.618   7.593   0.139 -1.4179 -0.5606 -1.6307
  232MOL     H732809   2.730   7.621   8.204  1.4781 -1.0591  0.3809
  232MOL     H832810   2.783   7.599   0.112  1.7906 -1.7793 -1.9423
  232MOL     C932811   2.535   7.519   8.207 -0.3480  0.3014  0.0129
  232MOL    C1032812   2.493   7.370   8.182 -0.4198 -0.0348  0.0788
  232MOL    C1132813   2.524   7.286   8.295 -0.3982  1.1666  0.2731
  232MOL    N1232814   2.548   7.216   0.071  0.1100 -0.1296 -0.6403
  232MOL    H1332815   2.468   7.536   8.291 -0.0122 -0.3241  0.4070
  232MOL    H1432816   2.506   7.595   8.135 -1.6763  0.3145  0.5436
  232MOL    H1532817   2.554   7.332   8.101 -1.9244 -2.0016 -0.1746
  232MOL    C1632818   2.343   7.366   8.143  0.5348 -0.1688 -0.3654
  232MOL    C1732819   2.301   7.222   8.114  0.5674  0.1035 -0.3689
  232MOL    C1832820   2.150   7.210   8.108  0.0260  0.1105  0.1907
  232MOL    N1932821   2.036   7.203   8.103 -0.1903  0.0030  0.9337
  232MOL    H2032822   2.293   7.418   8.224  0.2301  0.8524 -1.2041
  232MOL    H2132823   2.337   7.424   8.052  3.2443  1.1993  0.2751
  232MOL    H2232824   2.338   7.149   8.187  0.3470  1.2479  0.9068
  232MOL    C2332825   2.338   7.177   7.972  0.4040  0.4195 -0.1217
  232MOL    C2432826   2.321   7.029   7.935  0.0640  0.3184  0.1378
  232MOL    C2532827   2.298   6.944   8.054 -0.1841  0.0390 -0.0064
  232MOL    N2632828   2.286   6.872   8.148 -0.3523  0.6889 -0.3054
  232MOL    H2732829   2.290   7.227   7.888  0.4220  0.3929 -0.1480
  232MOL    H2832830   2.444   7.201   7.963  0.5936  0.0729  1.0960
  232MOL    H2932831   2.419   7.008   7.894 -1.0068 -1.7613 -1.4370
  232MOL    C3032832   2.206   7.011   7.841  0.0286 -0.0453 -0.2406
  232MOL    C3132833   2.177   6.857   7.810 -0.3879  1.0883 -0.3908
  232MOL    C3232834   2.031   6.820   7.798  0.3206 -1.0651  0.2890
  232MOL    N3332835   1.921   6.784   7.781  0.1431 -0.0023 -0.3636
  232MOL    H3432836   2.113   7.053   7.880  0.2803  0.1821  0.1194
  232MOL    H3532837   2.222   7.055   7.743 -1.2836 -0.3837 -0.6181
  232MOL    H3632838   2.204   6.789   7.890  2.1714  0.7427 -1.4999
  232MOL    C3732839   2.249   6.804   7.681 -0.4316  1.2052  0.9475
  232MOL    C3832840   2.264   6.649   7.669  0.0719 -0.1877 -0.1836
  232MOL    C3932841   2.193   6.579   7.782 -0.0226  0.0635 -0.6628
  232MOL    N4032842   2.147   6.522   7.869  1.0094  0.1598 -0.2492
  232MOL    H4132843   2.199   6.837   7.590 -1.5740  0.4862  1.2897
  232MOL    H4232844   2.350   6.843   7.687  0.3118 -0.4259 -0.6077
  232MOL    H4332845   2.369   6.624   7.684  0.6333  1.3807 -1.3934
  232MOL    C4432846   2.213   6.586   7.542  0.9404 -0.1487 -0.4873
  232MOL    C4532847   2.329   6.575   7.429 -0.3366 -0.3552  0.6344
  232MOL    C4632848   2.434   6.487   7.481  1.2375  0.7512 -0.4083
  232MOL    N4732849   2.523   6.422   7.521 -0.4382 -0.1409  0.2333
  232MOL    H4832850   2.181   6.484   7.561 -1.1275  0.8059  1.2826
  232MOL    H4932851   2.128   6.641   7.502  1.7201  2.5890  1.5355
  232MOL    H5032852   2.363   6.677   7.408 -0.8182 -0.8272 -2.6315
  232MOL    C5132853   2.260   6.533   7.291  0.7951  0.1849  0.0967
  232MOL    C5232854   2.356   6.497   7.186  0.1323 -0.4115  0.7081
  232MOL    C5332855   2.282   6.419   7.086 -0.3453  0.0419  0.2972
  232MOL    N5432856   2.219   6.360   7.006  0.2929 -0.3495  0.0142
  232MOL    H5532857   2.200   6.445   7.313 -0.3928  0.5379 -1.6357
  232MOL    H5632858   2.198   6.616   7.260  1.0195 -0.5791 -2.5670
  232MOL    H5732859   2.429   6.429   7.229  3.3598  1.3037 -1.8174
  232MOL    C5832860   2.419   6.616   7.115 -0.1420 -0.2454  0.3511
  232MOL    C5932861   2.559   6.587   7.050 -0.3415  0.2074 -0.3282
  232MOL    C6032862   2.584   6.673   6.930 -0.0926 -0.0123 -0.7831
  232MOL    N6132863   2.603   6.738   6.838  0.3079 -0.4494  0.4928
  232MOL    H6232864   2.354   6.645   7.032  0.3426 -4.6645 -1.7300
  232MOL    H6332865   2.426   6.707   7.174  0.5255 -0.5834  0.7852
  232MOL    H6432866   2.548   6.490   7.002  1.5195 -0.2648  0.1861
  232MOL    C6532867   2.668   6.594   7.154 -0.1325  0.4730 -0.4075
  232MOL    C6632868   2.697   6.744   7.195  0.1986 -0.2536 -0.7734
  232MOL    C6732869   2.634   6.758   7.324 -0.2160 -0.4802  0.3121
  232MOL    N6832870   2.585   6.771   7.430 -0.2143  0.1445 -0.3334
  232MOL    H6932871   2.653   6.536   7.245 -0.0902 -0.0193 -0.7137
  232MOL    H7032872   2.760   6.543   7.126 -0.9042 -2.0969  1.6062
  232MOL    H7132873   2.655   6.830   7.144 -0.1692 -0.0879 -0.1976
  232MOL    C7232874   2.854   6.765   7.193  0.7658  0.0948 -0.0314
  232MOL    C7332875   2.902   6.911   7.168  0.1857  0.3407  0.2826
  232MOL    C7432876   2.834   7.005   7.258 -0.1694  0.4536  0.1972
  232MOL    N7532877   2.777   7.080   7.332 -0.9913  0.1802 -0.4385
  232MOL    H7632878   2.885   6.729   7.291  0.9338  4.0765  1.4568
  232MOL    H7732879   2.894   6.708   7.110 -2.2202  1.8394 -2.7864
  232MOL    H7832880   2.884   6.941   7.065 -0.3890  2.2370  0.9230
  232MOL    C7932881   3.057   6.920   7.188  0.1357 -0.2003  0.1149
  232MOL    C8032882   3.126   7.020   7.089  0.4624 -0.4339  0.3928
  232MOL    C8132883   3.080   7.013   6.950 -0.2428  0.2158  0.1988
  232MOL    N8232884   3.048   7.004   6.840  0.1533 -0.0803 -0.2891
  232MOL    H8332885   3.074   6.953   7.290  1.0766 -2.2603  0.6366
  232MOL    H8432886   3.105   6.823   7.177 -0.4695 -0.5173  0.2169
  232MOL    H8532887   3.229   6.986   7.084  0.4886 -0.3921  0.6541
  232MOL    C8632888   3.125   7.169   7.140 -0.6424  0.5769 -0.9932
  232MOL    C8732889   3.202   7.262   7.043  0.0380  0.4432  0.5739
  232MOL    C8832890   3.173   7.403   7.075 -0.6167  0.7605 -0.7251
  232MOL    N8932891   3.148   7.509   7.110  1.0088 -0.4564 -0.1324
  232MOL    H9032892   3.025   7.211   7.153 -0.0350  1.6908  0.1517
  232MOL    H9132893   3.172   7.170   7.239  0.1110 -0.4942 -1.3266
  232MOL    H9232894   3.176   7.245   6.938 -0.1627  1.4326  0.4655
  232MOL    C9332895   3.357   7.239   7.049  0.6014 -0.1972  0.0969
  232MOL    C9432896   3.446   7.313   6.944 -0.2129  0.3756  0.0983
  232MOL    C9532897   3.438   7.462   6.949  0.1962  0.5428  0.2847
  232MOL    N9632898   3.431   7.575   6.956  0.2986  0.3731 -0.1155
  232MOL    H9732899   3.395   7.272   7.145  1.9664  0.1372 -0.5580
  232MOL    H9832900   3.382   7.133   7.050 -1.4480 -0.7070 -0.3637
  232MOL    H9932901   3.405   7.283   6.848  2.4206  2.5978 -1.8066
  232MOL   C10032902   3.595   7.261   6.939 -0.2004 -0.6974 -0.5957
  232MOL   C10132903   3.667   7.300   6.811  0.0073  1.0552 -0.2807
  232MOL   C10232904   3.813   7.288   6.825  0.1116 -0.0088  0.2327
  232MOL   N10332905   3.927   7.274   6.829 -0.4463  0.1819  0.3634
  232MOL   H10432906   3.648   7.297   7.028  2.4522 -2.3140 -1.4526
  232MOL   H10532907   3.608   7.156   6.967  0.8544 -0.2103  0.8326
  232MOL   H10632908   3.651   7.407   6.800 -0.3014  1.4011  3.0324
  232MOL   C10732909   3.604   7.242   6.684  0.4439 -0.1160 -0.4968
  232MOL   C10832910   3.649   7.311   6.559  0.7952 -0.3010  0.4246
  232MOL   C10932911   3.791   7.308   6.535  0.2744 -0.4119 -0.0664
  232MOL   N11032912   3.904   7.303   6.510  0.0237  0.2185 -0.3516
  232MOL   H11132913   3.631   7.137   6.681  1.1806  0.0220  0.9523
  232MOL   H11232914   3.495   7.249   6.688  0.5646  1.1414  1.0500
  232MOL   H11332915   3.619   7.412   6.588 -0.4574 -0.2809 -0.9117
  232MOL   C11432916   3.573   7.259   6.434  0.2660 -0.0431  0.3824
  232MOL   C11532917   3.603   7.334   6.294 -0.2163 -1.1941 -0.4928
  232MOL   C11632918   3.568   7.242   6.182  0.0248 -0.1311  0.0572
  232MOL   N11732919   3.547   7.172   6.089 -0.5395  0.1346  0.6636
  232MOL   H11832920   3.600   7.155   6.413  2.7317  0.4879  0.8253
  232MOL   H11932921   3.467   7.254   6.462 -0.0415 -0.6190 -0.8674
  232MOL   H12032922   3.709   7.351   6.279  0.1588 -1.8719  1.2315
  232MOL   C12132923   3.527   7.465   6.295  0.1860  0.0197  0.2784
  232MOL   C12232924   3.573   7.558   6.178 -0.5042  0.0579 -0.2124
  232MOL   C12332925   3.605   7.488   6.050 -0.1236  0.1419 -0.1530
  232MOL   N12432926   3.626   7.441   5.950  0.4917  0.3574  0.1868
  232MOL   H12532927   3.420   7.449   6.285  0.0922  0.3689  0.7022
  232MOL   H12632928   3.550   7.513   6.390  2.1871 -2.0906  0.9091
  232MOL   H12732929   3.664   7.602   6.221 -1.3788  0.6236  1.0846
  232MOL   C12832930   3.481   7.690   6.172  0.0957  0.9767 -0.3219
  232MOL   C12932931   3.367   7.682   6.073  0.0862 -0.3304 -0.1157
  232MOL   C13032932   3.306   7.549   6.062  0.4582 -0.2020  0.2427
  232MOL   N13132933   3.263   7.440   6.055 -0.2893  0.1699 -0.3192
  232MOL   H13232934   3.457   7.713   6.276  0.8754 -0.9270  0.2992
  232MOL   H13332935   3.542   7.774   6.139  2.6165 -1.1080 -1.0725
  232MOL   H13432936   3.425   7.686   5.981 -0.7922 -1.0961 -0.7108
  232MOL   C13532937   3.269   7.799   6.068  0.7027 -0.0674 -0.1025
  232MOL   C13632938   3.327   7.945   6.047 -1.0821  1.3349  0.2241
  232MOL   C13732939   3.230   8.050   6.044  0.1501 -0.6652 -0.5489
  232MOL   N13832940   3.148   8.135   6.041 -0.6953 -0.3695  0.3776
  232MOL   H13932941   3.207   7.791   5.979  1.5025  0.2118 -0.6940
  232MOL   H14032942   3.218   7.782   6.163  1.3792 -0.7082  0.1560
  232MOL   H14132943   3.390   7.949   5.958 -1.2311  2.4112  0.1667
  232MOL   H14232944   3.391   7.965   6.132 -1.5559 -0.1759  0.9490
  233MOL     C132945   2.866   2.801   6.868  0.3289 -0.0615 -0.0656
  233MOL     C232946   2.876   2.946   6.887 -0.0743 -0.1547 -0.2518
  233MOL     C332947   3.016   2.984   6.912  0.1900  1.4638 -0.2834
  233MOL     N432948   3.123   3.005   6.940  0.1704  0.3721  0.1100
  233MOL     H532949   2.886   2.747   6.961 -0.8687 -0.3950 -0.0074
  233MOL     H632950   2.918   2.746   6.789 -0.5728 -2.5138  1.0013
  233MOL     H732951   2.829   2.967   6.983 -2.9213  0.1284 -1.6577
  233MOL     H832952   2.762   2.776   6.849 -0.5964  1.4089  2.8206
  233MOL     C932953   2.818   3.029   6.763 -0.1713 -0.2570  0.5266
  233MOL    C1032954   2.673   3.081   6.767  0.2373 -0.7915  0.7213
  233MOL    C1132955   2.645   3.163   6.888 -0.1200  0.0018 -0.5286
  233MOL    N1232956   2.618   3.228   6.982 -0.2956  0.1903  0.3336
  233MOL    H1332957   2.877   3.120   6.743 -1.2080  0.8467  2.3558
  233MOL    H1432958   2.837   2.976   6.670 -0.5427  0.7543 -0.1383
  233MOL    H1532959   2.612   2.992   6.784  0.4968 -0.9639  0.7516
  233MOL    C1632960   2.624   3.147   6.638 -0.3474 -0.2326  0.2684
  233MOL    C1732961   2.475   3.114   6.598  0.1488 -0.0124  0.0285
  233MOL    C1832962   2.398   3.134   6.720  0.1436  0.3656 -0.6435
  233MOL    N1932963   2.340   3.148   6.818 -0.0731 -0.0863  0.9130
  233MOL    H2032964   2.644   3.254   6.632 -2.0672  0.0080 -1.6834
  233MOL    H2132965   2.688   3.103   6.562 -0.5328  0.2424 -0.1635
  233MOL    H2232966   2.463   3.013   6.557  1.3697  0.3023 -1.1567
  233MOL    C2332967   2.426   3.216   6.495  0.0563 -0.5626 -0.5078
  233MOL    C2432968   2.314   3.176   6.403  0.5045  0.9889 -0.0291
  233MOL    C2532969   2.190   3.157   6.479  0.5095 -0.3849 -0.0221
  233MOL    N2632970   2.093   3.142   6.542  0.8498  0.4216 -0.6840
  233MOL    H2732971   2.396   3.301   6.557 -0.6474 -3.3169  3.1656
  233MOL    H2832972   2.509   3.256   6.438 -0.2955 -0.6853 -1.1071
  233MOL    H2932973   2.337   3.080   6.357  0.4142 -0.0592  2.0882
  233MOL    C3032974   2.278   3.267   6.288 -0.2589 -0.3412 -0.1320
  233MOL    C3132975   2.200   3.396   6.324  0.4190 -0.5457 -0.2948
  233MOL    C3232976   2.278   3.497   6.402 -0.2190 -0.0037 -0.8985
  233MOL    N3332977   2.336   3.575   6.466  1.2019 -0.0998  0.0627
  233MOL    H3432978   2.371   3.287   6.234 -0.0712  0.9795  0.6793
  233MOL    H3532979   2.221   3.210   6.214  0.1333 -2.2696  1.0416
  233MOL    H3632980   2.116   3.374   6.390 -2.0922  1.1621 -2.8116
  233MOL    C3732981   2.138   3.448   6.198 -0.0479  0.1897 -0.0841
  233MOL    C3832982   2.229   3.534   6.107  1.4136 -0.3138  0.3858
  233MOL    C3932983   2.315   3.446   6.021 -0.1460  0.1270 -0.1034
  233MOL    N4032984   2.380   3.387   5.946 -0.3887  0.3767  0.0715
  233MOL    H4132985   2.092   3.370   6.137  0.4522 -0.7658  0.7302
  233MOL    H4232986   2.058   3.510   6.238 -0.2412 -0.2717  0.2569
  233MOL    H4332987   2.293   3.588   6.176 -1.6235  2.4508  1.1378
  233MOL    C4432988   2.157   3.650   6.036 -0.2226 -0.0933  0.3436
  233MOL    C4532989   2.055   3.615   5.935 -0.3750 -0.0958  0.6659
  233MOL    C4632990   1.937   3.558   6.003 -0.1846  0.8199 -0.3041
  233MOL    N4732991   1.842   3.514   6.054 -0.7246 -0.1223 -0.6493
  233MOL    H4832992   2.107   3.719   6.104  0.9877  2.4387 -1.2122
  233MOL    H4932993   2.226   3.717   5.984  0.3122 -1.0449 -0.1854
  233MOL    H5032994   2.099   3.542   5.867 -0.4109  2.5158 -2.2791
  233MOL    C5132995   2.026   3.734   5.849  0.3086 -0.1723  0.1071
  233MOL    C5232996   1.966   3.709   5.716  0.0964 -0.7516 -0.6704
  233MOL    C5332997   2.077   3.661   5.626 -0.9012  0.4912  0.0740
  233MOL    N5432998   2.161   3.616   5.563  0.1247  0.3526  0.0306
  233MOL    H5532999   1.953   3.801   5.893  0.1619 -1.8322  2.5055
  233MOL    H5633000   2.107   3.803   5.824 -0.4844  0.6767 -0.1682
  233MOL    H5733001   1.917   3.800   5.680  1.3572  0.4455  0.5805
  233MOL    C5833002   1.851   3.601   5.722  0.6352 -0.0957 -0.3945
  233MOL    C5933003   1.756   3.600   5.602 -0.3121 -0.6493 -0.2505
  233MOL    C6033004   1.813   3.575   5.469  0.2752 -0.4595 -0.2263
  233MOL    N6133005   1.861   3.545   5.366  0.3748 -0.6463 -0.0736
  233MOL    H6233006   1.893   3.500   5.725 -0.0078 -0.3435  1.6906
  233MOL    H6333007   1.791   3.614   5.812  1.2120 -0.3338  0.0262
  233MOL    H6433008   1.720   3.703   5.602  1.9401  0.1996  3.0001
  233MOL    C6533009   1.637   3.504   5.651 -0.0664  0.2418  0.8017
  233MOL    C6633010   1.511   3.501   5.560 -0.1860  0.3086  0.2522
  233MOL    C6733011   1.440   3.372   5.575  0.0404 -0.4817  0.9726
  233MOL    N6833012   1.380   3.275   5.586 -0.3665  0.2663 -0.3404
  233MOL    H6933013   1.683   3.406   5.637 -2.2187 -0.8049  0.9994
  233MOL    H7033014   1.601   3.519   5.752 -2.1568 -3.2530  0.6538
  233MOL    H7133015   1.545   3.513   5.457  1.8976  0.5022  0.9412
  233MOL    C7233016   1.427   3.627   5.591 -0.3414 -0.6733 -0.4043
  233MOL    C7333017   1.292   3.649   5.521  0.4792  0.1535 -0.6874
  233MOL    C7433018   1.226   3.774   5.557  0.2817 -0.1144  0.4657
  233MOL    N7533019   1.173   3.873   5.584  0.2583  0.0215  0.1547
  233MOL    H7633020   1.399   3.609   5.694  2.4127 -0.1080  0.4960
  233MOL    H7733021   1.477   3.723   5.606  0.9597 -1.2482 -0.8915
  233MOL    H7833022   1.225   3.577   5.569  2.2110 -0.6973  0.5168
  233MOL    C7933023   1.295   3.623   5.369  0.0460 -0.9342 -0.3132
  233MOL    C8033024   1.361   3.730   5.284  0.4136 -0.5961 -0.1361
  233MOL    C8133025   1.498   3.763   5.335  0.2097 -0.1532 -0.4652
  233MOL    N8233026   1.607   3.789   5.372 -0.4913  0.2381  0.2899
  233MOL    H8333027   1.327   3.522   5.344 -0.5903 -1.2522  0.1406
  233MOL    H8433028   1.189   3.635   5.348  0.4006  1.2713 -0.9342
  233MOL    H8533029   1.312   3.825   5.306  0.4534 -0.5579 -0.2133
  233MOL    C8633030   1.375   3.692   5.137 -0.3203 -0.3310  0.7612
  233MOL    C8733031   1.248   3.667   5.060  0.0651  0.3162 -0.0740
  233MOL    C8833032   1.157   3.786   5.060  0.0177  0.3969  0.1433
  233MOL    N8933033   1.082   3.876   5.064 -0.2006 -0.1182  0.4751
  233MOL    H9033034   1.426   3.773   5.085 -1.2446 -0.4030 -0.2858
  233MOL    H9133035   1.446   3.610   5.127 -0.7551 -0.8071  1.5790
  233MOL    H9233036   1.197   3.598   5.127  0.6758  0.5362  0.6279
  233MOL    C9333037   1.266   3.596   4.923  0.1671 -0.0429  0.4251
  233MOL    C9433038   1.137   3.535   4.879  0.0792  0.5939  0.2298
  233MOL    C9533039   1.035   3.631   4.860 -0.7781  0.0542  0.3098
  233MOL    N9633040   0.952   3.703   4.840  0.7614 -0.1244  0.8122
  233MOL    H9733041   1.315   3.657   4.847  2.0199  0.9179  2.3266
  233MOL    H9833042   1.334   3.513   4.938  1.9002  1.4182  0.8341
  233MOL    H9933043   1.088   3.474   4.954  1.6152 -0.3084  0.5383
  233MOL   C10033044   1.159   3.448   4.755  0.3144 -0.3736  0.8366
  233MOL   C10133045   1.212   3.508   4.624  0.2480  0.1141  0.0558
  233MOL   C10233046   1.159   3.637   4.586  0.4327 -1.1368  0.0639
  233MOL   N10333047   1.112   3.744   4.552 -0.9187  0.4933  0.0543
  233MOL   H10433048   1.207   3.352   4.774  1.2697 -0.1939 -0.5595
  233MOL   H10533049   1.056   3.413   4.743  0.0151  0.8575 -0.2836
  233MOL   H10633050   1.171   3.452   4.541 -0.9724  0.1870  0.6058
  233MOL   C10733051   1.366   3.511   4.612 -0.1130 -0.3703 -0.3561
  233MOL   C10833052   1.436   3.485   4.475  0.0129 -0.6829  0.0092
  233MOL   C10933053   1.414   3.355   4.409 -0.2511  0.2708  0.2377
  233MOL   N11033054   1.396   3.253   4.358  0.0742  0.1171 -0.3876
  233MOL   H11133055   1.408   3.604   4.652  2.5315 -1.4111 -0.5974
  233MOL   H11233056   1.412   3.432   4.672 -2.4386 -1.0642  0.5579
  233MOL   H11333057   1.541   3.501   4.496 -0.3310  2.3512 -0.3667
  233MOL   C11433058   1.399   3.603   4.373 -0.5867 -0.3264 -0.3724
  233MOL   C11533059   1.465   3.609   4.231 -0.5020  0.2527  0.4703
  233MOL   C11633060   1.388   3.515   4.149  0.4668 -0.5936  0.7856
  233MOL   N11733061   1.325   3.445   4.088 -0.4071  0.9077  0.1475
  233MOL   H11833062   1.291   3.608   4.360 -0.7267 -0.5989  0.6214
  233MOL   H11933063   1.435   3.688   4.431 -2.1444  0.5139 -0.6078
  233MOL   H12033064   1.567   3.570   4.231 -0.0428  1.4138 -0.6847
  233MOL   C12133065   1.458   3.749   4.175 -0.0371  0.4396  0.0458
  233MOL   C12233066   1.556   3.847   4.228 -0.4204 -0.1641 -0.1627
  233MOL   C12333067   1.696   3.795   4.212 -0.5383  0.2641  0.5311
  233MOL   N12433068   1.801   3.757   4.198 -0.0780  0.1138  0.2071
  233MOL   H12533069   1.461   3.749   4.066  0.2059 -0.2119  0.0502
  233MOL   H12633070   1.356   3.783   4.191 -0.4747 -1.6814  1.9571
  233MOL   H12733071   1.544   3.859   4.336  1.9699  1.8813 -0.0568
  233MOL   C12833072   1.525   3.986   4.161  0.0415  0.6328  0.3842
  233MOL   C12933073   1.566   4.109   4.240 -0.8822 -1.2063  0.2702
  233MOL   C13033074   1.699   4.090   4.302  0.2016  0.5076 -0.0110
  233MOL   N13133075   1.807   4.067   4.349  0.6814  0.2078 -0.1172
  233MOL   H13233076   1.566   3.985   4.060 -0.1112  2.4723  0.2795
  233MOL   H13333077   1.417   3.990   4.149 -0.2217 -0.2315  2.1939
  233MOL   H13433078   1.500   4.112   4.327  0.0391  3.1744  0.9613
  233MOL   C13533079   1.556   4.240   4.160  0.0335  0.9259  0.4327
  233MOL   C13633080   1.623   4.365   4.221 -0.4377  0.0864 -0.3628
  233MOL   C13733081   1.599   4.391   4.358 -0.3396  0.6234 -0.4554
  233MOL   N13833082   1.573   4.415   4.470  0.1417 -0.2150  0.2683
  233MOL   H13933083   1.607   4.226   4.065  1.2355  1.4332  0.9891
  233MOL   H14033084   1.453   4.256   4.127 -0.2185 -0.0581  0.7080
  233MOL   H14133085   1.591   4.458   4.174  1.8465  1.0431 -0.0924
  233MOL   H14233086   1.730   4.348   4.212 -0.3833  1.1014 -1.9335
  234MOL     C133087   1.064   3.760   0.694 -0.9828  0.2540 -0.4479
  234MOL     C233088   0.967   3.874   0.710  0.0933  0.1878  0.2652
  234MOL     C333089   0.946   3.898   0.847 -0.2478  0.3213 -0.5882
  234MOL     N433090   0.931   3.925   0.960  0.5623  0.1378  0.1136
  234MOL     H533091   1.161   3.781   0.737 -1.2696  0.9648 -0.1453
  234MOL     H633092   1.063   3.718   0.594  1.7933  0.2880 -0.5138
  234MOL     H733093   0.862   3.859   0.682  0.3054  2.8593 -2.2167
  234MOL     H833094   1.038   3.676   0.759 -0.1220  0.2927 -0.0558
  234MOL     C933095   1.014   3.997   0.628  0.2267 -0.0203 -0.3434
  234MOL    C1033096   0.981   3.989   0.476 -0.4700  0.2402 -0.1401
  234MOL    C1133097   0.855   3.921   0.446  0.0164 -0.2385 -0.2900
  234MOL    N1233098   0.757   3.862   0.423 -0.0280 -0.7648  0.0318
  234MOL    H1333099   0.957   4.081   0.668  1.0385  1.9158 -3.1368
  234MOL    H1433100   1.114   4.028   0.656 -0.1606 -0.2417  1.3989
  234MOL    H1533101   1.054   3.923   0.429  2.0148  3.3637 -0.7874
  234MOL    C1633102   0.981   4.125   0.403  0.3296  0.2534  0.7344
  234MOL    C1733103   0.968   4.126   0.251  0.1980 -0.5216  0.0406
  234MOL    C1833104   0.917   4.248   0.192 -0.0435 -0.2367  0.0699
  234MOL    N1933105   0.873   4.346   0.144  1.4557 -0.0452  0.0977
  234MOL    H2033106   0.896   4.186   0.437  0.7737  2.5903 -2.0812
  234MOL    H2133107   1.069   4.182   0.434 -0.1076  1.1108  0.4359
  234MOL    H2233108   0.884   4.060   0.230  0.7571 -1.4859  0.7643
  234MOL    C2333109   1.106   4.092   0.201  0.4641  0.0151 -0.3168
  234MOL    C2433110   1.103   3.991   0.084 -0.1749  0.1109 -0.2245
  234MOL    C2533111   1.044   4.064   8.275 -0.2619 -0.0870  0.0398
  234MOL    N2633112   0.988   4.115   8.187 -0.3638  0.1562 -0.2974
  234MOL    H2733113   1.167   4.178   0.176  3.1602 -1.8793 -0.4708
  234MOL    H2833114   1.162   4.044   0.282 -0.5332 -0.1701  0.2819
  234MOL    H2933115   1.037   3.908   0.109 -0.1498  0.8451  2.3367
  234MOL    C3033116   1.247   3.938   0.056  0.7826  0.0880 -0.2235
  234MOL    C3133117   1.257   3.826   8.273  0.1525  0.2908  0.2214
  234MOL    C3233118   1.374   3.841   8.187 -0.6833 -0.7561 -0.2160
  234MOL    N3333119   1.464   3.852   8.117 -0.1943 -0.3016  0.7510
  234MOL    H3433120   1.313   4.019   0.025 -2.1528  3.5722  2.0885
  234MOL    H3533121   1.298   3.920   0.150  0.6063 -2.0904 -0.5243
  234MOL    H3633122   1.165   3.827   8.215 -0.6984  0.9070  1.5484
  234MOL    C3733123   1.247   3.677   0.016 -1.0728  0.2856  0.3687
  234MOL    C3833124   1.334   3.641   0.141  0.4339  0.6660 -0.0402
  234MOL    C3933125   1.288   3.704   0.265 -0.3194 -0.6019  0.5508
  234MOL    N4033126   1.250   3.757   0.367  0.0020  0.3511  0.4887
  234MOL    H4133127   1.143   3.659   0.044 -1.7352 -1.0076 -2.6802
  234MOL    H4233128   1.274   3.608   8.248 -0.4307  1.6789 -0.6358
  234MOL    H4333129   1.432   3.687   0.128 -0.2366  1.7118 -1.4869
  234MOL    C4433130   1.350   3.492   0.157 -0.0909  0.8004  0.2266
  234MOL    C4533131   1.234   3.408   0.213 -0.7236 -0.6435 -0.3511
  234MOL    C4633132   1.117   3.405   0.123  0.8216  0.1934 -0.0730
  234MOL    N4733133   1.026   3.400   0.047 -0.3445  0.1565  0.0132
  234MOL    H4833134   1.376   3.450   0.060 -1.7479  1.0838 -0.3624
  234MOL    H4933135   1.437   3.471   0.220 -0.4100 -0.7598  0.1616
  234MOL    H5033136   1.206   3.454   0.307 -2.0572  1.6479 -1.8242
  234MOL    C5133137   1.286   3.267   0.233 -0.4221  0.0429  0.1514
  234MOL    C5233138   1.197   3.180   0.319  0.1686 -0.3306 -0.7080
  234MOL    C5333139   1.260   3.044   0.308  0.4370 -0.4721  0.2761
  234MOL    N5433140   1.310   2.939   0.297 -0.3257  0.4870 -0.5836
  234MOL    H5533141   1.283   3.231   0.130 -0.6063 -1.6033  0.7267
  234MOL    H5633142   1.390   3.275   0.264 -0.5638  2.5873  0.1161
  234MOL    H5733143   1.098   3.175   0.275 -1.3149 -0.7426  2.5307
  234MOL    C5833144   1.188   3.223   0.468  0.4789  0.3899  0.1822
  234MOL    C5933145   1.061   3.162   0.530 -0.2404 -0.1142  0.2632
  234MOL    C6033146   1.063   3.017   0.530 -1.0874 -0.1518  0.2594
  234MOL    N6133147   1.060   2.902   0.530 -0.4023 -0.5401 -0.2098
  234MOL    H6233148   1.277   3.189   0.521 -0.6500 -1.3867  0.9811
  234MOL    H6333149   1.179   3.331   0.479  0.9496  0.3249  1.3117
  234MOL    H6433150   0.983   3.194   0.461  1.2920 -1.3279 -2.0982
  234MOL    C6533151   1.042   3.216   0.672 -0.5416 -0.5310  0.2227
  234MOL    C6633152   1.056   3.119   0.786 -1.0450  0.0611  0.1694
  234MOL    C6733153   1.192   3.081   0.809  0.6596 -0.1688  0.1471
  234MOL    N6833154   1.300   3.057   0.828 -0.3076  0.0884 -0.0279
  234MOL    H6933155   1.114   3.298   0.680  0.3518 -1.4380  1.7739
  234MOL    H7033156   0.945   3.262   0.686 -0.3028  0.2833 -0.7737
  234MOL    H7133157   1.005   3.029   0.752 -0.0734 -0.7764  0.8879
  234MOL    C7233158   0.984   3.179   0.909 -0.3002  0.1568 -0.7839
  234MOL    C7333159   0.986   3.102   1.049 -0.4394 -0.2018 -0.3447
  234MOL    C7433160   0.908   3.181   1.142 -0.0735  0.0046 -0.2125
  234MOL    N7533161   0.845   3.244   1.212 -0.7888  0.0488 -0.3491
  234MOL    H7633162   1.017   3.281   0.927  1.8449 -1.2113  3.7958
  234MOL    H7733163   0.877   3.189   0.889 -0.3772 -0.4591 -0.6893
  234MOL    H7833164   1.082   3.109   1.100 -0.7186  1.7682 -0.0413
  234MOL    C7933165   0.934   2.959   1.038  0.7011  0.2902 -0.5431
  234MOL    C8033166   0.956   2.862   1.155  0.3659  0.2726  0.4750
  234MOL    C8133167   1.100   2.830   1.174  0.4018  0.0052 -0.0754
  234MOL    N8233168   1.210   2.799   1.192 -0.4874 -0.7186 -0.9307
  234MOL    H8333169   0.831   2.965   1.004  0.8668 -1.2371 -1.3385
  234MOL    H8433170   0.987   2.911   0.955  1.1725  0.2050 -0.1928
  234MOL    H8533171   0.918   2.772   1.106 -1.1447  0.1258  1.8590
  234MOL    C8633172   0.868   2.879   1.274  0.3004 -0.3283 -0.2760
  234MOL    C8733173   0.838   2.749   1.350 -0.3362  0.0292 -0.5362
  234MOL    C8833174   0.960   2.696   1.410 -0.5763  0.3008 -0.3890
  234MOL    N8933175   1.058   2.652   1.455 -0.6237  0.3040 -0.1351
  234MOL    H9033176   0.918   2.941   1.348  1.1498  0.3718 -1.4146
  234MOL    H9133177   0.774   2.924   1.241  0.2027 -1.7963 -2.0733
  234MOL    H9233178   0.813   2.678   1.271 -0.8650 -1.6319  1.0747
  234MOL    C9333179   0.721   2.762   1.449  0.2079  0.3150 -0.1762
  234MOL    C9433180   0.578   2.726   1.396  0.0953 -0.7976 -0.1447
  234MOL    C9533181   0.583   2.608   1.310  0.5293 -0.2836  0.6579
  234MOL    N9633182   0.586   2.517   1.242 -0.1406  0.6480 -0.1596
  234MOL    H9733183   0.738   2.701   1.538 -0.6997  0.3408  0.0126
  234MOL    H9833184   0.716   2.862   1.494  1.7170 -0.0836  0.9413
  234MOL    H9933185   0.555   2.802   1.321 -0.8207 -0.9071  0.0115
  234MOL   C10033186   0.466   2.732   1.502  0.4371  0.5271 -0.7810
  234MOL   C10133187   0.420   2.614   1.577  0.1081  0.4965 -0.4147
  234MOL   C10233188   0.366   2.512   1.491 -0.0544 -0.3664  0.0359
  234MOL   N10333189   0.318   2.439   1.419 -0.1190  0.3575 -0.4376
  234MOL   H10433190   0.498   2.799   1.581  0.8230 -1.4641  0.7894
  234MOL   H10533191   0.376   2.777   1.460 -2.2388 -1.4137  2.5946
  234MOL   H10633192   0.327   2.641   1.628 -1.0335 -0.8202 -1.7508
  234MOL   C10733193   0.517   2.555   1.676  0.1288 -0.0299 -0.0328
  234MOL   C10833194   0.455   2.436   1.759  0.3340 -0.1756 -0.1555
  234MOL   C10933195   0.514   2.308   1.715  0.4166 -0.3492 -0.4408
  234MOL   N11033196   0.554   2.210   1.670 -0.2870 -0.5485  0.8353
  234MOL   H11133197   0.608   2.524   1.623 -1.4124 -3.1345 -0.9888
  234MOL   H11233198   0.552   2.630   1.747  2.4592  0.1921 -1.3684
  234MOL   H11333199   0.347   2.431   1.744  0.0919  1.2009  1.0569
  234MOL   C11433200   0.470   2.468   1.909 -0.1539  0.1844  0.6497
  234MOL   C11533201   0.368   2.418   2.020  0.0377  0.0219  0.0896
  234MOL   C11633202   0.349   2.278   1.994  0.1409 -0.0656 -0.9008
  234MOL   N11733203   0.335   2.168   1.973  0.5169  1.0255  0.2283
  234MOL   H11833204   0.565   2.426   1.940 -0.1148  0.9235  1.5823
  234MOL   H11933205   0.469   2.575   1.930  0.7965  0.1593  0.8257
  234MOL   H12033206   0.277   2.473   1.997  0.8099  0.3680 -2.2245
  234MOL   C12133207   0.424   2.441   2.164 -0.1078  0.3463  0.1186
  234MOL   C12233208   0.451   2.579   2.216  0.2517  0.2034 -0.0488
  234MOL   C12333209   0.338   2.665   2.186 -0.3491  0.4459  0.4195
  234MOL   N12433210   0.253   2.741   2.163 -0.4689 -0.2202 -0.2491
  234MOL   H12533211   0.362   2.388   2.236 -0.5317 -0.4398 -0.8131
  234MOL   H12633212   0.519   2.389   2.166 -1.8454 -3.1498 -2.7640
  234MOL   H12733213   0.540   2.606   2.159  0.2981  0.1552  0.0006
  234MOL   C12833214   0.485   2.572   2.367  0.4048 -0.2249 -0.9596
  234MOL   C12933215   0.577   2.681   2.423 -0.6258 -0.1113  0.1914
  234MOL   C13033216   0.557   2.818   2.366 -0.6299 -0.4484 -0.1111
  234MOL   N13133217   0.543   2.922   2.321  0.2547 -0.4650 -0.4522
  234MOL   H13233218   0.393   2.577   2.426  1.5755  3.8067  0.7126
  234MOL   H13333219   0.531   2.478   2.396 -0.1954  0.0003  0.8137
  234MOL   H13433220   0.676   2.649   2.390 -1.1729 -1.7775  0.1659
  234MOL   C13533221   0.581   2.687   2.580 -0.1538  0.4398 -0.4083
  234MOL   C13633222   0.672   2.793   2.640  0.0016 -0.0697  0.2010
  234MOL   C13733223   0.655   2.806   2.784 -0.2516 -0.1311 -0.0918
  234MOL   N13833224   0.638   2.824   2.895 -0.0773  0.4739 -0.0435
  234MOL   H13933225   0.481   2.683   2.624  0.5644  0.5276  1.2826
  234MOL   H14033226   0.624   2.591   2.609  2.7340  1.7933  0.0173
  234MOL   H14133227   0.645   2.889   2.598 -0.9323 -0.3243  0.1990
  234MOL   H14233228   0.779   2.778   2.624 -0.1304 -1.3357  0.3915
  235MOL     C133229   5.598   2.421   1.838 -0.5042  0.3156  0.3051
  235MOL     C233230   5.575   2.367   1.689  0.0722 -0.3359 -0.2110
  235MOL     C333231   5.706   2.287   1.668 -0.5736  0.0529  0.5377
  235MOL     N433232   5.810   2.235   1.658  1.0432  0.1642 -0.8155
  235MOL     H533233   5.515   2.483   1.872 -0.4478  0.8881 -0.5859
  235MOL     H633234   5.690   2.479   1.840 -0.6092  0.4129  3.1021
  235MOL     H733235   5.567   2.451   1.620  0.0249 -0.8007 -0.7776
  235MOL     H833236   5.604   2.342   1.912  1.2830  1.1300  1.0566
  235MOL     C933237   5.454   2.269   1.676 -0.7256  0.0027  0.3102
  235MOL    C1033238   5.315   2.328   1.678  0.2075 -0.1589 -0.1178
  235MOL    C1133239   5.322   2.463   1.620  0.0906 -0.2190  0.1175
  235MOL    N1233240   5.326   2.568   1.575 -0.1550 -0.1535  1.2083
  235MOL    H1333241   5.466   2.215   1.582  1.0973  1.8272 -0.5402
  235MOL    H1433242   5.448   2.195   1.756 -1.2157  1.9301  2.1097
  235MOL    H1533243   5.290   2.342   1.784 -1.8103 -1.8487 -0.3392
  235MOL    C1633244   5.216   2.237   1.608 -0.2188  0.3624 -0.1605
  235MOL    C1733245   5.113   2.175   1.708 -0.2896  0.2981  0.4596
  235MOL    C1833246   5.053   2.283   1.792 -0.1517  0.0700  0.1066
  235MOL    N1933247   4.998   2.368   1.849  0.0430 -0.2272 -0.2057
  235MOL    H2033248   5.156   2.293   1.537  1.0027 -1.9575 -3.1448
  235MOL    H2133249   5.264   2.152   1.558 -1.8885 -0.2292 -0.7767
  235MOL    H2233250   5.170   2.105   1.770  3.1597  2.5387 -0.0698
  235MOL    C2333251   5.004   2.082   1.646 -0.1647  0.2085 -0.9600
  235MOL    C2433252   4.905   2.150   1.544  0.0187 -0.5111  0.2579
  235MOL    C2533253   4.855   2.059   1.431 -0.2808 -0.0073 -0.4076
  235MOL    N2633254   4.819   1.993   1.338  0.4661 -0.2583 -0.8505
  235MOL    H2733255   5.056   2.003   1.593 -1.3866 -1.0590 -0.2986
  235MOL    H2833256   4.941   2.036   1.722  1.5433 -1.2362 -0.3996
  235MOL    H2933257   4.955   2.235   1.496  0.2950 -0.0097  1.4133
  235MOL    C3033258   4.774   2.192   1.619  0.5133 -0.2935  0.2185
  235MOL    C3133259   4.658   2.244   1.533  0.5575  0.3993 -0.1841
  235MOL    C3233260   4.534   2.252   1.601 -0.1993 -0.3828 -0.2853
  235MOL    N3333261   4.431   2.263   1.663 -0.1126  0.3427  0.2640
  235MOL    H3433262   4.732   2.104   1.668  0.7232 -0.3544  0.2875
  235MOL    H3533263   4.792   2.269   1.693  2.4852  1.7146 -2.2789
  235MOL    H3633264   4.635   2.166   1.460  0.8494  0.7256 -0.6261
  235MOL    C3733265   4.685   2.375   1.448  0.4859 -0.2403 -0.2860
  235MOL    C3833266   4.583   2.430   1.353 -0.4395 -0.5001 -0.5454
  235MOL    C3933267   4.530   2.324   1.264 -0.1493  0.1761  0.0811
  235MOL    N4033268   4.485   2.245   1.193 -0.7478  0.4648 -0.0518
  235MOL    H4133269   4.737   2.453   1.504  1.0395 -0.2975 -0.7165
  235MOL    H4233270   4.767   2.338   1.387  0.8067 -0.3875  0.2257
  235MOL    H4333271   4.619   2.496   1.273 -1.1922  0.6868  0.0766
  235MOL    C4433272   4.468   2.512   1.416  0.1559  0.3664 -0.2480
  235MOL    C4533273   4.508   2.637   1.485 -0.5108 -0.3518  0.4600
  235MOL    C4633274   4.584   2.721   1.383  0.1979  0.6757  0.0688
  235MOL    N4733275   4.637   2.790   1.303  0.0533 -0.1078  0.6915
  235MOL    H4833276   4.385   2.536   1.350  1.0271  1.4260 -0.9768
  235MOL    H4933277   4.420   2.451   1.492  1.6424  1.2509  1.4475
  235MOL    H5033278   4.576   2.614   1.567  0.6590 -1.2614 -0.7465
  235MOL    C5133279   4.397   2.709   1.564 -0.1224 -0.2348  0.1642
  235MOL    C5233280   4.409   2.861   1.552  0.3930 -0.1113  0.8720
  235MOL    C5333281   4.287   2.931   1.562  0.1501 -0.7922 -0.3229
  235MOL    N5433282   4.190   2.992   1.568 -0.2528  0.2682  0.1853
  235MOL    H5533283   4.302   2.678   1.521  0.2087 -0.6225 -0.2948
  235MOL    H5633284   4.398   2.668   1.665  1.8330 -2.6423 -0.7775
  235MOL    H5733285   4.422   2.890   1.448 -0.8437  1.1199  1.0399
  235MOL    C5833286   4.515   2.924   1.641  0.0733 -0.1907 -0.4681
  235MOL    C5933287   4.542   3.077   1.601 -0.1343 -0.2284 -0.5873
  235MOL    C6033288   4.621   3.142   1.708  0.2356 -0.5985  1.1850
  235MOL    N6133289   4.683   3.192   1.789 -0.5476  0.1657  0.3385
  235MOL    H6233290   4.488   2.912   1.746  0.9116  0.4621 -0.1690
  235MOL    H6333291   4.608   2.869   1.642 -0.6291 -1.3906 -0.9242
  235MOL    H6433292   4.451   3.137   1.600 -0.2769 -0.4058  0.7284
  235MOL    C6533293   4.605   3.096   1.461 -0.2271  0.3049 -0.1803
  235MOL    C6633294   4.672   3.230   1.425 -0.1748 -0.4376  1.0559
  235MOL    C6733295   4.745   3.220   1.299  0.5687  0.2902 -0.7647
  235MOL    N6833296   4.797   3.213   1.196  0.4272  0.1364  0.1918
  235MOL    H6933297   4.683   3.019   1.455  0.7681  1.2153  0.7040
  235MOL    H7033298   4.527   3.069   1.391 -0.6033  1.7556 -0.3391
  235MOL    H7133299   4.756   3.249   1.492  0.1659  0.9803  0.2466
  235MOL    C7233300   4.567   3.347   1.428  0.0190 -0.2027  0.4240
  235MOL    C7333301   4.635   3.474   1.382 -0.3586  0.4164  0.8676
  235MOL    C7433302   4.549   3.581   1.319  0.3113 -0.1922  0.0994
  235MOL    N7533303   4.482   3.661   1.267 -0.3228  0.4489  0.1802
  235MOL    H7633304   4.487   3.317   1.360  1.8192 -0.0588 -1.8355
  235MOL    H7733305   4.533   3.373   1.528 -0.9359  0.2357 -0.0090
  235MOL    H7833306   4.701   3.462   1.297  0.4698  2.8785  1.1333
  235MOL    C7933307   4.736   3.541   1.484  0.5139 -0.3526  0.7963
  235MOL    C8033308   4.811   3.673   1.455  0.2736 -0.6351  0.6719
  235MOL    C8133309   4.775   3.795   1.532 -0.1339  0.2330 -0.0053
  235MOL    N8233310   4.739   3.884   1.597 -0.5711 -0.1640 -0.4534
  235MOL    H8333311   4.677   3.557   1.574 -1.3282 -0.4314 -0.3922
  235MOL    H8433312   4.813   3.470   1.516  0.4309 -0.7042  0.2187
  235MOL    H8533313   4.776   3.703   1.356  0.0128 -0.0933  0.9252
  235MOL    C8633314   4.965   3.658   1.450  0.4466 -0.2085 -0.3372
  235MOL    C8733315   5.033   3.769   1.354  0.0658 -0.3417  0.3751
  235MOL    C8833316   5.004   3.912   1.374  0.3499 -0.5686 -0.3443
  235MOL    N8933317   4.972   4.024   1.387 -0.2728  0.4526  0.4357
  235MOL    H9033318   5.016   3.654   1.547  2.0331 -1.0318 -1.1872
  235MOL    H9133319   4.979   3.558   1.410  3.0744  0.1740 -0.4450
  235MOL    H9233320   4.988   3.757   1.255 -0.2376 -0.9555  0.5866
  235MOL    C9333321   5.192   3.752   1.338 -0.1037 -0.7978  0.0700
  235MOL    C9433322   5.248   3.853   1.238 -0.9085  0.7156 -0.7366
  235MOL    C9533323   5.287   3.989   1.286  0.1981  0.3921 -0.1829
  235MOL    N9633324   5.314   4.093   1.332  0.0956 -0.5316  0.0978
  235MOL    H9733325   5.236   3.760   1.438  0.8630 -0.4418 -0.3838
  235MOL    H9833326   5.205   3.645   1.316  3.4421 -0.0601 -1.8633
  235MOL    H9933327   5.189   3.872   1.148  1.2978 -1.0018 -2.6059
  235MOL   C10033328   5.379   3.790   1.175  0.0485  0.5011 -0.1485
  235MOL   C10133329   5.439   3.872   1.059 -0.8519 -0.2612 -0.2573
  235MOL   C10233330   5.580   3.831   1.044 -0.1802  0.5232 -0.4953
  235MOL   N10333331   5.690   3.804   1.046 -0.1265 -0.2577  0.4694
  235MOL   H10433332   5.459   3.781   1.249 -0.8955  0.0799  0.8343
  235MOL   H10533333   5.350   3.691   1.139 -0.9501 -0.4459  3.0245
  235MOL   H10633334   5.449   3.975   1.089  1.3387  0.0065 -1.8128
  235MOL   C10733335   5.363   3.859   0.933  0.1357 -0.4252  0.1416
  235MOL   C10833336   5.428   3.907   0.801 -1.1003  0.7606  0.3579
  235MOL   C10933337   5.511   3.796   0.738  0.1520  0.7206 -0.4896
  235MOL   N11033338   5.577   3.716   0.685  0.5422 -0.0450  0.2146
  235MOL   H11133339   5.333   3.755   0.917  1.0642 -0.6642 -0.0631
  235MOL   H11233340   5.267   3.910   0.946 -0.7073 -2.0124  0.2402
  235MOL   H11333341   5.509   3.976   0.823 -1.7821  0.9742  2.3047
  235MOL   C11433342   5.339   3.977   0.703  0.0707 -0.4783  0.4900
  235MOL   C11533343   5.251   3.884   0.615  0.2793 -1.3737 -0.0348
  235MOL   C11633344   5.152   3.811   0.697  0.3054  0.3183  0.0234
  235MOL   N11733345   5.074   3.750   0.758  0.0683 -0.1368  0.1787
  235MOL   H11833346   5.277   4.051   0.753  0.6160  0.8177 -0.7378
  235MOL   H11933347   5.395   4.035   0.630  0.4919 -3.1643 -1.4023
  235MOL   H12033348   5.319   3.816   0.563  0.5322 -1.4248  0.3602
  235MOL   C12133349   5.177   3.960   0.498 -0.3439 -0.1460  0.1364
  235MOL   C12233350   5.053   4.038   0.544 -0.4162 -0.3877 -0.3197
  235MOL   C12333351   5.087   4.164   0.617  0.0266 -0.7356 -0.0375
  235MOL   N12433352   5.124   4.261   0.672  0.6712 -0.2737 -0.0354
  235MOL   H12533353   5.242   4.011   0.426 -3.0873  2.8364 -0.3654
  235MOL   H12633354   5.145   3.883   0.428 -3.1221  0.2362  0.9452
  235MOL   H12733355   4.998   3.982   0.619 -2.0633  0.7335 -0.6755
  235MOL   C12833356   4.957   4.063   0.425  0.1371 -0.0885  0.4331
  235MOL   C12933357   4.809   4.092   0.469 -0.2010 -0.0750  0.2415
  235MOL   C13033358   4.789   4.172   0.593  0.5822  0.2070 -0.5771
  235MOL   N13133359   4.769   4.233   0.690  0.2461 -0.2810 -0.1080
  235MOL   H13233360   4.986   4.147   0.363  0.8582 -0.1550  0.6708
  235MOL   H13333361   4.954   3.979   0.355  1.1077 -0.2644  0.5925
  235MOL   H13433362   4.774   3.997   0.510  1.6185 -0.7862  0.2052
  235MOL   C13533363   4.699   4.119   0.362 -0.5414  0.3529  0.6851
  235MOL   C13633364   4.735   4.227   0.254  0.0743 -0.0415 -0.2539
  235MOL   C13733365   4.645   4.231   0.141  0.2734  0.0684  0.0630
  235MOL   N13833366   4.575   4.238   0.051  0.5642 -0.2208  0.1285
  235MOL   H13933367   4.692   4.022   0.314 -0.6998 -0.1057  1.6252
  235MOL   H14033368   4.603   4.146   0.406 -1.0315  0.0768 -0.2059
  235MOL   H14133369   4.824   4.200   0.196 -0.8807 -0.3352 -1.6018
  235MOL   H14233370   4.746   4.326   0.298 -0.4205  0.1394 -0.5379
  236MOL     C133371   4.749   3.087   5.835  0.5837 -0.4035  0.5433
  236MOL     C233372   4.741   2.934   5.846 -0.1338 -0.0337 -0.1350
  236MOL     C333373   4.710   2.870   5.717  0.1660 -0.0536  0.8641
  236MOL     N433374   4.693   2.825   5.608  0.0328  0.3511  0.2399
  236MOL     H533375   4.765   3.125   5.936 -3.4447 -1.8999  1.8473
  236MOL     H633376   4.651   3.122   5.804  0.8527  1.0730  1.3296
  236MOL     H733377   4.659   2.910   5.914 -1.8504 -1.4205 -2.6525
  236MOL     H833378   4.817   3.117   5.755 -0.2842 -0.4158 -0.2048
  236MOL     C933379   4.869   2.881   5.897 -0.3903 -0.0332 -0.0245
  236MOL    C1033380   4.871   2.742   5.949  0.3599 -0.2019 -0.0031
  236MOL    C1133381   4.994   2.661   5.941 -0.2810  0.9602 -0.3033
  236MOL    N1233382   5.093   2.597   5.927  0.5407 -0.2921  0.4089
  236MOL    H1333383   4.946   2.895   5.821  1.1223  2.7704  1.9306
  236MOL    H1433384   4.900   2.948   5.977 -0.6424 -0.4603  0.4341
  236MOL    H1533385   4.809   2.686   5.879  0.8169 -1.0148  0.2363
  236MOL    C1633386   4.819   2.723   6.095  0.3547 -0.3756 -0.5923
  236MOL    C1733387   4.920   2.715   6.216  0.2150 -0.2761 -0.5423
  236MOL    C1833388   5.008   2.830   6.209  0.2860  0.4675  0.5964
  236MOL    N1933389   5.078   2.921   6.192  0.5516  0.8242  0.1658
  236MOL    H2033390   4.736   2.790   6.119  0.7913 -0.0976  0.1692
  236MOL    H2133391   4.764   2.629   6.100 -2.4590  1.2511  0.3033
  236MOL    H2233392   4.991   2.633   6.208 -0.8996 -1.4336  0.8457
  236MOL    C2333393   4.834   2.699   6.347  0.6477 -0.3615 -0.0303
  236MOL    C2433394   4.908   2.683   6.478  0.6529 -0.0402 -0.0616
  236MOL    C2533395   4.978   2.802   6.533 -0.7916 -0.2482 -0.0113
  236MOL    N2633396   5.035   2.894   6.577 -0.5186 -0.0373 -0.1508
  236MOL    H2733397   4.767   2.784   6.362  2.4865  1.1279 -0.1364
  236MOL    H2833398   4.771   2.611   6.334  2.0329 -1.1592 -1.4712
  236MOL    H2933399   4.984   2.608   6.461 -0.0987 -1.0482  0.9580
  236MOL    C3033400   4.808   2.623   6.576  0.1841  0.0852  0.5987
  236MOL    C3133401   4.837   2.654   6.722  0.0570 -0.2939 -0.3966
  236MOL    C3233402   4.720   2.602   6.802 -0.0627  0.6590 -0.2483
  236MOL    N3333403   4.637   2.567   6.865  0.4023  0.1954  0.5512
  236MOL    H3433404   4.711   2.662   6.544  0.2872  0.0269  0.2080
  236MOL    H3533405   4.799   2.516   6.558 -2.1748  0.6272 -1.7855
  236MOL    H3633406   4.826   2.759   6.748 -2.4911 -0.8194  0.8286
  236MOL    C3733407   4.975   2.600   6.781 -0.1951  0.4703 -0.1189
  236MOL    C3833408   4.970   2.493   6.896  0.3261 -0.6188  0.5447
  236MOL    C3933409   4.900   2.373   6.848 -0.5450  0.3404  0.4931
  236MOL    N4033410   4.847   2.275   6.810  0.0318  0.2310 -0.7238
  236MOL    H4133411   5.038   2.567   6.698  0.0277 -0.1853  0.3119
  236MOL    H4233412   5.026   2.689   6.819  0.4133 -0.8878  2.2959
  236MOL    H4333413   4.917   2.528   6.984 -0.8531  1.5607 -0.9767
  236MOL    C4433414   5.115   2.464   6.950 -0.8662 -0.3194  0.5831
  236MOL    C4533415   5.124   2.385   7.080 -0.4346  0.4229  0.2058
  236MOL    C4633416   5.087   2.244   7.070  0.5048  0.1736  0.3595
  236MOL    N4733417   5.054   2.134   7.069  0.0953 -0.1454 -0.5771
  236MOL    H4833418   5.168   2.421   6.866  0.9139 -0.1567  1.6109
  236MOL    H4933419   5.163   2.561   6.963 -1.0347 -0.1784  0.1690
  236MOL    H5033420   5.041   2.422   7.140 -1.5760 -0.1658 -0.9832
  236MOL    C5133421   5.262   2.400   7.156 -0.2423 -0.0099 -0.3739
  236MOL    C5233422   5.285   2.535   7.226 -0.3610 -0.1725  0.1619
  236MOL    C5333423   5.184   2.548   7.328 -0.3663 -0.0696 -0.0232
  236MOL    N5433424   5.100   2.560   7.411 -0.0782  0.2849 -1.5321
  236MOL    H5533425   5.285   2.320   7.227 -3.6750 -1.3038 -0.6271
  236MOL    H5633426   5.345   2.403   7.086  0.3092  1.2436  0.3102
  236MOL    H5733427   5.256   2.618   7.162 -2.4924  1.4653  3.1800
  236MOL    C5833428   5.429   2.575   7.285  1.0599  0.3455  0.7054
  236MOL    C5933429   5.458   2.547   7.435  0.4926 -0.5544  0.0343
  236MOL    C6033430   5.456   2.409   7.456  0.1061 -0.1298 -0.2579
  236MOL    N6133431   5.442   2.297   7.467 -0.6498 -0.2589  1.0819
  236MOL    H6233432   5.506   2.529   7.223 -0.0682 -1.5767  0.6960
  236MOL    H6333433   5.437   2.683   7.279  0.4540  0.4331  1.3655
  236MOL    H6433434   5.382   2.583   7.504  1.1885 -1.8015  1.5100
  236MOL    C6533435   5.590   2.614   7.467 -0.4928  0.1317  0.6140
  236MOL    C6633436   5.631   2.598   7.615 -0.3085  0.0374 -0.0193
  236MOL    C6733437   5.632   2.461   7.679  0.0083  0.0769  0.5799
  236MOL    N6833438   5.635   2.355   7.728 -0.2014 -0.6271 -0.1484
  236MOL    H6933439   5.669   2.579   7.401 -0.3885  1.9671 -0.2354
  236MOL    H7033440   5.577   2.721   7.458  1.4245  0.2985 -0.4146
  236MOL    H7133441   5.544   2.635   7.668  2.0267  1.6570  2.7943
  236MOL    C7233442   5.761   2.681   7.647 -0.5740  0.1496  0.6680
  236MOL    C7333443   5.790   2.711   7.796  0.0827  0.0378  0.6074
  236MOL    C7433444   5.834   2.592   7.871 -0.1522 -0.4648 -0.2851
  236MOL    N7533445   5.867   2.499   7.934 -0.1451 -0.2664  0.6066
  236MOL    H7633446   5.851   2.635   7.605 -0.1231  0.7607  0.9547
  236MOL    H7733447   5.765   2.766   7.579 -1.2600 -0.0124  0.4194
  236MOL    H7833448   5.700   2.754   7.839 -0.8843  0.4065 -1.6802
  236MOL    C7933449   5.899   2.814   7.821 -0.4029  0.4247  0.6706
  236MOL    C8033450   5.877   2.956   7.786 -0.1384 -0.0670 -0.4911
  236MOL    C8133451   5.727   2.990   7.770 -0.3705 -0.0219 -0.2337
  236MOL    N8233452   5.612   3.017   7.759 -0.9366  0.3268 -0.4674
  236MOL    H8333453   5.914   2.809   7.928 -1.6920  1.1381  0.8874
  236MOL    H8433454   5.996   2.784   7.780 -0.5783 -1.0900  1.3188
  236MOL    H8533455   5.925   2.964   7.689  0.7925 -0.0794 -0.0359
  236MOL    C8633456   5.953   3.056   7.878  0.2522 -0.3923 -0.8228
  236MOL    C8733457   6.100   3.049   7.851  0.7370 -0.5031  0.2967
  236MOL    C8833458   6.150   3.094   7.726 -0.0450  0.5051  0.5547
  236MOL    N8933459   6.188   3.121   7.626  0.1172 -0.6929 -0.2197
  236MOL    H9033460   5.917   3.158   7.868  1.9187  0.3273  0.4867
  236MOL    H9133461   5.939   3.035   7.984  1.1911  0.9452 -0.4265
  236MOL    H9233462   6.126   2.943   7.860  0.6888 -0.5889 -0.5466
  236MOL    C9333463   6.172   3.122   7.975 -0.7005 -0.1442  0.0726
  236MOL    C9433464   6.283   3.037   8.041  0.1135  0.5938 -0.0934
  236MOL    C9533465   6.397   3.116   8.087 -0.0102 -0.2251  0.6008
  236MOL    N9633466   6.484   3.179   8.121  0.3545 -0.6414  0.0260
  236MOL    H9733467   6.229   3.202   7.929  0.1713  0.0707  1.4989
  236MOL    H9833468   6.095   3.164   8.040 -0.4656 -1.1595  1.0288
  236MOL    H9933469   6.322   2.965   7.969  1.3362  0.2681  0.8934
  236MOL   C10033470   6.221   2.943   8.151  0.0876 -0.1607  0.1809
  236MOL   C10133471   6.168   3.033   8.269 -0.3301  0.2652 -0.7539
  236MOL   C10233472   6.028   3.061   8.254  0.2685  0.2454  0.0935
  236MOL   N10333473   5.917   3.089   8.246  0.1802 -0.1149  0.2036
  236MOL   H10433474   6.140   2.881   8.114  0.0073 -1.2637  2.1446
  236MOL   H10533475   6.298   2.878   8.193 -0.5672 -0.6032  0.7049
  236MOL   H10633476   6.219   3.129   8.274 -2.9621  1.6338  0.6889
  236MOL   C10733477   6.192   2.963   0.097 -0.6271 -0.2539 -0.7879
  236MOL   C10833478   6.130   3.021   0.224  0.1731 -0.1812  1.0470
  236MOL   C10933479   6.110   3.167   0.193 -0.7998  0.2374  0.9056
  236MOL   N11033480   6.101   3.276   0.172  0.4523  0.9016  0.4186
  236MOL   H11133481   6.168   2.857   0.090  0.2170 -0.5370  0.4714
  236MOL   H11233482   6.299   2.967   0.119 -0.6504  2.6797 -1.0403
  236MOL   H11333483   6.193   3.010   0.312  0.8080 -2.1478  0.3707
  236MOL   C11433484   5.999   2.952   0.272 -0.1213  0.3820  0.5411
  236MOL   C11533485   5.923   3.015   0.396  0.4185 -0.4153  0.1417
  236MOL   C11633486   6.008   3.071   0.503 -0.1287  0.0288  0.6426
  236MOL   N11733487   6.078   3.116   0.580 -0.6767  0.0752  0.3403
  236MOL   H11833488   5.930   2.936   0.190 -0.6543 -0.5092  1.1495
  236MOL   H11933489   6.033   2.853   0.304 -1.1340  0.5208  2.0933
  236MOL   H12033490   5.869   2.935   0.447  1.0750 -0.1319  1.2908
  236MOL   C12133491   5.833   3.125   0.339  0.6941  0.6011 -0.4283
  236MOL   C12233492   5.704   3.143   0.421  0.2623  0.4453 -0.8277
  236MOL   C12333493   5.623   3.021   0.429  0.1256 -0.7835  0.5158
  236MOL   N12433494   5.556   2.927   0.438  0.0920 -0.1142  0.1542
  236MOL   H12533495   5.887   3.220   0.343  1.4968  0.2216 -1.9737
  236MOL   H12633496   5.808   3.100   0.236 -1.5658  2.8281 -0.4676
  236MOL   H12733497   5.633   3.211   0.373 -1.9288 -1.3931 -0.3291
  236MOL   C12833498   5.729   3.216   0.558 -0.5627 -0.0901  0.1435
  236MOL   C12933499   5.606   3.263   0.639  0.1097 -0.3881  0.8112
  236MOL   C13033500   5.535   3.151   0.714 -0.2930 -0.3518 -0.0582
  236MOL   N13133501   5.478   3.062   0.768  0.1467 -0.5232  1.0569
  236MOL   H13233502   5.793   3.156   0.623  1.8965  3.5980  1.2426
  236MOL   H13333503   5.787   3.303   0.529 -1.0053  0.1655  0.0235
  236MOL   H13433504   5.538   3.313   0.570  1.5450 -0.3007 -0.5416
  236MOL   C13533505   5.635   3.374   0.743  0.5004  0.0050  0.1080
  236MOL   C13633506   5.528   3.396   0.853 -0.3006  0.0260  0.6285
  236MOL   C13733507   5.398   3.417   0.797 -0.6968  0.3574 -0.4102
  236MOL   N13833508   5.294   3.442   0.750 -0.2108  0.2170 -0.6800
  236MOL   H13933509   5.727   3.348   0.795  0.2487 -0.9615  0.0865
  236MOL   H14033510   5.652   3.470   0.694 -0.4250 -0.9589 -2.2330
  236MOL   H14133511   5.581   3.476   0.903 -1.6952  0.4902  1.4079
  236MOL   H14233512   5.526   3.317   0.928 -0.4195 -0.9838 -0.4144
  237MOL     C133513   5.902   7.331   5.056  0.3148 -0.0970 -0.1550
  237MOL     C233514   5.917   7.186   5.035 -0.7566  0.1067 -0.1477
  237MOL     C333515   6.053   7.138   5.052  0.2681 -0.3026  0.3852
  237MOL     N433516   6.160   7.094   5.069 -0.0325  0.3025 -0.4332
  237MOL     H533517   5.947   7.360   5.151 -0.1195  3.9347 -1.0662
  237MOL     H633518   5.800   7.365   5.045 -0.2121 -0.7557  2.3599
  237MOL     H733519   5.891   7.157   4.934  1.0280  1.0360 -0.8900
  237MOL     H833520   5.969   7.374   4.982 -0.6666 -0.1282 -1.0643
  237MOL     C933521   5.822   7.111   5.131  0.1115 -0.2095  0.0697
  237MOL    C1033522   5.664   7.137   5.106  1.0947  0.5882  0.9858
  237MOL    C1133523   5.630   7.117   4.963 -0.4407 -0.2844  0.8059
  237MOL    N1233524   5.594   7.099   4.853  0.2267 -0.3628 -0.4854
  237MOL    H1333525   5.850   7.006   5.120 -1.2190 -0.5839  0.1295
  237MOL    H1433526   5.846   7.136   5.234  2.2363 -1.7601 -0.0075
  237MOL    H1533527   5.636   7.239   5.131 -0.2382  0.7917 -1.1994
  237MOL    C1633528   5.575   7.058   5.210 -0.5079 -0.1979 -0.0514
  237MOL    C1733529   5.423   7.056   5.170  0.9459  0.2599  0.2817
  237MOL    C1833530   5.399   6.934   5.083 -0.3149  0.6277 -0.4523
  237MOL    N1933531   5.385   6.833   5.021 -1.1153  0.4488 -0.2331
  237MOL    H2033532   5.620   6.960   5.222 -1.9723 -0.6544  2.0329
  237MOL    H2133533   5.570   7.103   5.309 -1.2148 -0.5504  0.0794
  237MOL    H2233534   5.397   7.142   5.108  2.1326  0.5216  0.1335
  237MOL    C2333535   5.325   7.047   5.286  0.0522 -0.0163 -0.3776
  237MOL    C2433536   5.333   6.915   5.371  0.1897 -0.0756 -0.1504
  237MOL    C2533537   5.467   6.890   5.421 -0.5452 -0.3006 -0.1907
  237MOL    N2633538   5.574   6.876   5.464  0.6709  0.0661  0.1380
  237MOL    H2733539   5.346   7.132   5.351 -0.1570  0.3059 -0.7324
  237MOL    H2833540   5.231   7.057   5.232  0.9148 -2.0261 -2.3335
  237MOL    H2933541   5.308   6.832   5.304  0.3285  0.3434 -0.7209
  237MOL    C3033542   5.236   6.912   5.496  0.0108  1.2526 -0.0082
  237MOL    C3133543   5.219   6.774   5.563 -0.1319  0.9831  0.0963
  237MOL    C3233544   5.153   6.808   5.689  0.0071 -0.1640 -0.9358
  237MOL    N3333545   5.101   6.837   5.788  0.4391  0.0310 -0.0169
  237MOL    H3433546   5.272   6.982   5.572 -0.1604  2.6910 -1.2301
  237MOL    H3533547   5.135   6.943   5.469  0.1554  1.5745 -0.1757
  237MOL    H3633548   5.316   6.732   5.591  0.3801  0.1181 -2.7117
  237MOL    C3733549   5.137   6.672   5.487  0.2736  0.6636 -0.5202
  237MOL    C3833550   5.100   6.542   5.562  0.2827 -0.2029 -0.7416
  237MOL    C3933551   5.190   6.508   5.672 -0.4496  0.1060  0.1749
  237MOL    N4033552   5.267   6.484   5.756  0.5238 -0.9629  0.2546
  237MOL    H4133553   5.050   6.732   5.458  1.0446  2.2880  0.4786
  237MOL    H4233554   5.182   6.652   5.390 -0.9769 -1.1268 -0.7512
  237MOL    H4333555   5.122   6.465   5.488 -1.8801  2.0302 -3.8409
  237MOL    C4433556   4.951   6.538   5.598 -0.4205 -0.3244  0.7447
  237MOL    C4533557   4.913   6.419   5.692 -0.2373  0.1247  0.1077
  237MOL    C4633558   4.957   6.445   5.830 -0.2910 -0.3746 -0.2570
  237MOL    N4733559   4.987   6.469   5.938 -0.1189  0.0102  0.3113
  237MOL    H4833560   4.936   6.626   5.660 -0.0250  1.1698 -1.2523
  237MOL    H4933561   4.889   6.545   5.509 -1.1506  0.2273  1.2995
  237MOL    H5033562   4.973   6.337   5.652  0.9872  0.0097  2.0786
  237MOL    C5133563   4.765   6.372   5.684 -0.5741  0.5756  0.2439
  237MOL    C5233564   4.670   6.485   5.721  0.3978 -0.7033 -0.2225
  237MOL    C5333565   4.622   6.547   5.596 -0.1605  0.0376  0.2827
  237MOL    N5433566   4.586   6.596   5.498 -0.7764 -1.1138 -0.2504
  237MOL    H5533567   4.745   6.324   5.588  0.2424  0.4183  0.1445
  237MOL    H5633568   4.758   6.282   5.746  1.6669  0.0807 -0.1715
  237MOL    H5733569   4.727   6.562   5.774  0.8284 -1.1353 -0.0600
  237MOL    C5833570   4.545   6.422   5.797  0.5169 -0.2926 -0.0759
  237MOL    C5933571   4.579   6.358   5.934 -0.7063  0.5621  0.1491
  237MOL    C6033572   4.638   6.454   6.024  0.0659  0.3451 -0.5952
  237MOL    N6133573   4.683   6.529   6.101  0.6146  0.3007  0.2141
  237MOL    H6233574   4.464   6.493   5.813  0.6368  0.2216 -1.6566
  237MOL    H6333575   4.510   6.340   5.735  1.3667  0.1807 -1.2078
  237MOL    H6433576   4.649   6.278   5.911 -3.3082 -1.3986 -1.2124
  237MOL    C6533577   4.456   6.290   6.010  0.1571  0.0179  0.3240
  237MOL    C6633578   4.375   6.194   5.921 -0.3227 -0.0597  0.3917
  237MOL    C6733579   4.467   6.089   5.875 -0.6006  0.3831 -0.4488
  237MOL    N6833580   4.542   6.009   5.843 -0.2020  0.1163  0.7577
  237MOL    H6933581   4.498   6.229   6.090 -0.9231 -0.9693  0.1506
  237MOL    H7033582   4.394   6.361   6.063 -1.3572  0.5728 -2.0953
  237MOL    H7133583   4.340   6.253   5.837 -2.9231  1.5618  2.5423
  237MOL    C7233584   4.244   6.144   5.991 -0.0389 -0.4691  0.2416
  237MOL    C7333585   4.153   6.044   5.923 -0.2290 -1.0846  0.2595
  237MOL    C7433586   4.029   6.029   6.005 -0.1817  0.5235 -0.3164
  237MOL    N7533587   3.932   6.021   6.067  0.0715  0.2538  0.4075
  237MOL    H7633588   4.279   6.103   6.085 -0.1106  1.3781  1.0896
  237MOL    H7733589   4.182   6.229   6.018  0.1245 -0.6558  1.2336
  237MOL    H7833590   4.200   5.946   5.933  0.7869 -0.7493 -1.0683
  237MOL    C7933591   4.129   6.069   5.772 -0.1623  0.5135  0.3850
  237MOL    C8033592   4.081   6.212   5.723  0.2461 -0.2505 -0.2829
  237MOL    C8133593   4.105   6.226   5.579 -0.1535 -1.0080  0.2153
  237MOL    N8233594   4.124   6.245   5.468 -0.3593 -0.1231  0.3891
  237MOL    H8333595   4.216   6.033   5.716 -0.2969 -0.7590  0.9648
  237MOL    H8433596   4.058   6.001   5.725  0.0970  1.7682 -1.8802
  237MOL    H8533597   4.153   6.280   5.769 -0.3046  0.0153  0.2097
  237MOL    C8633598   3.936   6.244   5.766 -0.2416  0.4579 -0.3928
  237MOL    C8733599   3.872   6.373   5.712 -0.3058  0.2890 -0.3890
  237MOL    C8833600   3.737   6.391   5.771 -0.9993 -0.0586  0.3952
  237MOL    N8933601   3.636   6.402   5.824 -0.2614 -0.4151  0.0884
  237MOL    H9033602   3.877   6.154   5.748  1.4732 -0.8304  0.2578
  237MOL    H9133603   3.935   6.264   5.873 -1.3984  0.9158 -0.4785
  237MOL    H9233604   3.841   6.369   5.608  0.3493 -2.8488 -0.5090
  237MOL    C9333605   3.953   6.503   5.753  0.3674 -0.1882  0.1280
  237MOL    C9433606   4.069   6.549   5.654  0.6629 -0.1531  0.8543
  237MOL    C9533607   4.023   6.538   5.514  0.2363 -0.1833  0.1379
  237MOL    N9633608   3.986   6.535   5.406 -0.0577  0.0953  0.0529
  237MOL    H9733609   3.885   6.589   5.757  1.7949  1.0301 -1.1391
  237MOL    H9833610   3.999   6.484   5.849  0.1761  2.0388  0.6842
  237MOL    H9933611   4.153   6.480   5.652 -0.2846 -1.3596  1.6396
  237MOL   C10033612   4.132   6.686   5.686 -0.8241 -0.1191 -0.5854
  237MOL   C10133613   4.279   6.703   5.621  0.5926 -0.2831 -0.2316
  237MOL   C10233614   4.281   6.689   5.471  0.3731  0.6386  0.3437
  237MOL   N10333615   4.281   6.674   5.358  0.3253 -0.4391  0.8275
  237MOL   H10433616   4.063   6.765   5.656 -0.6350 -0.2266 -1.3175
  237MOL   H10533617   4.148   6.695   5.793  0.3737 -0.2231 -0.7581
  237MOL   H10633618   4.343   6.618   5.644  0.2210 -0.6566 -0.5704
  237MOL   C10733619   4.343   6.824   5.676  0.5202 -0.6350  0.5939
  237MOL   C10833620   4.293   6.955   5.611  0.3097 -0.3117  0.1134
  237MOL   C10933621   4.281   7.066   5.707  0.7031  0.1613 -0.2197
  237MOL   N11033622   4.268   7.147   5.783 -0.1727 -0.1262  0.3436
  237MOL   H11133623   4.322   6.822   5.783  0.2560  1.6157  0.6099
  237MOL   H11233624   4.451   6.820   5.664  0.2825 -1.9636 -1.1769
  237MOL   H11333625   4.196   6.938   5.566  0.4617 -1.5815  0.2366
  237MOL   C11433626   4.383   7.009   5.496 -0.2469 -0.1834 -0.0449
  237MOL   C11533627   4.316   7.122   5.413  0.7308 -0.3502  0.1772
  237MOL   C11633628   4.412   7.205   5.331 -0.5204  0.6259 -0.2696
  237MOL   N11733629   4.486   7.263   5.268 -0.1221  0.3529 -0.1126
  237MOL   H11833630   4.476   7.044   5.540  0.0243 -1.5374  0.5144
  237MOL   H11933631   4.421   6.929   5.432 -0.9810 -0.2841 -0.3583
  237MOL   H12033632   4.269   7.194   5.480 -0.3346  1.2321 -2.2126
  237MOL   C12133633   4.201   7.063   5.327 -0.0770 -0.4418 -1.0119
  237MOL   C12233634   4.118   7.157   5.233  0.0431 -0.6472 -0.1904
  237MOL   C12333635   4.043   7.072   5.140 -0.9310 -0.7361 -0.2943
  237MOL   N12433636   3.983   7.003   5.074 -0.1960 -0.5116  0.5700
  237MOL   H12533637   4.247   6.990   5.260 -1.6963 -1.2528 -1.2956
  237MOL   H12633638   4.130   7.002   5.385 -0.5749 -0.1689 -1.3325
  237MOL   H12733639   4.186   7.225   5.181  1.3522  0.1847  2.5093
  237MOL   C12833640   4.021   7.239   5.317  0.1215  0.0050  0.4108
  237MOL   C12933641   4.003   7.377   5.251  0.1934  0.5216 -0.1499
  237MOL   C13033642   3.963   7.365   5.111  0.7677  0.6092 -0.2449
  237MOL   N13133643   3.925   7.353   5.003  0.1123 -0.2217  0.5846
  237MOL   H13233644   3.924   7.192   5.328 -0.6220  1.5869  0.8617
  237MOL   H13333645   4.057   7.267   5.416  1.4857  3.6973 -0.9978
  237MOL   H13433646   4.100   7.427   5.246  1.6825 -2.3421 -0.7085
  237MOL   C13533647   3.895   7.466   5.332 -0.0900 -0.1674  0.0051
  237MOL   C13633648   3.894   7.610   5.279 -0.9734 -0.2319  0.3267
  237MOL   C13733649   3.823   7.634   5.162 -0.2539 -0.3817  0.6049
  237MOL   N13833650   3.759   7.647   5.068  0.2914  0.5426  0.9140
  237MOL   H13933651   3.796   7.421   5.338 -0.4867  1.0405  3.3498
  237MOL   H14033652   3.923   7.470   5.437 -0.7779 -0.5513  0.2081
  237MOL   H14133653   3.993   7.656   5.274 -0.2125 -1.8163  0.3842
  237MOL   H14233654   3.852   7.679   5.352 -0.7144 -0.7335  0.9502
  238MOL     C133655   6.535   0.817   1.249 -0.2462  0.4811  0.3905
  238MOL     C233656   6.462   0.688   1.303  0.4540 -0.9617 -0.1204
  238MOL     C333657   6.373   0.700   1.418 -0.1077  0.6478 -0.6467
  238MOL     N433658   6.303   0.706   1.513 -0.4185 -0.4454  0.5638
  238MOL     H533659   6.621   0.803   1.183  0.9664  0.4581  1.9657
  238MOL     H633660   6.565   0.866   1.342  0.3794 -0.8805  0.9139
  238MOL     H733661   6.543   0.624   1.340  1.1304 -1.3290 -2.1754
  238MOL     H833662   6.475   0.889   1.193  0.0909 -0.4961 -1.2753
  238MOL     C933663   6.388   0.618   1.184  0.0881 -0.1447  1.0106
  238MOL    C1033664   6.366   0.459   1.196 -0.0562 -0.1325  0.0965
  238MOL    C1133665   6.315   0.414   1.327 -0.6514 -0.4963 -0.3855
  238MOL    N1233666   6.275   0.377   1.430  0.1171  0.2714 -0.1389
  238MOL    H1333667   6.289   0.662   1.168  0.7419  0.8743 -0.2995
  238MOL    H1433668   6.430   0.647   1.088  0.8590 -0.9908  1.0873
  238MOL    H1533669   6.467   0.418   1.194  0.0538  0.1944 -0.9238
  238MOL    C1633670   6.291   0.403   1.076 -0.4712 -0.0560  0.5624
  238MOL    C1733671   6.308   0.254   1.047 -0.6045 -0.3413  0.7138
  238MOL    C1833672   6.266   0.175   1.165  0.1157 -0.2334  0.6499
  238MOL    N1933673   6.237   0.120   1.262 -0.1726  0.2485  0.8441
  238MOL    H2033674   6.186   0.432   1.079 -0.0661  1.2992  2.3530
  238MOL    H2133675   6.331   0.444   0.983 -0.7489  0.5526  0.7075
  238MOL    H2233676   6.415   0.232   1.047 -0.4638  0.2543 -1.7034
  238MOL    C2333677   6.230   0.202   0.920 -0.4445 -1.1116  0.2248
  238MOL    C2433678   6.272   0.254   0.779  0.0341 -0.6370  0.1527
  238MOL    C2533679   6.203   0.385   0.761  0.2063  0.1475 -0.4048
  238MOL    N2633680   6.145   0.485   0.748  0.5541  0.4983  0.0852
  238MOL    H2733681   6.232   0.094   0.934 -1.4190 -0.6977  3.8840
  238MOL    H2833682   6.124   0.228   0.932 -0.2978  1.2873 -2.9428
  238MOL    H2933683   6.228   0.185   0.707 -0.2265 -0.8182  0.4866
  238MOL    C3033684   6.429   0.246   0.749 -0.3332  0.1244 -0.9597
  238MOL    C3133685   6.461   0.227   0.599  0.4711 -0.1579  0.6656
  238MOL    C3233686   6.402   0.345   0.524 -0.7684  0.7899  0.1187
  238MOL    N3333687   6.357   0.435   0.470  1.1209 -0.2444 -0.2438
  238MOL    H3433688   6.489   0.319   0.803  0.7635 -1.6727  0.3038
  238MOL    H3533689   6.465   0.155   0.797  0.9760  0.6452 -0.9334
  238MOL    H3633690   6.425   0.135   0.553 -1.4629 -0.5609  2.8613
  238MOL    C3733691   6.611   0.225   0.581  0.1223 -0.1842  0.1214
  238MOL    C3833692   6.661   0.218   0.434 -0.0929  0.2370  0.0586
  238MOL    C3933693   6.666   0.348   0.366  0.7035 -0.0550  0.1411
  238MOL    N4033694   6.677   0.443   0.309  0.2105  0.3673 -0.9035
  238MOL    H4133695   6.652   0.310   0.636  1.4243  1.2410 -2.8839
  238MOL    H4233696   6.643   0.140   0.642  1.8788  0.8438  0.6701
  238MOL    H4333697   6.581   0.164   0.383  0.1472 -0.0448 -0.0207
  238MOL    C4433698   6.790   0.135   0.422  0.0517 -1.0922  0.4365
  238MOL    C4533699   6.777   8.296   0.441  0.5338 -0.2345 -0.2348
  238MOL    C4633700   6.675   8.236   0.351  0.3374  0.5163  0.3394
  238MOL    N4733701   6.597   8.184   0.282  0.5628  0.3095 -0.5386
  238MOL    H4833702   6.841   0.156   0.328 -0.0205 -0.8880  0.4424
  238MOL    H4933703   6.858   0.171   0.500  1.4265 -1.3146 -0.6465
  238MOL    H5033704   6.728   8.282   0.537  0.0059  2.1804 -0.1197
  238MOL    C5133705   6.910   8.212   0.438  0.1237 -0.1266  0.0352
  238MOL    C5233706   6.947   8.140   0.306 -0.7525 -0.1185 -0.3110
  238MOL    C5333707   6.944   8.236   0.191 -0.4523  0.2928  1.5821
  238MOL    N5433708   6.942   8.308   0.101 -0.9250  1.1123 -0.3020
  238MOL    H5533709   6.995   8.267   0.479  1.3729 -1.9286 -0.0957
  238MOL    H5633710   6.897   8.140   0.519  1.4712 -2.3624 -1.6586
  238MOL    H5733711   6.863   8.073   0.288 -0.9883  0.2272 -0.5155
  238MOL    C5833712   7.072   8.061   0.316  0.0187 -0.0404  0.3934
  238MOL    C5933713   7.123   8.000   0.191  0.0870 -0.5183  0.9292
  238MOL    C6033714   7.197   8.102   0.114  0.0507  0.0086 -1.2010
  238MOL    N6133715   7.260   8.176   0.051 -0.5550 -0.1424 -0.2144
  238MOL    H6233716   7.148   8.118   0.369 -1.0400 -0.5448  2.5336
  238MOL    H6333717   7.051   7.985   0.392 -1.5520 -0.0568 -0.0445
  238MOL    H6433718   7.047   7.973   0.118 -0.8505  2.7347  0.6140
  238MOL    C6533719   7.207   7.875   0.223 -0.1401 -0.0341  0.3133
  238MOL    C6633720   7.134   7.735   0.204 -0.3676  0.0761  0.2354
  238MOL    C6733721   7.117   7.706   0.064 -0.0340 -0.1456  0.0444
  238MOL    N6833722   7.103   7.677   8.262  0.1451  0.1650  0.4856
  238MOL    H6933723   7.295   7.870   0.159 -0.1553 -2.0852  0.3990
  238MOL    H7033724   7.250   7.883   0.323 -0.5252  1.0434  0.3923
  238MOL    H7133725   7.038   7.757   0.251 -0.9189 -1.2081 -0.2541
  238MOL    C7233726   7.196   7.617   0.284  0.5486  0.1427  0.3546
  238MOL    C7333727   7.295   7.535   0.203 -0.2871  0.0085  0.0114
  238MOL    C7433728   7.397   7.626   0.148 -0.3596 -0.6213  0.6450
  238MOL    N7533729   7.468   7.706   0.103  0.0173  0.4371 -0.4066
  238MOL    H7633730   7.241   7.657   0.374  1.9484  1.3825 -0.8631
  238MOL    H7733731   7.125   7.542   0.316  2.9398 -1.1649  2.7818
  238MOL    H7833732   7.249   7.494   0.113 -0.6135  0.7925 -0.1879
  238MOL    C7933733   7.345   7.420   0.286  0.0214 -0.5684  0.4078
  238MOL    C8033734   7.428   7.311   0.222  0.2897  0.5814  0.4205
  238MOL    C8133735   7.555   7.364   0.179 -0.2136 -0.1374 -0.3876
  238MOL    N8233736   7.658   7.406   0.144 -0.0944 -0.0790 -0.0985
  238MOL    H8333737   7.383   7.451   0.383 -2.1406  0.0160  1.0887
  238MOL    H8433738   7.254   7.363   0.301 -1.6346  1.5213 -1.3600
  238MOL    H8533739   7.380   7.271   0.133 -0.6598  1.8818  0.3351
  238MOL    C8633740   7.451   7.184   0.311 -0.0566 -0.0793  0.6197
  238MOL    C8733741   7.462   7.195   0.463 -0.0572  0.6811  0.5870
  238MOL    C8833742   7.574   7.284   0.497  0.1484  0.1597 -0.5002
  238MOL    N8933743   7.661   7.358   0.528  0.2258  1.0584  0.0185
  238MOL    H9033744   7.372   7.112   0.290 -0.5946  0.6490  0.1456
  238MOL    H9133745   7.547   7.139   0.288  1.1049  1.7107  1.8098
  238MOL    H9233746   7.500   7.099   0.497  1.8064  1.4432  0.7042
  238MOL    C9333747   7.331   7.223   0.552  0.3616  1.0636  0.4508
  238MOL    C9433748   7.204   7.142   0.512 -0.7021  0.9759  0.1082
  238MOL    C9533749   7.231   7.000   0.547  0.0933  0.0885 -0.5340
  238MOL    N9633750   7.250   6.890   0.581  0.7730 -0.3179  0.4923
  238MOL    H9733751   7.350   7.211   0.659  0.5437  0.7494  0.3844
  238MOL    H9833752   7.310   7.330   0.551 -2.7873  0.5143  1.3051
  238MOL    H9933753   7.192   7.148   0.404 -0.1256  1.6619  0.0751
  238MOL   C10033754   7.077   7.189   0.576  0.8391 -0.4546  0.5218
  238MOL   C10133755   6.952   7.118   0.531  0.0518  0.0063 -0.4340
  238MOL   C10233756   6.847   7.135   0.629  0.3206 -0.0903  0.3066
  238MOL   N10333757   6.762   7.140   0.704  0.1308 -0.5846  0.3178
  238MOL   H10433758   7.089   7.175   0.683 -0.5566  0.9884  0.8816
  238MOL   H10533759   7.067   7.297   0.564 -2.0181 -0.5739  1.3019
  238MOL   H10633760   6.960   7.009   0.533 -1.4844 -0.1210 -0.7835
  238MOL   C10733761   6.908   7.176   0.387  0.1447 -0.6340  0.2616
  238MOL   C10833762   6.817   7.085   0.305 -0.6538  0.5923 -0.5414
  238MOL   C10933763   6.807   6.939   0.336 -0.3362 -0.3745 -0.1455
  238MOL   N11033764   6.800   6.824   0.358 -0.7014  0.4218  0.4717
  238MOL   H11133765   6.875   7.278   0.408 -0.5538 -0.9541  0.7634
  238MOL   H11233766   6.995   7.196   0.325  0.6644  1.6183  1.6449
  238MOL   H11333767   6.847   7.084   0.200 -0.3129 -0.2554 -0.4389
  238MOL   C11433768   6.673   7.155   0.304 -0.6580 -0.4042  0.2160
  238MOL   C11533769   6.582   7.125   0.188 -0.4716 -1.1978 -0.0077
  238MOL   C11633770   6.548   6.986   0.190 -0.7190 -0.6913  0.0291
  238MOL   N11733771   6.520   6.874   0.184  0.5317  0.4518 -0.2876
  238MOL   H11833772   6.615   7.130   0.393  0.2680  0.6543  1.1438
  238MOL   H11933773   6.692   7.262   0.307  2.5162 -0.8911 -0.9390
  238MOL   H12033774   6.630   7.144   0.092 -1.7763 -0.9296 -0.6116
  238MOL   C12133775   6.448   7.200   0.189  0.4271  0.2525 -0.0803
  238MOL   C12233776   6.395   7.233   0.047  0.3848  0.2793 -0.7260
  238MOL   C12333777   6.417   7.125   8.262  0.2765  1.6162 -0.7753
  238MOL   N12433778   6.434   7.039   8.185  0.3859 -0.4842 -0.5691
  238MOL   H12533779   6.374   7.143   0.245  0.7303  0.5237  0.6149
  238MOL   H12633780   6.455   7.297   0.240 -0.0195 -0.6582  1.7710
  238MOL   H12733781   6.459   7.309   0.000 -2.7729  0.2965 -5.3828
  238MOL   C12833782   6.251   7.277   0.058 -0.0233 -0.1875 -0.2432
  238MOL   C12933783   6.192   7.363   8.259 -0.7896 -0.7684 -1.1151
  238MOL   C13033784   6.260   7.492   8.250 -0.0993 -0.1301  0.0129
  238MOL   N13133785   6.314   7.593   8.241  0.4055  0.3011 -0.0338
  238MOL   H13233786   6.191   7.188   0.076 -0.9598  0.6741  0.9323
  238MOL   H13333787   6.234   7.338   0.147 -1.5375 -3.1785  1.5817
  238MOL   H13433788   6.096   7.385   8.306 -0.5554  0.0111 -0.9927
  238MOL   C13533789   6.190   7.297   8.117  0.4693  0.2235  0.1542
  238MOL   C13633790   6.098   7.364   8.010 -0.4963 -0.4202 -0.0286
  238MOL   C13733791   6.146   7.355   7.876 -0.2411  0.5353 -0.1315
  238MOL   N13833792   6.186   7.343   7.767 -0.0935 -0.1045 -0.2662
  238MOL   H13933793   6.287   7.294   8.068 -0.5377 -0.0872 -1.8474
  238MOL   H14033794   6.166   7.191   8.119 -1.9647  0.7723  1.3939
  238MOL   H14133795   6.099   7.471   8.030 -0.2120 -0.4585  0.1571
  238MOL   H14233796   5.993   7.333   8.006 -0.7993  0.4963  0.5708
  239MOL     C133797   6.812   2.406   5.734  0.5175  0.3367  0.1028
  239MOL     C233798   6.741   2.337   5.617  0.7220 -0.6631  0.5248
  239MOL     C333799   6.655   2.227   5.657 -0.5309 -0.3019 -0.1475
  239MOL     N433800   6.583   2.141   5.687 -0.1464 -0.4001  0.4267
  239MOL     H533801   6.861   2.489   5.685 -2.4002  0.2615 -3.1941
  239MOL     H633802   6.881   2.343   5.790  0.1462 -1.8873 -1.8602
  239MOL     H733803   6.821   2.292   5.559  0.5535  0.5957 -0.7379
  239MOL     H833804   6.733   2.443   5.799 -1.5904  0.6349 -2.5407
  239MOL     C933805   6.655   2.435   5.528 -0.0083 -0.6234 -0.2047
  239MOL    C1033806   6.737   2.542   5.450 -0.1554  0.3797 -1.0528
  239MOL    C1133807   6.866   2.491   5.395  0.3009 -0.7509  0.1827
  239MOL    N1233808   6.971   2.450   5.361  0.3112 -0.9092 -0.0067
  239MOL    H1333809   6.606   2.373   5.454 -0.1953 -2.1872  1.2199
  239MOL    H1433810   6.575   2.471   5.592  1.8720  2.3788  0.5538
  239MOL    H1533811   6.776   2.614   5.523 -1.7709 -0.8218  1.0352
  239MOL    C1633812   6.667   2.624   5.334  0.3365 -0.1047  0.1470
  239MOL    C1733813   6.739   2.747   5.272  0.0136  0.2187  0.3251
  239MOL    C1833814   6.735   2.866   5.362  0.0542 -0.0464 -0.2330
  239MOL    N1933815   6.730   2.956   5.434  0.3291 -0.6112 -0.2235
  239MOL    H2033816   6.634   2.552   5.259  0.9241  0.4147 -0.6198
  239MOL    H2133817   6.569   2.658   5.366 -1.2470 -2.1472 -2.3975
  239MOL    H2233818   6.677   2.783   5.189 -2.8282  0.4234  2.4631
  239MOL    C2333819   6.877   2.729   5.202  0.1365 -0.0380 -0.1301
  239MOL    C2433820   6.914   2.841   5.098 -0.0758  0.2017  0.0026
  239MOL    C2533821   6.814   2.830   4.993 -0.9030 -0.2413  0.5393
  239MOL    N2633822   6.731   2.818   4.910 -0.5451 -0.3069 -0.5824
  239MOL    H2733823   6.961   2.721   5.272  1.0427  0.4875 -1.1338
  239MOL    H2833824   6.874   2.637   5.144  1.4337 -1.2143  1.6115
  239MOL    H2933825   7.006   2.815   5.046 -1.6068 -1.6829 -1.8465
  239MOL    C3033826   6.932   2.988   5.150 -0.4093  0.1848  0.5398
  239MOL    C3133827   7.029   3.001   5.267  0.6930 -0.4168 -0.3378
  239MOL    C3233828   7.166   2.948   5.232 -0.2657 -1.1091 -0.2605
  239MOL    N3333829   7.266   2.910   5.198 -0.2551 -0.1498 -0.5474
  239MOL    H3433830   6.975   3.047   5.069  0.2509  0.0155  0.7671
  239MOL    H3533831   6.844   3.044   5.180 -1.1810 -0.2126 -0.9174
  239MOL    H3633832   7.000   2.945   5.356  2.8378 -1.9960 -0.5965
  239MOL    C3733833   7.041   3.142   5.323 -0.2265 -0.1572  0.1385
  239MOL    C3833834   7.075   3.160   5.471 -0.3422 -0.0457  0.1490
  239MOL    C3933835   7.188   3.079   5.512  0.3696  0.1982 -0.0647
  239MOL    N4033836   7.274   3.017   5.546 -0.4805  0.4653 -0.0674
  239MOL    H4133837   7.109   3.192   5.255 -1.8673  0.9031 -0.7660
  239MOL    H4233838   6.951   3.202   5.305 -0.3482  0.3488  2.3192
  239MOL    H4333839   6.979   3.124   5.507 -1.2433  1.1814 -0.9408
  239MOL    C4433840   7.077   3.313   5.512  0.0330  0.3907  0.0592
  239MOL    C4533841   7.074   3.349   5.661 -0.2323  0.0816  0.3960
  239MOL    C4633842   7.183   3.298   5.741 -1.0940  1.1022 -0.5013
  239MOL    N4733843   7.274   3.263   5.801 -0.1062 -0.7158 -0.4158
  239MOL    H4833844   7.157   3.367   5.462  1.0564 -0.9144  0.2535
  239MOL    H4933845   6.985   3.346   5.464  0.0531 -1.0263 -0.9752
  239MOL    H5033846   6.983   3.304   5.702 -0.0314  1.6261  2.6400
  239MOL    C5133847   7.073   3.505   5.660  0.8455  0.3415 -0.4277
  239MOL    C5233848   7.098   3.577   5.800 -0.6826 -0.6239  0.3738
  239MOL    C5333849   7.109   3.723   5.783 -0.5988 -0.1980 -0.4858
  239MOL    N5433850   7.118   3.840   5.767  0.4077  0.4387 -0.1848
  239MOL    H5533851   7.163   3.531   5.603  0.5958  1.6698 -0.2249
  239MOL    H5633852   6.992   3.551   5.604  0.0557 -0.0212  0.3958
  239MOL    H5733853   7.195   3.545   5.837  0.1753  0.3189 -0.9839
  239MOL    C5833854   6.987   3.554   5.907 -0.5359  0.0700  0.2015
  239MOL    C5933855   6.863   3.640   5.886  0.6838  0.6351 -0.7816
  239MOL    C6033856   6.767   3.586   5.787  0.1276 -0.1322 -0.3087
  239MOL    N6133857   6.695   3.545   5.710  0.4356 -0.4570 -0.1231
  239MOL    H6233858   6.962   3.449   5.921 -2.3307  0.3092 -1.0517
  239MOL    H6333859   7.031   3.588   6.000 -1.2652  0.8905  0.2478
  239MOL    H6433860   6.885   3.743   5.858  2.3523  0.1238 -1.3916
  239MOL    C6533861   6.782   3.663   6.024 -0.0439 -0.5997  0.3296
  239MOL    C6633862   6.661   3.573   6.072 -0.2762  0.0925 -0.0023
  239MOL    C6733863   6.719   3.435   6.064 -0.7161 -0.1736 -0.0017
  239MOL    N6833864   6.761   3.328   6.058  0.2651 -0.3474  0.2985
  239MOL    H6933865   6.856   3.672   6.104  0.6088  1.2926 -0.4709
  239MOL    H7033866   6.729   3.758   6.024 -0.3383 -0.7636  0.8883
  239MOL    H7133867   6.581   3.581   5.999  1.5104 -0.1021 -2.0324
  239MOL    C7233868   6.618   3.597   6.217  0.5282  0.6045  0.1519
  239MOL    C7333869   6.469   3.568   6.257  0.3316  0.4487 -0.0292
  239MOL    C7433870   6.418   3.434   6.221 -1.3022 -0.0552  0.2802
  239MOL    N7533871   6.384   3.330   6.189 -0.2864 -0.4243  0.4671
  239MOL    H7633872   6.694   3.550   6.279 -0.5139 -3.2020 -1.3217
  239MOL    H7733873   6.638   3.704   6.229  3.8798  0.1512 -1.1094
  239MOL    H7833874   6.418   3.643   6.197 -2.3752 -0.1497  1.4092
  239MOL    C7933875   6.464   3.626   6.407  0.1758 -0.5921  0.0928
  239MOL    C8033876   6.325   3.613   6.476  0.1485 -0.5206 -0.1246
  239MOL    C8133877   6.215   3.678   6.398 -0.2577  0.0104 -0.3852
  239MOL    N8233878   6.128   3.727   6.335  0.8845  0.6003  0.0757
  239MOL    H8333879   6.539   3.578   6.471  0.9839  0.9976  0.3745
  239MOL    H8433880   6.488   3.731   6.396 -1.1464 -0.6058 -3.3244
  239MOL    H8533881   6.339   3.673   6.567 -0.4617  0.7747 -0.8742
  239MOL    C8633882   6.284   3.471   6.518  0.5637  0.2340  0.0513
  239MOL    C8733883   6.153   3.461   6.599  0.6205  0.1467 -0.9439
  239MOL    C8833884   6.123   3.316   6.617  0.5684 -0.2444 -0.0359
  239MOL    N8933885   6.095   3.204   6.632 -0.5756 -0.2429  0.3215
  239MOL    H9033886   6.294   3.396   6.440 -0.6726 -0.5317  0.6164
  239MOL    H9133887   6.364   3.442   6.586  2.9878  0.3186 -2.6721
  239MOL    H9233888   6.075   3.498   6.533  0.8715  1.3902 -0.5592
  239MOL    C9333889   6.154   3.534   6.734 -0.0717 -0.1645 -0.1982
  239MOL    C9433890   6.019   3.525   6.817  0.0128  0.1920 -0.1641
  239MOL    C9533891   5.899   3.546   6.736  0.7643 -0.2523  0.8985
  239MOL    N9633892   5.812   3.566   6.661  0.1471  0.3780 -0.4472
  239MOL    H9733893   6.233   3.506   6.803  1.2723 -1.2400 -2.1387
  239MOL    H9833894   6.172   3.640   6.720  0.7915 -0.4245 -1.0701
  239MOL    H9933895   6.014   3.614   6.879  2.5763  1.0763 -1.1810
  239MOL   C10033896   5.992   3.406   6.916 -0.3321 -0.5472 -0.4493
  239MOL   C10133897   6.048   3.421   7.061  0.4908  0.0125  0.1788
  239MOL   C10233898   6.167   3.506   7.058  0.2317 -0.3837  0.1347
  239MOL   N10333899   6.265   3.565   7.046  0.5844 -1.0482 -0.3105
  239MOL   H10433900   5.883   3.409   6.921 -0.3147  0.0059 -0.3195
  239MOL   H10533901   6.015   3.309   6.873  0.0987 -1.4036  1.6819
  239MOL   H10633902   6.086   3.324   7.095  0.1714  0.2528  1.2391
  239MOL   C10733903   5.940   3.468   7.154 -0.0952  0.2256 -0.2853
  239MOL   C10833904   5.980   3.538   7.286 -0.1523 -0.6197 -0.2886
  239MOL   C10933905   5.885   3.651   7.320 -0.3041 -0.4059  0.1569
  239MOL   N11033906   5.817   3.735   7.348  0.1728 -0.3337  0.3646
  239MOL   H11133907   5.881   3.541   7.099 -0.0163 -0.0006 -0.6709
  239MOL   H11233908   5.877   3.381   7.173  0.3444  0.0682  0.5134
  239MOL   H11333909   6.077   3.587   7.279 -0.9340  1.5649  2.9157
  239MOL   C11433910   5.983   3.446   7.408 -0.6306 -0.3994 -0.1044
  239MOL   C11533911   5.982   3.521   7.545  0.0114 -0.4392  0.2809
  239MOL   C11633912   5.969   3.430   7.657 -0.4347  0.0882  0.1703
  239MOL   N11733913   5.951   3.358   7.742 -0.2646 -0.2741  0.7065
  239MOL   H11833914   5.901   3.374   7.411  0.5551 -1.7366  2.6981
  239MOL   H11933915   6.076   3.389   7.403 -0.8966 -0.7310 -1.3801
  239MOL   H12033916   5.896   3.585   7.562  1.1815  1.4093 -0.6816
  239MOL   C12133917   6.107   3.602   7.564  0.1165  0.5288  0.1181
  239MOL   C12233918   6.234   3.541   7.634 -0.1507 -0.3705 -0.6111
  239MOL   C12333919   6.307   3.454   7.539 -0.2559  0.3439 -0.7799
  239MOL   N12433920   6.367   3.384   7.472  0.5190  0.1151  0.6548
  239MOL   H12533921   6.137   3.656   7.475  0.4033  0.3935  0.1303
  239MOL   H12633922   6.073   3.688   7.622 -1.0322  1.2897 -1.6424
  239MOL   H12733923   6.202   3.470   7.711 -0.5798  1.0133  0.5077
  239MOL   C12833924   6.327   3.644   7.706  0.6286  0.4543  0.1016
  239MOL   C12933925   6.260   3.706   7.831 -0.1766 -0.1008  0.0446
  239MOL   C13033926   6.210   3.600   7.919 -0.0793 -0.1475  0.1541
  239MOL   N13133927   6.174   3.521   7.991 -0.1555  0.0775  0.2605
  239MOL   H13233928   6.419   3.588   7.726 -0.3961 -1.2647  0.1528
  239MOL   H13333929   6.360   3.731   7.649  1.2411 -0.3128 -0.7392
  239MOL   H13433930   6.168   3.749   7.789 -1.0758 -1.1388  0.9163
  239MOL   C13533931   6.337   3.822   7.895  0.5569  1.0572  0.1817
  239MOL   C13633932   6.253   3.896   7.990  0.0955 -0.1162 -0.3008
  239MOL   C13733933   6.143   3.983   7.934 -0.1652 -0.1016  0.0383
  239MOL   N13833934   6.063   4.051   7.888  0.1754  0.2566 -0.8194
  239MOL   H13933935   6.415   3.766   7.947 -2.3772 -2.6345  0.8019
  239MOL   H14033936   6.380   3.892   7.824  2.1755  0.1309  0.2226
  239MOL   H14133937   6.308   3.949   8.069 -0.9147 -1.3654  1.2801
  239MOL   H14233938   6.184   3.826   8.036  0.1660 -0.8293 -1.2801
  240MOL     C133939   0.721   1.807   7.370  0.0370 -0.1382 -0.1483
  240MOL     C233940   0.776   1.833   7.518  0.7022 -0.5140 -0.6906
  240MOL     C333941   0.904   1.766   7.534 -0.1926 -0.5434  0.4327
  240MOL     N433942   1.004   1.715   7.557  0.0687  0.1594  0.6174
  240MOL     H533943   0.618   1.843   7.362 -0.7345 -2.5894 -1.9876
  240MOL     H633944   0.723   1.702   7.343  1.0703  0.4584 -2.5404
  240MOL     H733945   0.712   1.783   7.590  0.5409 -1.5250 -1.5271
  240MOL     H833946   0.780   1.860   7.295  1.4144 -0.9135  0.3706
  240MOL     C933947   0.786   1.987   7.549 -0.9800  0.0140  0.0126
  240MOL    C1033948   0.822   2.016   7.692  0.6174 -0.0289 -0.4166
  240MOL    C1133949   0.849   2.159   7.693  0.8743 -0.0364  0.2003
  240MOL    N1233950   0.865   2.273   7.697 -0.0592 -0.0550  0.2239
  240MOL    H1333951   0.863   2.023   7.480 -2.4095  1.0907 -1.0548
  240MOL    H1433952   0.695   2.039   7.521 -0.2651 -0.1945 -2.8818
  240MOL    H1533953   0.920   1.980   7.725  0.8236  0.6130 -0.3129
  240MOL    C1633954   0.710   1.980   7.800  0.4402  0.2956 -0.1779
  240MOL    C1733955   0.759   1.975   7.943  0.3226  0.4079 -0.5699
  240MOL    C1833956   0.886   1.895   7.940  0.4498 -0.2721 -0.1752
  240MOL    N1933957   0.987   1.838   7.940 -0.3100 -0.6047 -0.5080
  240MOL    H2033958   0.626   2.049   7.789 -0.0832 -0.4661 -1.0599
  240MOL    H2133959   0.665   1.883   7.778 -0.1602  0.4316  0.4112
  240MOL    H2233960   0.681   1.912   7.985  1.9414 -2.6153 -1.9741
  240MOL    C2333961   0.774   2.112   8.019  0.1453  0.4412  0.7372
  240MOL    C2433962   0.662   2.211   8.019  0.2923 -0.2040 -0.6088
  240MOL    C2533963   0.527   2.147   8.040 -0.1099 -0.5715  0.3599
  240MOL    N2633964   0.422   2.092   8.050  0.1080  0.6602  0.2908
  240MOL    H2733965   0.798   2.080   8.120 -2.7694 -2.2268  0.6718
  240MOL    H2833966   0.858   2.173   7.985 -1.6096  4.0516  2.5293
  240MOL    H2933967   0.659   2.247   7.916 -0.3260  1.5215  0.0013
  240MOL    C3033968   0.685   2.325   8.126 -0.4057  0.8844  0.3103
  240MOL    C3133969   0.584   2.442   8.131 -0.4646  0.5746  0.0276
  240MOL    C3233970   0.597   2.521   8.260  0.4042  1.1060 -0.8699
  240MOL    N3333971   0.603   2.582   0.052  0.0015 -0.5677  0.2959
  240MOL    H3433972   0.699   2.278   8.224 -1.6415 -1.5220 -0.6264
  240MOL    H3533973   0.780   2.374   8.106 -0.9444  1.3804 -1.0923
  240MOL    H3633974   0.484   2.401   8.135 -0.0543 -0.5555 -0.7900
  240MOL    C3733975   0.596   2.536   8.003 -0.1672 -0.3371 -0.2941
  240MOL    C3833976   0.481   2.645   7.985  0.4315 -0.7556 -0.1755
  240MOL    C3933977   0.520   2.757   7.896 -0.2296  0.5528 -0.1280
  240MOL    N4033978   0.547   2.841   7.824  0.1705 -0.0582 -0.1984
  240MOL    H4133979   0.694   2.583   8.004 -0.2004 -0.1701 -2.7048
  240MOL    H4233980   0.594   2.477   7.911 -0.0019  0.9910 -1.1649
  240MOL    H4333981   0.447   2.694   8.076  0.6762 -1.4753  0.3042
  240MOL    C4433982   0.349   2.578   7.933  0.3192 -0.0370  0.4273
  240MOL    C4533983   0.218   2.663   7.958  0.0670  0.0163  0.0096
  240MOL    C4633984   0.228   2.763   7.849  0.9329  0.1999  0.0457
  240MOL    N4733985   0.242   2.839   7.757 -0.3230  0.0158 -0.0530
  240MOL    H4833986   0.352   2.572   7.824  1.3698  0.3762  0.4315
  240MOL    H4933987   0.344   2.475   7.968 -1.6007  0.3070  1.2257
  240MOL    H5033988   0.240   2.709   8.054  1.9530 -0.7117 -0.0516
  240MOL    C5133989   0.086   2.589   7.952 -0.2532  0.5227 -0.7260
  240MOL    C5233990   8.278   2.667   8.001 -0.5807  0.1375  0.5763
  240MOL    C5333991   8.285   2.691   8.150 -0.4838 -0.5616 -0.4332
  240MOL    N5433992   8.284   2.706   8.264  0.2461 -0.1462 -0.5765
  240MOL    H5533993   0.069   2.558   7.849 -0.1808  2.7988 -1.4548
  240MOL    H5633994   0.098   2.496   8.008 -5.1990  0.6756  0.8298
  240MOL    H5733995   8.190   2.602   7.995  0.6447 -1.4422 -0.8769
  240MOL    C5833996   8.259   2.793   7.923  0.7278  0.4825  0.1122
  240MOL    C5933997   8.117   2.852   7.934  0.3479  0.8699 -0.1889
  240MOL    C6033998   8.055   2.841   8.068 -0.2937  0.4451  0.3512
  240MOL    N6133999   8.007   2.825   8.174 -0.5515  0.4065 -0.0178
  240MOL    H6234000   0.015   2.865   7.969  1.1973 -0.4769  0.9059
  240MOL    H6334001   8.282   2.786   7.816  1.7095 -0.3956  0.3817
  240MOL    H6434002   8.054   2.786   7.875  0.7035  0.9467 -0.6582
  240MOL    C6534003   8.113   2.987   7.882 -0.4841 -0.3396 -0.0525
  240MOL    C6634004   7.969   3.054   7.863  0.1483 -0.4852  0.3174
  240MOL    C6734005   7.985   3.201   7.876  0.8260 -0.0000  0.1476
  240MOL    N6834006   7.991   3.316   7.879  0.5279  0.2711  0.2753
  240MOL    H6934007   8.163   3.056   7.950 -0.4016  0.2081 -0.6610
  240MOL    H7034008   8.175   3.006   7.795 -0.0104  0.7729  0.5120
  240MOL    H7134009   7.900   3.039   7.946 -0.4316  0.2393 -0.0231
  240MOL    C7234010   7.897   3.022   7.730 -0.8288 -0.0331 -0.6810
  240MOL    C7334011   7.777   3.106   7.683 -0.1239 -0.4278  0.0609
  240MOL    C7434012   7.700   3.177   7.794 -0.1139 -0.6629 -0.0764
  240MOL    N7534013   7.637   3.236   7.875 -0.8104 -0.6495 -0.0472
  240MOL    H7634014   7.976   3.033   7.656 -1.4219  2.5545 -0.9891
  240MOL    H7734015   7.872   2.916   7.734  2.9377 -0.9353  0.7587
  240MOL    H7834016   7.701   3.039   7.643  0.7973 -0.8952 -0.9197
  240MOL    C7934017   7.808   3.199   7.561  0.1772  0.5055 -0.3829
  240MOL    C8034018   7.684   3.236   7.476  0.6077  0.0722  0.0889
  240MOL    C8134019   7.576   3.293   7.553  0.2893 -0.1195 -0.1039
  240MOL    N8234020   7.500   3.344   7.618  0.7698  0.8255 -0.0757
  240MOL    H8334021   7.843   3.295   7.599 -1.0216  0.6340  0.4043
  240MOL    H8434022   7.869   3.143   7.490  0.1677  1.1388 -0.8909
  240MOL    H8534023   7.648   3.142   7.433 -0.5905 -0.2639  1.7598
  240MOL    C8634024   7.734   3.322   7.363  0.0483  0.0104  0.3357
  240MOL    C8734025   7.794   3.259   7.232  0.2295 -0.5908 -0.1927
  240MOL    C8834026   7.715   3.146   7.183 -0.1424  0.0787  0.7843
  240MOL    N8934027   7.656   3.053   7.143 -0.6724  0.0824  0.2188
  240MOL    H9034028   7.656   3.389   7.328 -0.8466 -1.4588 -0.5465
  240MOL    H9134029   7.809   3.386   7.410 -0.8712  0.1655  1.6046
  240MOL    H9234030   7.896   3.227   7.255  1.2960  2.2329 -0.7589
  240MOL    C9334031   7.806   3.355   7.114 -0.4453  0.3749  0.2865
  240MOL    C9434032   7.671   3.412   7.056 -0.6034  0.2667  0.4332
  240MOL    C9534033   7.628   3.538   7.120 -0.0409  0.1577  0.0678
  240MOL    N9634034   7.605   3.639   7.166 -0.1274 -0.0730  0.1946
  240MOL    H9734035   7.863   3.443   7.145  2.0373 -1.0499 -0.0722
  240MOL    H9834036   7.870   3.319   7.034 -0.9006 -0.6076  0.3665
  240MOL    H9934037   7.599   3.332   7.071  0.0044 -0.5952 -1.0713
  240MOL   C10034038   7.669   3.421   6.904 -0.1875 -0.9826  0.0435
  240MOL   C10134039   7.543   3.512   6.847  0.5091  0.5564 -0.0899
  240MOL   C10234040   7.564   3.652   6.850  0.1448 -0.1323  0.1653
  240MOL   N10334041   7.569   3.768   6.856  0.5916  0.1815 -0.1914
  240MOL   H10434042   7.768   3.448   6.868  0.6152 -0.0094  2.8252
  240MOL   H10534043   7.653   3.323   6.861  0.2781  0.0423 -2.5929
  240MOL   H10634044   7.456   3.491   6.910  0.2313  0.7472 -0.4051
  240MOL   C10734045   7.505   3.468   6.701 -0.4532  0.6253 -0.7651
  240MOL   C10834046   7.366   3.500   6.639  1.4972 -0.0017 -0.1072
  240MOL   C10934047   7.255   3.479   6.728 -0.3798 -0.4472 -0.4145
  240MOL   N11034048   7.172   3.463   6.803  0.3468 -0.2975 -0.3730
  240MOL   H11134049   7.583   3.501   6.633 -2.5338  3.0760 -2.0461
  240MOL   H11234050   7.505   3.359   6.695  1.8077  0.5623  0.0993
  240MOL   H11334051   7.347   3.425   6.563 -0.3254 -1.2607  1.5313
  240MOL   C11434052   7.361   3.641   6.572  0.0144  0.4879 -0.1166
  240MOL   C11534053   7.231   3.681   6.501 -0.2170  0.4051 -0.3144
  240MOL   C11634054   7.107   3.675   6.586 -0.1641 -0.5969  0.4514
  240MOL   N11734055   7.012   3.677   6.655  0.0005  0.3168 -0.0994
  240MOL   H11834056   7.370   3.717   6.650 -3.0423  0.3595  0.4135
  240MOL   H11934057   7.448   3.644   6.506  0.7831 -1.6603  0.7291
  240MOL   H12034058   7.214   3.600   6.431  1.7145  0.0517 -0.3886
  240MOL   C12134059   7.241   3.814   6.424 -0.0869  0.8226 -0.1427
  240MOL   C12234060   7.148   3.825   6.297  0.3166 -0.0311 -0.5521
  240MOL   C12334061   7.003   3.821   6.328  0.0491 -0.1792 -0.4839
  240MOL   N12434062   6.890   3.812   6.353 -0.1262  0.0668  0.4493
  240MOL   H12534063   7.224   3.903   6.485  0.6657  0.6909  0.2689
  240MOL   H12634064   7.343   3.831   6.389  0.4093 -0.1920  0.7834
  240MOL   H12734065   7.168   3.745   6.226  0.2293  0.2820 -0.9335
  240MOL   C12834066   7.185   3.956   6.229  1.0138  0.2024 -0.4352
  240MOL   C12934067   7.141   3.982   6.077  0.0567 -0.2786  0.7917
  240MOL   C13034068   7.002   3.967   6.037  0.0090  1.1015  0.2025
  240MOL   N13134069   6.890   3.951   6.008  0.3713 -0.6386  0.4099
  240MOL   H13234070   7.156   4.041   6.292 -0.6900 -0.8037  0.1907
  240MOL   H13334071   7.293   3.962   6.222  1.0485 -0.3361 -0.3421
  240MOL   H13434072   7.194   3.901   6.027 -4.0877 -1.4376 -1.9943
  240MOL   C13534073   7.200   4.118   6.031 -0.1094 -0.0377 -0.1829
  240MOL   C13634074   7.090   4.231   6.041 -0.2608 -0.3007 -0.3074
  240MOL   C13734075   7.140   4.362   6.001  0.4555 -0.2472  0.5171
  240MOL   N13834076   7.186   4.467   5.970  0.1476 -0.7702  0.5220
  240MOL   H13934077   7.287   4.157   6.084 -1.0286  2.7492 -0.6063
  240MOL   H14034078   7.231   4.118   5.927  0.5618  1.9737 -0.0153
  240MOL   H14134079   7.048   4.235   6.141  2.7617  3.3352  0.9321
  240MOL   H14234080   7.004   4.214   5.975  1.8166 -1.5246 -2.7896
  241MOL     C134081   0.042   4.859   7.503 -0.0656  0.5946  0.1440
  241MOL     C234082   0.004   4.961   7.606  0.6483  0.2151 -0.3784
  241MOL     C334083   8.171   4.964   7.629 -0.6649 -1.0038  0.0721
  241MOL     N434084   8.056   4.974   7.648  0.0394  0.1226  0.2070
  241MOL     H534085   0.144   4.877   7.467 -0.2954  0.8616 -0.3746
  241MOL     H634086   8.300   4.842   7.411 -1.7570  0.1973  1.1867
  241MOL     H734087   0.037   5.057   7.568 -0.3127  1.1484  1.0869
  241MOL     H834088   0.035   4.759   7.546 -1.2562  1.6545  2.4921
  241MOL     C934089   0.090   4.931   7.734 -0.1494 -0.2157  0.2150
  241MOL    C1034090   0.062   5.018   7.858 -0.3142 -0.3844  0.0456
  241MOL    C1134091   8.240   4.982   7.911  0.5201  0.0186  0.2991
  241MOL    N1234092   8.132   4.954   7.954  0.0218 -0.1377 -1.0715
  241MOL    H1334093   0.072   4.826   7.755  0.2818 -0.4647 -0.6354
  241MOL    H1434094   0.194   4.945   7.705 -0.2475 -0.7203 -0.3865
  241MOL    H1534095   0.040   5.114   7.811 -1.1193  0.0280  1.2319
  241MOL    C1634096   0.171   5.005   7.960 -0.8681 -0.3451  0.4119
  241MOL    C1734097   0.148   5.062   8.111 -0.7235  0.4035 -0.2158
  241MOL    C1834098   0.267   5.042   8.191  0.3939 -0.1778  0.2913
  241MOL    N1934099   0.365   5.014   8.246  0.1326 -0.5970  0.3840
  241MOL    H2034100   0.185   4.899   7.984 -2.8675 -0.5490  0.8352
  241MOL    H2134101   0.263   5.036   7.911 -0.5932 -2.6108 -0.5605
  241MOL    H2234102   0.067   5.015   8.166 -1.0275  0.6250 -0.4747
  241MOL    C2334103   0.106   5.210   8.103  0.7011 -0.1018  0.3880
  241MOL    C2434104   0.219   5.314   8.099  0.4434 -0.2994 -0.1051
  241MOL    C2534105   0.303   5.308   7.977 -0.2541 -1.0674  0.0596
  241MOL    N2634106   0.365   5.302   7.877  0.2743 -0.3963 -0.2957
  241MOL    H2734107   0.043   5.219   8.015  0.0620  0.5896  0.9163
  241MOL    H2834108   0.043   5.228   8.190 -0.7142 -0.6447 -0.5026
  241MOL    H2934109   0.292   5.294   8.177  1.0990 -2.5440 -1.2719
  241MOL    C3034110   0.164   5.459   8.127  0.4587  0.1113  0.2726
  241MOL    C3134111   0.065   5.517   8.023  0.2168  0.7181 -0.4868
  241MOL    C3234112   8.248   5.453   8.040 -0.0483  0.3389  0.9605
  241MOL    N3334113   8.144   5.402   8.040 -0.0664 -0.1756 -0.2835
  241MOL    H3434114   0.130   5.467   8.231  1.9701 -0.7968  0.8535
  241MOL    H3534115   0.248   5.528   8.132 -0.3022  1.0188  0.5891
  241MOL    H3634116   0.082   5.503   7.917 -1.5835 -0.8424 -0.5954
  241MOL    C3734117   0.028   5.660   8.049 -0.1089  0.0150  0.2839
  241MOL    C3834118   0.136   5.764   8.015 -0.3663 -0.2308  0.1373
  241MOL    C3934119   0.230   5.716   7.906 -0.0049  0.0688 -0.8641
  241MOL    N4034120   0.300   5.678   7.827 -0.3301  1.0423 -0.3022
  241MOL    H4134121   8.269   5.677   7.969  0.1030  0.8274  0.2560
  241MOL    H4234122   8.292   5.683   8.145  2.1922 -0.6973  1.6551
  241MOL    H4334123   0.201   5.778   8.102  1.2069 -0.5181 -0.9731
  241MOL    C4434124   0.073   5.902   7.990  0.5291  0.4130 -0.1942
  241MOL    C4534125   0.154   6.011   7.919 -0.0269  0.0325  0.7158
  241MOL    C4634126   0.077   6.133   7.895  0.2729  0.1479 -0.0530
  241MOL    N4734127   0.016   6.227   7.879 -0.7705 -0.1723 -0.1850
  241MOL    H4834128   8.293   5.890   7.933  0.6501 -1.6930  0.0269
  241MOL    H4934129   0.027   5.945   8.079 -1.5007  0.9153 -1.4492
  241MOL    H5034130   0.173   5.966   7.821  1.0342 -0.7015  1.2472
  241MOL    C5134131   0.292   6.049   7.983  0.7841 -0.1310 -0.4528
  241MOL    C5234132   0.300   6.142   8.109  0.6946  0.3472 -0.1309
  241MOL    C5334133   0.255   6.066   8.225 -0.2407 -0.5431  0.1132
  241MOL    N5434134   0.224   6.002   0.004 -0.1415  0.4696 -0.2007
  241MOL    H5534135   0.344   5.958   8.013  2.2066  1.1766  1.1668
  241MOL    H5634136   0.352   6.090   7.902 -1.1183 -0.9710 -2.3137
  241MOL    H5734137   0.228   6.223   8.101 -0.7157 -0.8980 -0.3742
  241MOL    C5834138   0.436   6.208   8.136  0.4995  0.1960 -0.3097
  241MOL    C5934139   0.483   6.319   8.036  0.1621 -0.7891 -0.3808
  241MOL    C6034140   0.373   6.408   8.002  0.2936 -0.4656 -0.7458
  241MOL    N6134141   0.282   6.475   7.981 -0.0647 -0.2979 -0.2616
  241MOL    H6234142   0.448   6.254   8.234  1.6801 -2.2025  0.7146
  241MOL    H6334143   0.523   6.142   8.141  0.9541  0.7232 -1.1156
  241MOL    H6434144   0.517   6.278   7.941  0.0271  2.2302 -1.7766
  241MOL    C6534145   0.597   6.402   8.099 -0.0985 -0.2193  0.2048
  241MOL    C6634146   0.725   6.313   8.124 -0.8066 -0.5140  0.4174
  241MOL    C6734147   0.760   6.242   7.996 -0.4142 -0.2765  0.0493
  241MOL    N6834148   0.784   6.188   7.897 -0.7584  0.2902  0.0535
  241MOL    H6934149   0.628   6.492   8.045  1.6576 -0.4693  0.7494
  241MOL    H7034150   0.569   6.431   8.200 -1.9758 -2.6996  0.4444
  241MOL    H7134151   0.700   6.242   8.203  0.8816 -0.7120  0.7895
  241MOL    C7234152   0.841   6.403   8.168  0.1193  0.0186  0.3911
  241MOL    C7334153   0.954   6.321   8.234  0.1097 -0.0198  0.0794
  241MOL    C7434154   1.037   6.226   8.146 -0.1332 -0.8196  0.0017
  241MOL    N7534155   1.108   6.151   8.090 -0.1332 -0.2554  0.5126
  241MOL    H7634156   0.894   6.449   8.084  2.2535 -1.8446  0.6805
  241MOL    H7734157   0.804   6.480   8.236 -1.5728  0.0741 -0.5614
  241MOL    H7834158   0.915   6.262   0.005 -1.7654  0.8811 -0.1412
  241MOL    C7934159   1.056   6.429   8.282 -0.4648 -0.5364 -0.3496
  241MOL    C8034160   1.162   6.390   0.076  0.5120 -0.5601 -0.0646
  241MOL    C8134161   1.100   6.316   0.192  0.2557 -0.2752  0.1753
  241MOL    N8234162   1.065   6.260   0.286 -0.4393 -0.0547  0.5577
  241MOL    H8334163   1.099   6.485   8.199 -0.5328 -0.0246 -0.0433
  241MOL    H8434164   0.997   6.508   0.017  0.5258  0.3721 -0.6065
  241MOL    H8534165   1.197   6.480   0.127  0.0531  0.4530 -1.4813
  241MOL    C8634166   1.291   6.330   0.023 -0.3691 -0.2770  0.2817
  241MOL    C8734167   1.369   6.410   8.224 -0.3564  0.8903 -0.0793
  241MOL    C8834168   1.449   6.525   8.280  0.7254  0.1602 -0.4412
  241MOL    N8934169   1.511   6.615   0.011  0.2982 -0.8856 -0.5468
  241MOL    H9034170   1.359   6.320   0.108 -1.7610  3.9380  2.0051
  241MOL    H9134171   1.270   6.226   8.307  0.7415 -0.3866 -0.1409
  241MOL    H9234172   1.300   6.448   8.149 -1.6785 -2.8827 -0.8616
  241MOL    C9334173   1.458   6.316   8.131 -0.0185  0.0844  0.2099
  241MOL    C9434174   1.594   6.270   8.187 -0.4945 -0.4768  0.5234
  241MOL    C9534175   1.605   6.257   0.021 -0.2358  0.4990 -0.2238
  241MOL    N9634176   1.619   6.252   0.140 -0.9425 -0.2568 -0.0706
  241MOL    H9734177   1.393   6.238   8.091  1.3713  0.2747 -2.5117
  241MOL    H9834178   1.485   6.372   8.041  0.2533 -1.1334 -0.4696
  241MOL    H9934179   1.668   6.347   8.163 -0.4346 -0.4480  0.7973
  241MOL   C10034180   1.639   6.145   8.114 -0.3033  0.0985  0.0064
  241MOL   C10134181   1.777   6.135   8.058  0.3547 -0.4979  0.0509
  241MOL   C10234182   1.808   5.993   8.030 -0.1570  0.4179 -0.4923
  241MOL   N10334183   1.826   5.881   8.007  0.2554 -0.1792 -0.1079
  241MOL   H10434184   1.637   6.055   8.176  2.4855 -0.3022 -0.4343
  241MOL   H10534185   1.568   6.108   8.039 -0.0554  0.6091 -0.4821
  241MOL   H10634186   1.846   6.163   8.138  1.9623 -3.5812 -0.1970
  241MOL   C10734187   1.793   6.240   7.946  0.1444 -0.1914  0.2216
  241MOL   C10834188   1.924   6.259   7.870  0.8637  0.1000 -0.0446
  241MOL   C10934189   2.033   6.169   7.904  0.2903  0.0977 -0.4150
  241MOL   N11034190   2.114   6.094   7.941  1.1093  0.1110 -0.4305
  241MOL   H11134191   1.705   6.229   7.881  0.8479 -1.2403 -0.5640
  241MOL   H11234192   1.775   6.338   7.990  0.1031  0.1596 -0.5605
  241MOL   H11334193   1.960   6.353   7.913  1.1535  0.4051 -0.9266
  241MOL   C11434194   1.913   6.291   7.722 -0.1274  0.1065  0.6838
  241MOL   C11534195   1.898   6.175   7.625  0.1830 -0.6651 -0.4014
  241MOL   C11634196   1.777   6.096   7.643 -0.2895 -0.5641 -0.4371
  241MOL   N11734197   1.684   6.029   7.656 -0.1318  0.1311  0.0456
  241MOL   H11834198   1.829   6.358   7.704 -1.2353 -0.5211  3.2448
  241MOL   H11934199   2.006   6.346   7.705 -1.6483  2.3279 -0.7453
  241MOL   H12034200   1.982   6.109   7.647  1.6736  1.3472  0.0970
  241MOL   C12134201   1.909   6.219   7.476 -0.6145 -0.4526  0.3817
  241MOL   C12234202   1.982   6.119   7.383 -0.1342 -0.5463 -0.2473
  241MOL   C12334203   1.917   5.986   7.393  0.0604  0.5895  0.4955
  241MOL   N12434204   1.871   5.881   7.410  0.1687  0.5646  0.0559
  241MOL   H12534205   1.810   6.252   7.444 -0.3837 -1.3120 -1.2854
  241MOL   H12634206   1.977   6.303   7.488  1.0809 -1.5804 -0.9603
  241MOL   H12734207   2.089   6.110   7.405 -0.7825 -2.0184  2.4352
  241MOL   C12834208   1.977   6.178   7.240  0.0037 -0.2632  0.6004
  241MOL   C12934209   1.971   6.070   7.127  0.9182  0.2746  0.1165
  241MOL   C13034210   1.946   6.139   7.002 -0.1695 -0.3689 -0.3018
  241MOL   N13134211   1.931   6.193   6.904  0.1825 -0.2603 -0.5560
  241MOL   H13234212   1.889   6.241   7.227  0.5664  0.1551 -1.2675
  241MOL   H13334213   2.059   6.248   7.228 -1.2304  0.9152 -1.2856
  241MOL   H13434214   1.885   6.007   7.150  1.9214 -1.1102  0.0876
  241MOL   C13534215   2.093   5.980   7.130 -0.3672  0.2553 -0.2277
  241MOL   C13634216   2.226   6.044   7.089  0.1467  0.1608 -0.1607
  241MOL   C13734217   2.235   6.071   6.945  0.9467 -0.0984 -0.4298
  241MOL   N13834218   2.243   6.093   6.834 -0.1028  0.2555  0.2005
  241MOL   H13934219   2.117   5.961   7.234  1.1290  2.3882 -0.1357
  241MOL   H14034220   2.080   5.879   7.092  0.8325  0.3610 -0.9620
  241MOL   H14134221   2.312   5.981   7.109 -1.6770 -2.5521 -0.5057
  241MOL   H14234222   2.232   6.142   7.136  1.3416 -0.4540  0.9776
  242MOL     C134223   4.434   5.282   6.482  0.1832 -0.4309  0.0594
  242MOL     C234224   4.388   5.267   6.339  0.0373  0.4258 -0.4654
  242MOL     C334225   4.310   5.146   6.322 -0.8554  0.3351 -0.5740
  242MOL     N434226   4.248   5.052   6.308  0.2374  0.1159 -0.2221
  242MOL     H534227   4.363   5.304   6.562 -0.1750 -0.3006 -0.2910
  242MOL     H634228   4.496   5.370   6.502  0.0188 -0.5462  1.1140
  242MOL     H734229   4.474   5.250   6.274 -0.2402  2.9127 -1.5070
  242MOL     H834230   4.487   5.189   6.503 -2.0441 -2.0850 -1.3398
  242MOL     C934231   4.320   5.396   6.276  0.9663 -0.2504  0.2048
  242MOL    C1034232   4.306   5.378   6.124  0.1617 -0.3950  0.1478
  242MOL    C1134233   4.170   5.336   6.094  0.1673 -0.5921  0.0155
  242MOL    N1234234   4.061   5.299   6.074  0.5889 -0.3700 -0.0087
  242MOL    H1334235   4.234   5.411   6.342  0.8846  0.6058 -0.0872
  242MOL    H1434236   4.395   5.471   6.301  1.2827 -0.8584  1.0760
  242MOL    H1534237   4.371   5.292   6.103  0.4268  0.2097 -1.6803
  242MOL    C1634238   4.347   5.494   6.038  0.4834  0.8449 -0.6196
  242MOL    C1734239   4.386   5.450   5.895 -0.5630  0.2182 -0.4762
  242MOL    C1834240   4.261   5.432   5.813  0.6538 -0.7464  0.0340
  242MOL    N1934241   4.165   5.414   5.746 -0.0957 -0.3667 -0.5541
  242MOL    H2034242   4.262   5.562   6.039 -0.5248 -0.3843  1.6888
  242MOL    H2134243   4.425   5.549   6.090 -0.4836 -0.1210  1.9106
  242MOL    H2234244   4.430   5.350   5.897  1.2931  0.9897 -1.0730
  242MOL    C2334245   4.476   5.556   5.832  0.5652  0.5960 -0.0899
  242MOL    C2434246   4.612   5.569   5.906  0.6900 -0.1629  0.4861
  242MOL    C2534247   4.706   5.465   5.869  0.8570 -0.0886 -0.8213
  242MOL    N2634248   4.781   5.384   5.838 -0.2233 -0.0595  0.3775
  242MOL    H2734249   4.489   5.541   5.725  0.7370  1.6496 -0.2287
  242MOL    H2834250   4.422   5.650   5.845  2.6570  1.8645 -0.3512
  242MOL    H2934251   4.601   5.537   6.009 -2.0115 -0.2909  0.1770
  242MOL    C3034252   4.681   5.710   5.888 -0.6922 -0.1954  0.5593
  242MOL    C3134253   4.735   5.781   6.017 -0.6360  0.4879 -0.6318
  242MOL    C3234254   4.642   5.775   6.130  0.1985  0.1602 -0.1938
  242MOL    N3334255   4.562   5.771   6.214 -0.0977 -0.2097 -0.4325
  242MOL    H3434256   4.761   5.699   5.815 -2.4688 -0.9696 -1.3434
  242MOL    H3534257   4.605   5.765   5.831 -1.8833 -1.0261  1.3249
  242MOL    H3634258   4.725   5.887   5.992 -0.8354  1.2009  2.3178
  242MOL    C3734259   4.880   5.768   6.056  0.4446  0.3271 -0.2097
  242MOL    C3834260   4.947   5.891   6.131  0.3634  0.2141 -0.1334
  242MOL    C3934261   4.959   6.012   6.051  0.8976 -0.1184  0.3886
  242MOL    N4034262   4.963   6.111   5.987  0.4422  0.4003  0.1203
  242MOL    H4134263   4.880   5.681   6.122 -2.3406  0.2156 -0.2870
  242MOL    H4234264   4.940   5.751   5.967  0.8996  2.3305 -0.3135
  242MOL    H4334265   5.045   5.850   6.155 -0.9077 -2.0968  1.3157
  242MOL    C4434266   4.889   5.940   6.265 -0.1192 -0.0556 -0.2319
  242MOL    C4534267   4.873   5.845   6.383  0.2078 -0.3038  0.0176
  242MOL    C4634268   5.006   5.781   6.411 -0.2553  0.3245 -0.1583
  242MOL    N4734269   5.109   5.732   6.441 -0.2561 -0.5033 -0.0861
  242MOL    H4834270   4.956   6.021   6.294  0.3821 -0.5584  0.0345
  242MOL    H4934271   4.794   5.988   6.241  0.7195  0.8867 -1.7750
  242MOL    H5034272   4.799   5.773   6.350 -0.0358  0.0502 -0.2163
  242MOL    C5134273   4.829   5.918   6.506 -0.8092 -0.0186 -0.2304
  242MOL    C5234274   4.798   5.835   6.630 -0.0902 -0.4496  0.1499
  242MOL    C5334275   4.910   5.815   6.719  0.4591 -0.1751  0.4071
  242MOL    N5434276   5.000   5.802   6.785 -0.0859 -0.2668 -0.1361
  242MOL    H5534277   4.916   5.977   6.538 -1.1771 -0.0910  0.9113
  242MOL    H5634278   4.749   5.989   6.484 -0.6355  0.5163  0.7841
  242MOL    H5734279   4.777   5.735   6.592 -0.2711 -0.0775 -0.7327
  242MOL    C5834280   4.672   5.900   6.701  0.2838 -0.7160  0.5019
  242MOL    C5934281   4.539   5.894   6.624 -0.3459 -0.8120 -0.5245
  242MOL    C6034282   4.476   5.764   6.622  0.1809  0.5018  1.1205
  242MOL    N6134283   4.431   5.656   6.619 -0.1335 -0.8020  0.0893
  242MOL    H6234284   4.660   5.849   6.797 -0.8332  1.8005  1.7444
  242MOL    H6334285   4.685   6.005   6.725 -0.9219 -0.1822 -1.1298
  242MOL    H6434286   4.568   5.909   6.520  1.2580 -0.1406  0.0014
  242MOL    C6534287   4.443   6.006   6.666  0.7831 -0.3513 -0.6907
  242MOL    C6634288   4.493   6.154   6.626  0.1445 -0.1396  0.0586
  242MOL    C6734289   4.517   6.156   6.481  0.1031 -0.8896  0.0722
  242MOL    N6834290   4.530   6.146   6.364 -0.2601 -0.5357 -0.6505
  242MOL    H6934291   4.341   5.978   6.640 -0.7960  2.7002  1.8302
  242MOL    H7034292   4.433   6.000   6.775 -0.5141  0.2471 -0.7598
  242MOL    H7134293   4.586   6.183   6.676 -1.2581  2.5018  1.2757
  242MOL    C7234294   4.396   6.258   6.679 -0.0497  0.2309  0.2168
  242MOL    C7334295   4.354   6.364   6.570  0.3279 -0.3653 -0.1957
  242MOL    C7434296   4.243   6.436   6.628 -0.6929 -0.1488  0.0033
  242MOL    N7534297   4.149   6.491   6.670  0.4077  0.4181 -0.8006
  242MOL    H7634298   4.307   6.207   6.717  2.3125 -0.9123  4.5827
  242MOL    H7734299   4.433   6.306   6.770 -0.9551 -0.3105  0.8744
  242MOL    H7834300   4.306   6.312   6.487  1.2000 -2.0173  0.3022
  242MOL    C7934301   4.465   6.467   6.527  0.4340  0.7269 -0.8244
  242MOL    C8034302   4.404   6.591   6.455  0.9332  1.1899 -0.3697
  242MOL    C8134303   4.503   6.700   6.441 -0.0033  0.1239 -0.7680
  242MOL    N8234304   4.577   6.790   6.424  0.1366  0.2581 -0.8451
  242MOL    H8334305   4.515   6.506   6.616 -0.8208 -0.0645  0.2486
  242MOL    H8434306   4.544   6.422   6.466  1.4393 -1.9806  2.3473
  242MOL    H8534307   4.335   6.634   6.527 -0.7239 -0.5356 -0.8942
  242MOL    C8634308   4.336   6.541   6.318  0.6393 -0.0431  0.6244
  242MOL    C8734309   4.331   6.647   6.214 -0.6143  0.2983 -0.7810
  242MOL    C8834310   4.273   6.591   6.091  0.1796 -0.6312  0.0997
  242MOL    N8934311   4.230   6.547   5.992  0.0925  0.0798  0.4535
  242MOL    H9034312   4.373   6.445   6.282  0.2474 -0.5642  1.5869
  242MOL    H9134313   4.233   6.513   6.345  0.5493 -0.0527  0.2756
  242MOL    H9234314   4.432   6.663   6.177  0.1982 -0.4647  1.0653
  242MOL    C9334315   4.277   6.784   6.248 -0.0873 -0.3114 -0.3466
  242MOL    C9434316   4.137   6.818   6.222 -0.4954  0.1156  0.2776
  242MOL    C9534317   4.057   6.752   6.315 -0.1566  0.1143 -0.2326
  242MOL    N9634318   3.993   6.694   6.388 -0.3557  0.0744 -0.1092
  242MOL    H9734319   4.286   6.805   6.354  0.9383 -0.9915 -0.2914
  242MOL    H9834320   4.338   6.853   6.189  1.1247 -1.6400 -0.6742
  242MOL    H9934321   4.093   6.796   6.124  0.5279 -0.7867  0.0054
  242MOL   C10034322   4.107   6.977   6.250 -0.1086  0.6049  0.2860
  242MOL   C10134323   3.960   7.003   6.219  0.2128 -0.5121 -0.2863
  242MOL   C10234324   3.879   6.991   6.345 -0.4459 -0.7859 -0.1604
  242MOL   N10334325   3.815   6.995   6.440 -0.0305 -0.5858 -0.1327
  242MOL   H10434326   4.129   7.005   6.353 -1.6220 -1.7757  1.3102
  242MOL   H10534327   4.177   7.026   6.182  0.7527 -0.0774  0.6785
  242MOL   H10634328   3.916   6.930   6.151 -0.3216  1.0281 -1.6056
  242MOL   C10734329   3.926   7.143   6.158  0.1408  0.0830  0.6644
  242MOL   C10834330   3.999   7.173   6.023  0.3438  0.4482 -0.4291
  242MOL   C10934331   4.001   7.056   5.937 -0.2319 -0.1312  0.1388
  242MOL   N11034332   3.994   6.961   5.868 -0.3730  0.7667 -0.0780
  242MOL   H11134333   3.818   7.150   6.154  0.1114 -1.1524 -1.0552
  242MOL   H11234334   3.953   7.235   6.211 -0.7481  0.1802  0.9595
  242MOL   H11334335   4.104   7.201   6.033  0.0287  0.9163  1.9941
  242MOL   C11434336   3.926   7.295   5.955  0.1509 -0.5802 -0.0274
  242MOL   C11534337   3.998   7.369   5.845 -0.4218 -0.6173 -0.4680
  242MOL   C11634338   3.913   7.458   5.765  1.0903 -0.1211 -0.2657
  242MOL   N11734339   3.839   7.525   5.706  0.1613 -0.2599  1.1780
  242MOL   H11834340   3.829   7.257   5.922 -1.5710  1.6711  2.1945
  242MOL   H11934341   3.903   7.378   6.022 -0.4570 -1.0505  0.3605
  242MOL   H12034342   4.041   7.298   5.773 -2.0467 -0.6171 -1.4704
  242MOL   C12134343   4.115   7.446   5.909  0.1834 -0.6204  0.3054
  242MOL   C12234344   4.215   7.516   5.814 -0.3491 -1.6213 -0.8459
  242MOL   C12334345   4.211   7.469   5.676  0.5192 -0.2087  0.2993
  242MOL   N12434346   4.212   7.433   5.571  0.3936  0.4778  0.3144
  242MOL   H12534347   4.089   7.506   5.995  1.5859  3.0323 -1.7162
  242MOL   H12634348   4.175   7.369   5.956  0.1820 -1.2564 -0.6972
  242MOL   H12734349   4.320   7.504   5.840 -0.1152  2.1156  0.1717
  242MOL   C12834350   4.187   7.666   5.810  0.0087  1.1080 -0.2972
  242MOL   C12934351   4.266   7.746   5.915 -0.7703  0.1843 -0.8763
  242MOL   C13034352   4.412   7.705   5.903  0.2104  0.2447 -0.3826
  242MOL   N13134353   4.523   7.679   5.893  0.7570  0.7109 -0.7163
  242MOL   H13234354   4.211   7.701   5.709 -2.0296  1.5796 -0.6422
  242MOL   H13334355   4.082   7.687   5.829 -0.3998 -1.3122  0.3157
  242MOL   H13434356   4.229   7.717   6.013  1.4515  0.8783  0.2040
  242MOL   C13534357   4.236   7.900   5.897  0.2675  0.0240  0.3597
  242MOL   C13634358   4.360   7.995   5.912 -0.1078 -0.0666  0.2661
  242MOL   C13734359   4.422   7.988   6.047  0.5819 -0.7356 -0.2555
  242MOL   N13834360   4.464   7.983   6.156 -0.3889  0.2010  0.1870
  242MOL   H13934361   4.206   7.925   5.795 -1.5544  1.4956  1.2359
  242MOL   H14034362   4.145   7.933   5.946  0.6798  2.2471 -0.3367
  242MOL   H14134363   4.333   8.098   5.885 -0.3154 -0.2641 -0.2948
  242MOL   H14234364   4.439   7.963   5.843  1.1379 -1.1266  2.1388
  243MOL     C134365   5.335   0.241   0.931  0.0529  0.6212 -0.0430
  243MOL     C234366   5.279   0.319   0.812  0.2766  0.4294 -0.3755
  243MOL     C334367   5.203   0.439   0.853  0.2272  0.1205 -0.7662
  243MOL     N434368   5.142   0.535   0.891 -0.3223 -0.0488  0.2297
  243MOL     H534369   5.424   0.292   0.970 -1.3643  3.0901  0.0447
  243MOL     H634370   5.372   0.144   0.897 -2.5242 -0.5895  0.5409
  243MOL     H734371   5.207   0.261   0.754  0.2538  1.8841 -1.8281
  243MOL     H834372   5.273   0.225   1.020  0.0851 -2.5463 -0.5404
  243MOL     C934373   5.394   0.367   0.720  0.0775 -0.0627 -0.1366
  243MOL    C1034374   5.474   0.266   0.636 -0.0570  0.1330  0.4847
  243MOL    C1134375   5.374   0.211   0.544  0.3613  0.5812 -0.7057
  243MOL    N1234376   5.296   0.167   0.472 -0.1282  0.0903  0.2035
  243MOL    H1334377   5.368   0.455   0.662  2.2943 -0.5171 -1.8557
  243MOL    H1434378   5.470   0.414   0.783  2.2450 -3.3636 -0.1551
  243MOL    H1534379   5.513   0.183   0.695 -1.1859 -1.2078 -0.6035
  243MOL    C1634380   5.598   0.335   0.575 -0.3151 -0.0448  0.3494
  243MOL    C1734381   5.695   0.251   0.488 -0.0452 -0.0309  0.6310
  243MOL    C1834382   5.639   0.240   0.349  0.0870 -0.0346 -0.3486
  243MOL    N1934383   5.592   0.230   0.244 -0.8081  0.6840 -0.5112
  243MOL    H2034384   5.567   0.419   0.513  0.0343  0.0043  0.2431
  243MOL    H2134385   5.649   0.388   0.655 -3.2630 -1.2055  3.0919
  243MOL    H2234386   5.698   0.148   0.524 -0.5341 -0.9785 -1.9291
  243MOL    C2334387   5.840   0.303   0.494  0.1557  0.1399  0.0468
  243MOL    C2434388   5.945   0.188   0.483  0.0141 -0.0329  0.7558
  243MOL    C2534389   5.964   0.123   0.615  0.4171  0.1600  0.4516
  243MOL    N2634390   5.982   0.067   0.714 -0.0610  0.6954  0.2426
  243MOL    H2734391   5.863   0.378   0.418  0.1315 -1.0678 -1.1685
  243MOL    H2834392   5.863   0.352   0.588 -1.9655 -0.6783  1.0095
  243MOL    H2934393   6.040   0.239   0.465  0.0879 -1.2011 -2.2911
  243MOL    C3034394   5.927   0.079   0.374 -0.5717  0.2422 -0.9465
  243MOL    C3134395   6.035   8.272   0.375 -0.1678 -0.2676 -0.3332
  243MOL    C3234396   6.171   0.010   0.384  1.0017  0.8951  0.6023
  243MOL    N3334397   6.278   0.046   0.382  0.6253  0.5306  0.1881
  243MOL    H3434398   5.827   0.039   0.388 -0.6050  0.6323 -0.0395
  243MOL    H3534399   5.927   0.136   0.281 -0.8691  1.7762 -0.0248
  243MOL    H3634400   6.018   8.222   0.279 -0.1691 -0.8502 -0.0358
  243MOL    C3734401   6.010   8.168   0.483 -0.3893  0.1379 -0.3568
  243MOL    C3834402   6.060   8.025   0.445 -1.2611  0.2075 -0.4025
  243MOL    C3934403   5.964   7.970   0.347 -0.1183  1.5493  0.1787
  243MOL    N4034404   5.886   7.932   0.277  0.2708 -0.3811  0.1975
  243MOL    H4134405   6.065   8.196   0.573  0.8636 -2.3445 -0.3034
  243MOL    H4234406   5.907   8.155   0.516  0.4212  1.9664  3.1410
  243MOL    H4334407   6.052   7.956   0.529  0.3009  0.5764  0.0657
  243MOL    C4434408   6.213   8.015   0.402  0.8559  0.0216  0.4853
  243MOL    C4534409   6.277   7.879   0.365 -0.0048 -0.3945 -0.0645
  243MOL    C4634410   6.207   7.802   0.261  0.4348  0.3705 -0.2035
  243MOL    N4734411   6.156   7.740   0.175 -0.1391 -0.1578 -0.3204
  243MOL    H4834412   6.215   8.082   0.315  0.1233 -0.6634 -0.0692
  243MOL    H4934413   6.268   8.053   0.488  0.6485  2.0771 -0.2515
  243MOL    H5034414   6.269   7.817   0.454 -1.7348  2.6407  1.9429
  243MOL    C5134415   6.427   7.899   0.344 -0.0916 -0.4218 -0.0402
  243MOL    C5234416   6.505   7.778   0.297 -0.5359  0.6815 -0.5650
  243MOL    C5334417   6.640   7.831   0.252  0.3005  0.4217 -0.0401
  243MOL    N5434418   6.737   7.888   0.214 -0.1889  0.9086 -0.2163
  243MOL    H5534419   6.440   7.979   0.271  1.5265 -2.6366 -2.2618
  243MOL    H5634420   6.472   7.930   0.439  2.2962  0.2797 -1.3512
  243MOL    H5734421   6.450   7.742   0.211 -1.2090  0.9820 -0.2665
  243MOL    C5834422   6.531   7.671   0.404  0.8007  0.0549  0.1238
  243MOL    C5934423   6.634   7.673   0.512 -0.1799  0.3708 -0.0060
  243MOL    C6034424   6.633   7.801   0.582 -0.4595  0.2399 -0.6513
  243MOL    N6134425   6.627   7.899   0.638 -0.4740 -0.0600 -0.2671
  243MOL    H6234426   6.434   7.642   0.444  1.1316  0.4643  1.2301
  243MOL    H6334427   6.562   7.581   0.350  0.7128  0.8172 -1.2174
  243MOL    H6434428   6.736   7.669   0.474  0.2893 -0.0416  1.2789
  243MOL    C6534429   6.618   7.553   0.603  0.0296 -0.1104 -0.6033
  243MOL    C6634430   6.529   7.570   0.727 -0.4416  0.7314 -0.2402
  243MOL    C6734431   6.404   7.636   0.694  0.4802 -0.7595 -0.0934
  243MOL    N6834432   6.300   7.683   0.674  0.4630 -0.1243 -0.0007
  243MOL    H6934433   6.583   7.460   0.559 -3.5395  0.4845  0.8310
  243MOL    H7034434   6.723   7.532   0.624  0.1238  2.7077  2.1770
  243MOL    H7134435   6.586   7.636   0.793 -0.4145  1.6558 -1.1565
  243MOL    C7234436   6.505   7.431   0.803  0.7090 -0.1135 -0.1281
  243MOL    C7334437   6.390   7.339   0.747 -0.6424 -0.0729 -0.6265
  243MOL    C7434438   6.365   7.353   0.602 -0.4412 -0.4361  0.4607
  243MOL    N7534439   6.346   7.360   0.484 -0.8450  0.2848  0.1017
  243MOL    H7634440   6.603   7.383   0.812  0.0168 -1.2151  1.9321
  243MOL    H7734441   6.476   7.446   0.907  1.2374  0.0436 -0.0022
  243MOL    H7834442   6.303   7.373   0.802 -0.3091 -1.5753  0.8626
  243MOL    C7934443   6.413   7.189   0.780  0.5606  0.3720 -0.5756
  243MOL    C8034444   6.293   7.110   0.841  1.2281 -0.3572  0.2249
  243MOL    C8134445   6.312   6.966   0.819 -0.0563  0.4788 -0.3407
  243MOL    N8234446   6.333   6.850   0.810  0.1528  0.3049  0.2092
  243MOL    H8334447   6.436   7.123   0.696  1.3523  0.6345 -0.5647
  243MOL    H8434448   6.497   7.181   0.850 -0.7168 -2.4517  0.7428
  243MOL    H8534449   6.198   7.134   0.794  0.6143 -2.8443  0.1308
  243MOL    C8634450   6.285   7.146   0.993 -0.1537 -0.1429  0.3461
  243MOL    C8734451   6.139   7.143   1.055 -0.4065 -0.0534  0.1227
  243MOL    C8834452   6.161   7.159   1.200 -0.1791 -0.0076 -0.2723
  243MOL    N8934453   6.173   7.171   1.313 -0.5313  0.2283 -0.7429
  243MOL    H9034454   6.353   7.082   1.049 -1.2954 -2.0973 -0.4711
  243MOL    H9134455   6.322   7.249   0.991 -2.2285  0.6331  1.2862
  243MOL    H9234456   6.100   7.042   1.040  1.4550 -0.3694 -3.0303
  243MOL    C9334457   6.044   7.262   1.015 -0.7363 -0.4654  0.7097
  243MOL    C9434458   5.899   7.229   1.056 -0.2316  0.3068 -0.0755
  243MOL    C9534459   5.823   7.352   1.092 -0.6502 -0.5701  0.1973
  243MOL    N9634460   5.767   7.445   1.125  0.4529 -0.2726  0.5592
  243MOL    H9734461   6.074   7.354   1.065 -3.6920  0.9120  0.0741
  243MOL    H9834462   6.041   7.295   0.911 -2.7047 -1.0486  0.5590
  243MOL    H9934463   5.895   7.163   1.142  0.3180  0.3090 -0.0468
  243MOL   C10034464   5.821   7.151   0.948 -0.3023 -0.3891  0.0980
  243MOL   C10134465   5.690   7.069   0.983 -0.6993  0.6992  0.1749
  243MOL   C10234466   5.719   6.962   1.085  0.0227  0.8310  0.3312
  243MOL   N10334467   5.747   6.875   1.158 -0.1253 -0.0075  0.1334
  243MOL   H10434468   5.797   7.218   0.866  0.4246 -0.7192 -0.3976
  243MOL   H10534469   5.893   7.079   0.908  2.5976  1.3672  1.9845
  243MOL   H10634470   5.657   7.020   0.891  0.7851 -1.0292  0.5483
  243MOL   C10734471   5.571   7.167   1.019 -0.4479  0.1804 -0.3454
  243MOL   C10834472   5.428   7.100   1.003 -0.4801  0.0540  0.1935
  243MOL   C10934473   5.420   6.966   1.067 -0.7281 -0.1831 -0.0991
  243MOL   N11034474   5.406   6.862   1.115  0.4042 -0.4660  0.6499
  243MOL   H11134475   5.596   7.213   1.114  0.1320 -0.4722 -0.1824
  243MOL   H11234476   5.575   7.241   0.938 -1.4451  2.3420  1.5310
  243MOL   H11334477   5.424   7.076   0.897  0.5307  1.8451 -0.2554
  243MOL   C11434478   5.313   7.195   1.047 -0.2441 -0.1588  0.6190
  243MOL   C11534479   5.195   7.208   0.952 -0.2645 -0.0424  0.7107
  243MOL   C11634480   5.145   7.074   0.912  0.2300  0.0649  0.2531
  243MOL   N11734481   5.117   6.969   0.882  0.3694  0.3662 -0.0887
  243MOL   H11834482   5.273   7.147   1.137 -0.1040 -0.6784  0.4064
  243MOL   H11934483   5.331   7.296   1.083 -2.3133  0.3863  0.2156
  243MOL   H12034484   5.245   7.254   0.867 -3.8824  2.0695 -0.3718
  243MOL   C12134485   5.080   7.307   0.990 -0.0952 -0.3652 -0.0385
  243MOL   C12234486   5.040   7.415   0.894 -0.5124  0.4573  0.1810
  243MOL   C12334487   5.042   7.366   0.758  0.0281  0.6922  0.1081
  243MOL   N12434488   5.041   7.324   0.651  0.2955  0.7977  0.2019
  243MOL   H12534489   4.987   7.250   0.995  0.1114 -1.0235 -3.0773
  243MOL   H12634490   5.098   7.365   1.081 -1.3929  0.1238 -0.0863
  243MOL   H12734491   5.104   7.503   0.897 -0.1020  0.1358  0.8785
  243MOL   C12834492   4.909   7.493   0.930 -0.0995  0.7970 -0.5065
  243MOL   C12934493   4.844   7.588   0.825 -0.5009 -0.2296 -0.4236
  243MOL   C13034494   4.730   7.659   0.896  0.5445 -0.1605  0.1821
  243MOL   N13134495   4.643   7.715   0.952  0.6599 -0.0720  0.1722
  243MOL   H13234496   4.830   7.425   0.960 -0.1342  0.5777 -1.0783
  243MOL   H13334497   4.930   7.552   1.019  0.1827 -0.4571  0.2554
  243MOL   H13434498   4.801   7.540   0.738 -1.7642  0.3703 -0.1460
  243MOL   C13534499   4.938   7.693   0.781  0.6773 -0.1181 -0.8867
  243MOL   C13634500   4.880   7.801   0.677  0.2947 -0.1596  0.1021
  243MOL   C13734501   4.835   7.728   0.561  0.2397 -0.0090  0.5514
  243MOL   N13834502   4.795   7.674   0.466 -0.4443 -0.2927  0.2291
  243MOL   H13934503   4.970   7.758   0.863  0.3067 -1.6671  0.5294
  243MOL   H14034504   5.028   7.644   0.745  0.7632 -0.3209 -0.3983
  243MOL   H14134505   4.965   7.866   0.661  0.5149  0.2716  2.7736
  243MOL   H14234506   4.796   7.858   0.716 -0.6208 -2.1043  1.0902
  244MOL     C134507   2.042   7.565   7.219  0.3435  0.6780  0.0784
  244MOL     C234508   1.905   7.628   7.234 -0.0591 -0.6280 -0.7932
  244MOL     C334509   1.876   7.713   7.123  0.3646 -0.4715 -0.3183
  244MOL     N434510   1.858   7.782   7.032  0.4516 -0.1001  0.4581
  244MOL     H534511   2.079   7.522   7.312  0.7356  2.3966  0.7315
  244MOL     H634512   2.121   7.632   7.185 -0.4487  0.7579 -1.6263
  244MOL     H734513   1.913   7.706   7.309 -2.8292  0.4523 -1.5583
  244MOL     H834514   2.034   7.497   7.134 -1.7540  2.5431 -1.2891
  244MOL     C934515   1.794   7.532   7.261 -0.9762  0.3889  0.2823
  244MOL    C1034516   1.751   7.518   7.407 -0.8768 -0.2810  0.4919
  244MOL    C1134517   1.608   7.473   7.406 -0.3273 -0.0205 -0.4935
  244MOL    N1234518   1.496   7.444   7.412 -0.2436  0.1810 -0.1173
  244MOL    H1334519   1.707   7.565   7.203  0.3087 -1.1481 -2.6387
  244MOL    H1434520   1.815   7.437   7.212 -0.7243 -0.0405  1.2079
  244MOL    H1534521   1.754   7.617   7.451 -0.0746 -0.8933  1.8386
  244MOL    C1634522   1.857   7.434   7.473 -0.7483 -0.3215 -0.7984
  244MOL    C1734523   1.846   7.398   7.624 -0.3312  0.1505  0.6055
  244MOL    C1834524   1.962   7.312   7.654 -0.3667 -0.7330  0.3497
  244MOL    N1934525   2.049   7.240   7.675  0.2471 -0.5947  0.9914
  244MOL    H2034526   1.882   7.344   7.417 -0.5072  0.8480 -2.6162
  244MOL    H2134527   1.949   7.491   7.466 -0.9878  0.6959  2.9646
  244MOL    H2234528   1.758   7.334   7.628 -0.0254 -0.2748  0.6010
  244MOL    C2334529   1.831   7.534   7.714  0.5318  0.2529 -0.7779
  244MOL    C2434530   1.880   7.520   7.859  0.4556 -0.1825  0.5308
  244MOL    C2534531   2.023   7.515   7.883 -0.4046  0.3027  0.0709
  244MOL    N2634532   2.137   7.521   7.905 -0.1992  0.5556 -0.1394
  244MOL    H2734533   1.877   7.618   7.662 -0.3193  0.6354 -0.9338
  244MOL    H2834534   1.726   7.563   7.705 -0.1883 -1.6921  0.8400
  244MOL    H2934535   1.846   7.426   7.901  2.2226 -1.0061  0.1673
  244MOL    C3034536   1.818   7.638   7.943  0.3737 -0.3720 -0.0758
  244MOL    C3134537   1.664   7.644   7.954 -0.2651  0.2698  0.5150
  244MOL    C3234538   1.615   7.507   7.967  0.7419 -0.5187 -0.6020
  244MOL    N3334539   1.579   7.391   7.965 -0.7832  0.2213 -0.2125
  244MOL    H3434540   1.875   7.644   8.036  0.0057  3.6824 -0.0352
  244MOL    H3534541   1.846   7.735   7.902 -1.8698  0.4488  0.2482
  244MOL    H3634542   1.624   7.688   7.863  1.0943  2.0312  0.7351
  244MOL    C3734543   1.617   7.741   8.070  0.4209 -0.1169  0.8065
  244MOL    C3834544   1.463   7.746   8.103  0.0719  0.9663 -0.1199
  244MOL    C3934545   1.383   7.733   7.979 -0.3173  0.3776 -0.0988
  244MOL    N4034546   1.323   7.712   7.880 -0.1694 -0.2708  0.0192
  244MOL    H4134547   1.674   7.729   8.162 -0.8937 -2.0311  1.3881
  244MOL    H4234548   1.652   7.840   8.041 -0.2079 -0.0599  0.2308
  244MOL    H4334549   1.447   7.846   8.146 -0.6820  0.4402  0.8385
  244MOL    C4434550   1.427   7.646   8.220  0.8337 -0.2656 -0.8407
  244MOL    C4534551   1.289   7.668   8.283  0.0457  0.2699 -0.8933
  244MOL    C4634552   1.170   7.677   8.196 -0.3157  0.0790  0.9138
  244MOL    N4734553   1.076   7.678   8.125  0.1202 -0.5491 -0.1884
  244MOL    H4834554   1.419   7.547   8.176 -0.0264 -0.9012  0.7044
  244MOL    H4934555   1.508   7.645   8.292  0.3402 -2.2459 -0.3092
  244MOL    H5034556   1.289   7.768   0.015 -1.2633 -0.0302 -0.1841
  244MOL    C5134557   1.271   7.578   0.095 -0.1845 -0.2954  0.3470
  244MOL    C5234558   1.257   7.425   0.081  0.0524 -0.0549  0.4209
  244MOL    C5334559   1.379   7.353   0.040 -0.2969 -0.3671 -0.5497
  244MOL    N5434560   1.473   7.301   8.310  0.0249 -0.1927  0.8900
  244MOL    H5534561   1.337   7.613   0.175 -0.1810 -0.2419  0.3213
  244MOL    H5634562   1.174   7.616   0.126  0.1441  1.0286 -0.2137
  244MOL    H5734563   1.182   7.404   0.005 -0.9328 -1.9969  1.8727
  244MOL    C5834564   1.193   7.380   0.209  0.2373 -0.3122  0.1868
  244MOL    C5934565   1.118   7.249   0.195 -0.5514  0.9297 -0.1218
  244MOL    C6034566   1.002   7.268   0.101  0.3809 -0.2051  0.1187
  244MOL    N6134567   0.915   7.286   0.022  0.2116 -0.1611 -0.0812
  244MOL    H6234568   1.280   7.373   0.274  1.2655  0.4115 -1.0768
  244MOL    H6334569   1.118   7.446   0.253  1.5552  1.0237  0.4505
  244MOL    H6434570   1.065   7.227   0.288 -1.0518  0.1626 -0.5883
  244MOL    C6534571   1.213   7.123   0.168  0.8080 -0.8149  0.3564
  244MOL    C6634572   1.156   6.999   0.239 -0.6715  0.1498 -0.0573
  244MOL    C6734573   1.146   7.001   0.387 -0.0336 -0.0530 -0.4342
  244MOL    N6834574   1.135   7.011   0.503  0.5698  0.2815 -0.6860
  244MOL    H6934575   1.221   7.107   0.061  2.0311 -1.4080  0.5284
  244MOL    H7034576   1.316   7.145   0.197 -0.2902  1.6863  2.6287
  244MOL    H7134577   1.233   6.925   0.218 -2.0417 -0.9028 -1.4456
  244MOL    C7234578   1.021   6.945   0.183  0.4325 -0.7192 -0.6813
  244MOL    C7334579   1.003   6.932   0.033 -0.6675  0.7958  0.5870
  244MOL    C7434580   1.084   6.817   8.292  0.0690  0.4750  0.1349
  244MOL    N7534581   1.148   6.727   8.259 -0.5299  0.1333  0.3847
  244MOL    H7634582   0.988   6.853   0.232 -0.8776  0.0817 -0.0333
  244MOL    H7734583   0.953   7.023   0.216  1.1232  0.1730 -1.3627
  244MOL    H7834584   1.051   7.018   8.298 -1.1668  0.7626  0.0100
  244MOL    C7934585   0.854   6.927   8.305 -0.6504  0.1756  0.2436
  244MOL    C8034586   0.827   6.946   8.155 -0.6440  0.0405 -0.3842
  244MOL    C8134587   0.868   6.825   8.077  0.0658 -0.1002 -0.7028
  244MOL    N8234588   0.897   6.728   8.021 -0.7787 -0.1269  0.2172
  244MOL    H8334589   0.817   6.834   0.036 -0.1888 -0.2381 -0.2462
  244MOL    H8434590   0.814   7.011   0.048 -0.8944  0.1562  0.0966
  244MOL    H8534591   0.890   7.025   8.116  0.7696 -1.6050 -1.5125
  244MOL    C8634592   0.690   7.002   8.112  0.3934 -0.3356  0.0083
  244MOL    C8734593   0.564   6.909   8.117 -0.4641 -0.3654 -0.1314
  244MOL    C8834594   0.560   6.809   8.223  0.7134  0.6150  0.3169
  244MOL    N8934595   0.552   6.731   8.308  0.0244 -0.4341  0.0683
  244MOL    H9034596   0.672   7.087   8.178 -0.2938  1.1681 -2.0700
  244MOL    H9134597   0.701   7.049   8.014  0.4744  2.0003  1.0922
  244MOL    H9234598   0.566   6.837   8.035 -2.8708 -3.4456  2.3986
  244MOL    C9334599   0.429   6.988   8.117  0.1980 -1.0599  0.1710
  244MOL    C9434600   0.315   6.926   8.034  0.9844  0.3952 -0.2615
  244MOL    C9534601   0.348   6.908   7.893 -0.6658 -0.7190  0.6947
  244MOL    N9634602   0.382   6.890   7.780  0.1814 -0.4158  0.3294
  244MOL    H9734603   0.401   7.004   8.221  0.0226  0.5322 -0.1182
  244MOL    H9834604   0.445   7.090   8.083  0.3243 -0.7415  1.1590
  244MOL    H9934605   0.232   6.996   8.030  0.7537  0.2088  1.1401
  244MOL   C10034606   0.261   6.790   8.085 -0.1323 -0.0237  0.4741
  244MOL   C10134607   0.193   6.800   8.216  0.2131 -0.2319 -0.2492
  244MOL   C10234608   0.076   6.892   8.210 -0.6435 -0.1771 -0.3566
  244MOL   N10334609   8.301   6.965   8.204  0.3064  0.4897  0.6514
  244MOL   H10434610   0.197   6.731   8.019  0.8387 -1.0840  0.4609
  244MOL   H10534611   0.352   6.731   8.097  0.6463  1.2128  0.7959
  244MOL   H10634612   0.269   6.845   8.280  1.6996 -1.5346 -1.0623
  244MOL   C10734613   0.158   6.664   8.282 -0.2396 -0.3843 -0.1213
  244MOL   C10834614   0.045   6.573   8.223  0.4156 -0.0411 -0.7156
  244MOL   C10934615   0.051   6.429   8.270  0.3005  0.2698 -0.5690
  244MOL   N11034616   0.059   6.322   8.310  0.2523  0.1350  0.3439
  244MOL   H11134617   0.256   6.617   8.280  0.5075  0.9711  2.2888
  244MOL   H11234618   0.137   6.684   0.074  0.3847  1.1092 -0.2702
  244MOL   H11334619   0.072   6.555   8.118 -1.3181 -2.0185 -0.8651
  244MOL   C11434620   8.211   6.632   8.232  0.5093  0.0898  0.1110
  244MOL   C11534621   8.110   6.531   8.175 -0.1280  0.0791 -0.2676
  244MOL   C11634622   7.975   6.539   8.229  0.1294 -0.7352  0.0608
  244MOL   N11734623   7.867   6.549   8.269  0.1760  0.5871 -0.0796
  244MOL   H11834624   8.182   6.650   0.023 -2.5800 -0.1230 -0.6653
  244MOL   H11934625   8.214   6.717   8.164  1.2063  1.3984  1.7487
  244MOL   H12034626   8.121   6.433   8.223 -2.0121  0.1239  0.3198
  244MOL   C12134627   8.124   6.506   8.026  0.2552  0.0464  0.1403
  244MOL   C12234628   8.017   6.569   7.931 -0.8843 -0.4494  0.0972
  244MOL   C12334629   7.997   6.716   7.938 -0.2565  0.0230 -0.6760
  244MOL   N12434630   7.979   6.832   7.939 -0.2450 -0.0701 -0.2352
  244MOL   H12534631   8.212   6.558   7.989  0.1452  0.2286  0.1369
  244MOL   H12634632   8.143   6.402   7.997 -1.4700 -0.5720  1.1132
  244MOL   H12734633   7.919   6.530   7.960 -0.3868 -1.1630  0.8747
  244MOL   C12834634   8.040   6.529   7.780  0.4706  0.5505 -0.0490
  244MOL   C12934635   8.026   6.374   7.752  0.0119 -0.2749 -0.1537
  244MOL   C13034636   7.920   6.308   7.827 -0.3190 -0.4124  0.0412
  244MOL   N13134637   7.829   6.263   7.884 -0.0685 -0.2585 -0.8589
  244MOL   H13234638   7.972   6.587   7.718 -0.0118 -1.0402 -1.0525
  244MOL   H13334639   8.141   6.550   7.745  0.6532  0.8130  0.6321
  244MOL   H13434640   8.111   6.320   7.794 -0.1376  1.7647  2.9881
  244MOL   C13534641   8.010   6.338   7.606  0.0634  0.8951  0.3488
  244MOL   C13634642   7.969   6.184   7.586 -0.6463  0.4947  0.1396
  244MOL   C13734643   8.057   6.092   7.653  0.4192  0.2460  0.9566
  244MOL   N13834644   8.127   6.023   7.714  0.7531 -0.0164 -0.0203
  244MOL   H13934645   7.929   6.394   7.559 -0.1937 -0.9608 -1.5085
  244MOL   H14034646   8.100   6.363   7.549  0.7749 -0.9892  0.6325
  244MOL   H14134647   7.963   6.161   7.480  0.2172  2.1194 -0.2834
  244MOL   H14234648   7.873   6.155   7.628 -0.3893  0.3469  0.6359
  245MOL     C134649   1.828   4.889   6.302  0.2058  0.0962  0.3327
  245MOL     C234650   1.749   4.792   6.217 -0.8941 -0.3022 -0.2538
  245MOL     C334651   1.712   4.679   6.302  1.1131 -0.3221  0.2728
  245MOL     N434652   1.682   4.588   6.365  0.5073  0.0877  0.0539
  245MOL     H534653   1.763   4.969   6.337  1.6789  1.2617  0.4690
  245MOL     H634654   1.912   4.935   6.249  0.2140  1.7343  1.7067
  245MOL     H734655   1.824   4.754   6.147  0.8536  0.1267  1.3558
  245MOL     H834656   1.872   4.850   6.394 -1.9263 -0.9370  0.9478
  245MOL     C934657   1.637   4.866   6.142  0.0190  0.1715  0.8838
  245MOL    C1034658   1.558   4.786   6.052 -1.0262 -0.2063 -0.1692
  245MOL    C1134659   1.457   4.863   5.982  0.1723 -0.1548  0.1414
  245MOL    N1234660   1.374   4.923   5.936 -0.0337  0.7178  0.2222
  245MOL    H1334661   1.574   4.913   6.218 -0.8365  1.4576 -0.5981
  245MOL    H1434662   1.685   4.950   6.092 -2.0372  0.2227 -1.0802
  245MOL    H1534663   1.499   4.709   6.104  1.2429 -2.9384 -1.5004
  245MOL    C1634664   1.638   4.706   5.940  0.3003  0.7576 -0.0167
  245MOL    C1734665   1.707   4.788   5.833 -0.4038  0.4640  0.3220
  245MOL    C1834666   1.825   4.858   5.886 -0.1295 -0.1222 -0.6634
  245MOL    N1934667   1.920   4.908   5.936  0.3348 -0.7089 -0.0446
  245MOL    H2034668   1.702   4.631   5.987  1.0135  1.8579  0.8179
  245MOL    H2134669   1.564   4.649   5.884 -1.2458  0.7492  1.9647
  245MOL    H2234670   1.630   4.860   5.803 -1.4800 -0.8107 -0.0447
  245MOL    C2334671   1.737   4.709   5.700  0.4764  0.6593 -0.4041
  245MOL    C2434672   1.769   4.796   5.577  0.5114 -0.5382 -0.3406
  245MOL    C2534673   1.896   4.865   5.588 -0.2092  0.2148  0.1550
  245MOL    N2634674   1.992   4.925   5.597 -0.1589  0.3251  0.1819
  245MOL    H2734675   1.813   4.634   5.722  1.1337  1.0376 -1.3661
  245MOL    H2834676   1.648   4.653   5.670 -2.0499  3.2412  2.0177
  245MOL    H2934677   1.694   4.874   5.562  1.1562 -0.1880 -1.8291
  245MOL    C3034678   1.755   4.710   5.447  0.2764 -0.0233  0.4647
  245MOL    C3134679   1.865   4.604   5.403  0.2706  0.6613 -0.1379
  245MOL    C3234680   2.002   4.656   5.370  0.6096  0.2497 -0.1818
  245MOL    N3334681   2.107   4.705   5.355  0.2809 -0.1175  0.5016
  245MOL    H3434682   1.659   4.660   5.443 -0.8797  1.7810  3.7269
  245MOL    H3534683   1.733   4.788   5.374 -0.1788  0.1475  0.7770
  245MOL    H3634684   1.835   4.569   5.304  1.1317 -0.9908  0.1761
  245MOL    C3734685   1.858   4.486   5.498 -1.0347  0.4002  0.8346
  245MOL    C3834686   1.880   4.353   5.427  0.0699  1.3476 -0.9589
  245MOL    C3934687   1.945   4.261   5.529  0.2449  0.2783 -0.8280
  245MOL    N4034688   1.992   4.189   5.609 -0.7770  0.4131 -0.2546
  245MOL    H4134689   1.933   4.500   5.576 -0.2751 -1.5427  0.4864
  245MOL    H4234690   1.761   4.492   5.548 -1.8799 -3.0862 -0.2334
  245MOL    H4334691   1.960   4.353   5.353  2.0724 -1.9394  1.0682
  245MOL    C4434692   1.764   4.291   5.344  0.7922 -0.4414  0.2511
  245MOL    C4534693   1.786   4.143   5.298  0.5950 -0.7157  0.3197
  245MOL    C4634694   1.661   4.086   5.235  0.0811 -0.3323  0.5368
  245MOL    N4734695   1.562   4.040   5.192 -0.9086  0.2012  0.2278
  245MOL    H4834696   1.674   4.306   5.404  0.3157 -1.7439 -0.1295
  245MOL    H4934697   1.750   4.352   5.254 -0.3058 -1.0724 -0.0216
  245MOL    H5034698   1.793   4.084   5.389  0.6519  0.6761  1.2306
  245MOL    C5134699   1.907   4.121   5.199 -0.0854 -0.6189 -0.5476
  245MOL    C5234700   1.972   3.979   5.216  0.3264  0.5736  0.2859
  245MOL    C5334701   1.989   3.922   5.348  0.2243  0.3222  0.4576
  245MOL    N5434702   2.000   3.868   5.452  0.2316 -0.3375 -0.5362
  245MOL    H5534703   1.896   4.142   5.093 -0.5602 -0.2904 -0.4308
  245MOL    H5634704   1.976   4.197   5.236 -0.1756  0.0972 -1.8405
  245MOL    H5734705   2.075   3.974   5.180  0.4813 -0.0450  0.8043
  245MOL    C5834706   1.900   3.873   5.132  0.3122  0.2764  0.1507
  245MOL    C5934707   1.958   3.732   5.131  0.1655 -0.3585  0.0270
  245MOL    C6034708   1.863   3.646   5.072  0.7347  0.3497  0.3599
  245MOL    N6134709   1.782   3.578   5.021  0.0455 -0.2239  0.6605
  245MOL    H6234710   1.799   3.861   5.170  0.1431  1.9930  0.2601
  245MOL    H6334711   1.880   3.893   5.026 -3.3141  0.2967  0.7838
  245MOL    H6434712   1.983   3.695   5.230  3.7105 -5.2957 -2.5095
  245MOL    C6534713   2.089   3.729   5.057  0.6160  0.6405  0.1905
  245MOL    C6634714   2.167   3.594   5.063  0.3781 -0.4105  0.1355
  245MOL    C6734715   2.246   3.574   4.944 -0.2662  0.7176 -0.0199
  245MOL    N6834716   2.308   3.553   4.845 -0.1390 -0.0754  0.5822
  245MOL    H6934717   2.081   3.767   4.955 -0.6769  1.2920  0.5306
  245MOL    H7034718   2.153   3.797   5.114  0.4213  0.7832  0.2386
  245MOL    H7134719   2.089   3.518   5.048 -0.6696  0.7347 -0.2761
  245MOL    C7234720   2.241   3.575   5.195  0.4296 -0.0018  0.5312
  245MOL    C7334721   2.270   3.426   5.233  0.2498 -0.2383  0.0893
  245MOL    C7434722   2.360   3.359   5.140 -0.3653 -0.8105 -0.8034
  245MOL    N7534723   2.434   3.310   5.065  0.4623  0.3053  0.1518
  245MOL    H7634724   2.324   3.644   5.206  0.2886  0.4836 -1.2198
  245MOL    H7734725   2.181   3.607   5.280  2.1470 -0.3202  1.8990
  245MOL    H7834726   2.179   3.367   5.238  1.0962 -1.5806 -0.1198
  245MOL    C7934727   2.335   3.405   5.374 -0.1188 -0.0558  0.4074
  245MOL    C8034728   2.280   3.288   5.465 -0.2914 -0.3033 -0.9439
  245MOL    C8134729   2.292   3.158   5.396 -0.0272 -0.0277 -0.1753
  245MOL    N8234730   2.302   3.052   5.347  0.2113 -0.0221  0.4285
  245MOL    H8334731   2.442   3.391   5.356 -0.2693 -0.2926 -0.3494
  245MOL    H8434732   2.339   3.493   5.437  1.3605  0.6009 -0.5911
  245MOL    H8534733   2.177   3.307   5.496 -0.1387 -2.1953  0.7972
  245MOL    C8634734   2.348   3.266   5.602  1.0624 -0.0360  1.0626
  245MOL    C8734735   2.272   3.169   5.707  0.6025  0.4126 -0.0439
  245MOL    C8834736   2.158   3.244   5.759  0.6029 -0.7110  0.2439
  245MOL    N8934737   2.067   3.306   5.801  0.0183 -0.3281 -0.5346
  245MOL    H9034738   2.452   3.237   5.588  0.6047 -0.8937 -0.7008
  245MOL    H9134739   2.363   3.363   5.650  0.3665 -0.2736  1.7806
  245MOL    H9234740   2.336   3.166   5.795  0.5572 -1.7927 -0.0438
  245MOL    C9334741   2.259   3.019   5.677 -0.1371 -0.5909  0.6158
  245MOL    C9434742   2.263   2.905   5.787  0.4765 -0.3949  0.4125
  245MOL    C9534743   2.159   2.916   5.892 -0.2496  0.3592  0.3222
  245MOL    N9634744   2.080   2.929   5.974  0.4789  0.4235 -0.8659
  245MOL    H9734745   2.168   3.007   5.619 -0.0597  0.8053  0.1858
  245MOL    H9834746   2.337   2.999   5.604  2.4100  1.3922  2.6764
  245MOL    H9934747   2.358   2.924   5.837  0.5427  1.5122 -0.3797
  245MOL   C10034748   2.271   2.769   5.720 -0.1533  0.6242  0.1036
  245MOL   C10134749   2.279   2.637   5.808  0.0436 -0.3331  0.4252
  245MOL   C10234750   2.364   2.659   5.929 -0.9247 -0.4000  0.1126
  245MOL   N10334751   2.431   2.675   6.018 -0.2234 -0.2816  0.1515
  245MOL   H10434752   2.188   2.754   5.651 -0.1961  0.4263  0.1980
  245MOL   H10534753   2.358   2.752   5.657 -0.6184 -0.7743 -0.1887
  245MOL   H10634754   2.336   2.575   5.740 -1.1574 -0.6655 -0.2947
  245MOL   C10734755   2.136   2.590   5.833 -0.0669 -0.2708 -0.3763
  245MOL   C10834756   2.129   2.460   5.916 -0.3604  0.7195  0.4057
  245MOL   C10934757   2.249   2.374   5.906  0.4154 -0.4854  0.3904
  245MOL   N11034758   2.345   2.305   5.900  0.3573  0.1707 -0.2553
  245MOL   H11134759   2.073   2.660   5.888  0.5642  0.4423 -0.5600
  245MOL   H11234760   2.086   2.562   5.741  0.9287 -1.1539 -0.6545
  245MOL   H11334761   2.041   2.408   5.879  1.3249 -0.8799 -1.4925
  245MOL   C11434762   2.102   2.473   6.065  0.4035 -0.0853  0.0231
  245MOL   C11534763   1.956   2.509   6.110  0.2546  0.5406 -0.3216
  245MOL   C11634764   1.854   2.433   6.034  0.3304 -0.1034 -0.6104
  245MOL   N11734765   1.772   2.373   5.976  0.3373  0.1308 -0.1171
  245MOL   H11834766   2.125   2.379   6.115 -2.5008 -0.2242  1.2016
  245MOL   H11934767   2.170   2.545   6.112 -0.0595  0.7734 -0.6008
  245MOL   H12034768   1.948   2.611   6.073 -1.3598  0.9757  1.1588
  245MOL   C12134769   1.942   2.495   6.268 -0.1006  0.2310 -0.0549
  245MOL   C12234770   1.822   2.574   6.319  0.0076  1.0267 -0.0879
  245MOL   C12334771   1.695   2.499   6.308 -0.3160 -0.2828  0.3156
  245MOL   N12434772   1.594   2.443   6.296 -0.1704  0.0925  0.7200
  245MOL   H12534773   1.925   2.388   6.282  1.4952  0.0210  0.3136
  245MOL   H12634774   2.033   2.529   6.316  1.2364  1.6751 -3.4974
  245MOL   H12734775   1.816   2.670   6.268  0.6921  1.1584  0.0795
  245MOL   C12834776   1.837   2.585   6.474 -0.3549  0.2772 -0.1424
  245MOL   C12934777   1.945   2.694   6.508 -0.0806  0.4809 -0.1560
  245MOL   C13034778   1.910   2.821   6.439 -0.0182  0.5503  0.3917
  245MOL   N13134779   1.879   2.913   6.381  0.4785 -0.3107 -0.0400
  245MOL   H13234780   1.741   2.613   6.517  0.5276  0.0332  2.0978
  245MOL   H13334781   1.847   2.486   6.518 -0.9419  1.2628  2.2938
  245MOL   H13434782   2.043   2.667   6.470 -0.9916 -1.2518 -1.3652
  245MOL   C13534783   1.969   2.709   6.653 -0.1760 -0.5796 -0.9180
  245MOL   C13634784   2.084   2.804   6.692 -0.5824 -0.0394  0.5749
  245MOL   C13734785   2.192   2.823   6.592 -0.2652  0.2074 -0.3145
  245MOL   N13834786   2.277   2.841   6.520 -0.4778 -0.2202 -0.5427
  245MOL   H13934787   1.877   2.740   6.702 -0.6558  0.3540 -2.3846
  245MOL   H14034788   1.996   2.611   6.693 -1.6345 -0.3177  0.7592
  245MOL   H14134789   2.131   2.768   6.784 -1.2526  1.7977  1.6663
  245MOL   H14234790   2.029   2.895   6.716  1.0713  1.1048  0.1268
  246MOL     C134791   0.409   3.158   6.253 -0.3178 -0.0998  0.5465
  246MOL     C234792   0.448   3.241   6.137  0.1046  0.3672  0.8740
  246MOL     C334793   0.577   3.195   6.088 -0.3981 -0.3826  0.7383
  246MOL     N434794   0.679   3.160   6.041 -0.4667  0.2534  0.3787
  246MOL     H534795   0.483   3.145   6.332  1.5867  0.1008 -1.1589
  246MOL     H634796   0.386   3.059   6.214  1.9364 -0.3037 -0.3323
  246MOL     H734797   0.458   3.344   6.171 -1.0502  0.4175  1.0655
  246MOL     H834798   0.324   3.205   6.303 -1.5688  0.3562 -1.9304
  246MOL     C934799   0.332   3.235   6.029  0.4245  0.3369  0.5616
  246MOL    C1034800   0.360   3.299   5.890  0.4145  0.1497 -0.0217
  246MOL    C1134801   0.395   3.439   5.897  0.2947 -0.1261  0.0543
  246MOL    N1234802   0.419   3.550   5.895  0.0926  0.8223  0.6180
  246MOL    H1334803   0.300   3.133   6.005 -1.1057  0.9530 -0.0635
  246MOL    H1434804   0.241   3.283   6.062  0.8689  0.6933  1.2853
  246MOL    H1534805   0.263   3.306   5.839  0.6531 -0.8591 -0.6504
  246MOL    C1634806   0.430   3.220   5.785 -0.5833 -0.0796  0.3268
  246MOL    C1734807   0.424   3.272   5.639  0.4219  0.1708  0.3582
  246MOL    C1834808   0.469   3.410   5.621 -0.0254 -0.1387 -0.0154
  246MOL    N1934809   0.506   3.516   5.602  0.2434 -0.0381 -0.1715
  246MOL    H2034810   0.534   3.212   5.815 -0.2196  0.6772 -0.7247
  246MOL    H2134811   0.381   3.123   5.779 -2.0754  0.8035 -2.8894
  246MOL    H2234812   0.320   3.273   5.608 -0.2572 -0.0135  2.6020
  246MOL    C2334813   0.503   3.185   5.536 -0.0906  0.9149  0.7170
  246MOL    C2434814   0.417   3.084   5.454  0.2624 -0.0595  0.1683
  246MOL    C2534815   0.322   3.152   5.364 -0.3125 -0.4568  0.6062
  246MOL    N2634816   0.251   3.210   5.291  0.1236 -0.2453  0.3176
  246MOL    H2734817   0.558   3.243   5.462 -0.5869 -1.3164 -1.4831
  246MOL    H2834818   0.587   3.148   5.595  1.3836  1.6129 -0.9075
  246MOL    H2934819   0.353   3.029   5.523 -0.4336  0.2600 -0.2085
  246MOL    C3034820   0.503   2.983   5.379 -0.3403  0.0760 -0.5891
  246MOL    C3134821   0.580   3.033   5.257 -0.1668  0.2439  0.7449
  246MOL    C3234822   0.711   2.965   5.241  0.0819 -0.3693  0.1494
  246MOL    N3334823   0.814   2.913   5.228  0.1887 -0.0031 -0.2219
  246MOL    H3434824   0.554   2.929   5.459 -0.1647  1.7217  0.4210
  246MOL    H3534825   0.441   2.906   5.332 -0.5546 -0.2737  0.2623
  246MOL    H3634826   0.601   3.138   5.275 -0.1883 -0.1319  3.0131
  246MOL    C3734827   0.508   3.018   5.120 -0.0440 -0.0693  0.1604
  246MOL    C3834828   0.571   3.076   4.993  0.6220 -0.3975 -0.3468
  246MOL    C3934829   0.679   2.991   4.941 -0.3439 -0.0968 -0.0241
  246MOL    N4034830   0.762   2.920   4.896  0.1655 -0.4434 -0.0601
  246MOL    H4134831   0.475   2.917   5.098  1.9677 -0.6616 -0.1738
  246MOL    H4234832   0.413   3.068   5.139 -0.0057 -0.1839  0.6625
  246MOL    H4334833   0.624   3.164   5.029  0.1502  0.6760 -2.2748
  246MOL    C4434834   0.458   3.114   4.897 -0.5295 -0.0954 -0.1161
  246MOL    C4534835   0.522   3.162   4.767 -0.9949 -0.4826  0.3842
  246MOL    C4634836   0.415   3.157   4.660  0.3554  0.1049  0.2386
  246MOL    N4734837   0.333   3.153   4.579  0.1282  0.0352  0.0945
  246MOL    H4834838   0.408   3.018   4.879 -1.0209  0.1788 -0.2393
  246MOL    H4934839   0.393   3.194   4.934  0.7847  0.4587  1.0112
  246MOL    H5034840   0.593   3.090   4.727 -1.4872  0.3815 -2.1792
  246MOL    C5134841   0.598   3.291   4.783  0.5735  0.8545  0.2897
  246MOL    C5234842   0.605   3.392   4.664 -0.2144  0.5488 -0.4107
  246MOL    C5334843   0.484   3.469   4.653 -0.3117  0.0779 -0.2162
  246MOL    N5434844   0.382   3.521   4.648 -0.1416  0.6350 -0.5756
  246MOL    H5534845   0.561   3.337   4.875  2.6326 -1.3941  2.3255
  246MOL    H5634846   0.703   3.264   4.795 -0.0878 -1.7013  0.4343
  246MOL    H5734847   0.620   3.327   4.578  2.5805  0.4531  0.1100
  246MOL    C5834848   0.738   3.480   4.669  0.8271 -0.6357  0.1299
  246MOL    C5934849   0.752   3.580   4.547 -0.1120 -0.3065  0.8264
  246MOL    C6034850   0.718   3.510   4.420 -0.1616 -0.3565 -1.0981
  246MOL    N6134851   0.689   3.453   4.325  0.1851  0.1229  0.2289
  246MOL    H6234852   0.743   3.536   4.762  1.0104  1.9844 -1.4271
  246MOL    H6334853   0.828   3.418   4.677  0.9162 -0.4649  0.5000
  246MOL    H6434854   0.858   3.606   4.542  0.0579 -1.1282 -0.0251
  246MOL    C6534855   0.670   3.714   4.564  0.0728  0.7348 -0.4707
  246MOL    C6634856   0.724   3.821   4.471  0.1899  0.0022 -0.1485
  246MOL    C6734857   0.679   3.803   4.336  0.7876 -0.2066 -0.1450
  246MOL    N6834858   0.636   3.786   4.232 -0.0798  0.3967  0.8753
  246MOL    H6934859   0.562   3.710   4.556  0.1403  0.1869 -1.1172
  246MOL    H7034860   0.682   3.730   4.671 -2.6621  0.8362 -0.1591
  246MOL    H7134861   0.832   3.809   4.455  0.1094  0.0802 -0.7411
  246MOL    C7234862   0.695   3.959   4.528 -0.4973  0.4670 -0.1376
  246MOL    C7334863   0.552   4.011   4.517  0.1389 -0.7823  0.6701
  246MOL    C7434864   0.522   4.115   4.619  0.0407  0.3691  0.3466
  246MOL    N7534865   0.497   4.203   4.696 -0.0894 -0.0703 -0.3746
  246MOL    H7634866   0.718   3.960   4.634  0.9394  1.7206 -0.4348
  246MOL    H7734867   0.760   4.033   4.481  0.9620  1.5374  3.4515
  246MOL    H7834868   0.480   3.929   4.524  0.5343 -1.2574 -0.6406
  246MOL    C7934869   0.525   4.071   4.373 -0.3439  0.3763 -0.3095
  246MOL    C8034870   0.387   4.035   4.317  0.8265 -0.0620 -0.2554
  246MOL    C8134871   0.264   4.075   4.396 -0.6600 -0.0443  0.0603
  246MOL    N8234872   0.169   4.113   4.453 -0.1332  0.7358 -0.3027
  246MOL    H8334873   0.537   4.180   4.377  0.4622  0.2566  0.4792
  246MOL    H8434874   0.612   4.052   4.310  1.5458  1.4933  1.8957
  246MOL    H8534875   0.383   3.927   4.302 -0.9228  0.1808 -1.7673
  246MOL    C8634876   0.394   4.082   4.169 -0.0661 -0.0395  0.2526
  246MOL    C8734877   0.267   4.065   4.083  0.0580  0.6184 -0.1660
  246MOL    C8834878   0.275   4.165   3.970 -0.2853  0.5051  0.8458
  246MOL    N8934879   0.282   4.239   3.883  0.0803  0.1139 -0.1800
  246MOL    H9034880   0.428   4.186   4.163  1.5686 -0.6486 -1.8007
  246MOL    H9134881   0.476   4.040   4.111  0.4043  3.9537 -2.2318
  246MOL    H9234882   0.181   4.101   4.139 -0.6244  1.3258 -1.6165
  246MOL    C9334883   0.252   3.919   4.046  0.0649  0.0726 -0.3949
  246MOL    C9434884   0.116   3.872   3.985  0.9070  0.5170 -0.5160
  246MOL    C9534885   0.094   3.947   3.863 -0.3673  0.0915  0.4524
  246MOL    N9634886   0.082   4.004   3.763  0.1646 -0.0200 -0.1023
  246MOL    H9734887   0.335   3.884   3.985  0.1099  0.8371 -0.7698
  246MOL    H9834888   0.272   3.856   4.133  0.9522 -1.1017 -1.4270
  246MOL    H9934889   0.039   3.906   4.054 -0.5555 -1.6181 -1.0476
  246MOL   C10034890   0.107   3.719   3.977 -0.0526 -0.2221  0.1178
  246MOL   C10134891   8.280   3.668   3.944 -0.6007  0.6415 -0.0963
  246MOL   C10234892   8.243   3.704   3.806 -0.1111  0.9033 -0.0929
  246MOL   N10334893   8.209   3.733   3.695  0.1946  0.4470  0.3674
  246MOL   H10434894   0.181   3.666   3.917  0.4867 -0.0974  0.6655
  246MOL   H10534895   0.124   3.684   4.079  1.6522 -1.8744 -0.7155
  246MOL   H10634896   8.212   3.720   4.012  0.6218 -0.1079  1.7403
  246MOL   C10734897   8.267   3.515   3.962  0.5945  0.0614  0.2514
  246MOL   C10834898   8.132   3.441   3.956  1.1240 -0.0052  0.0361
  246MOL   C10934899   8.034   3.498   4.054 -0.1239 -0.1245  0.4799
  246MOL   N11034900   7.956   3.543   4.125  0.1852 -0.2472  0.1979
  246MOL   H11134901   0.033   3.472   3.899 -0.4954 -1.8991  0.2054
  246MOL   H11234902   8.310   3.491   4.059  0.4395 -0.9912  0.0625
  246MOL   H11334903   8.161   3.338   3.975 -0.1832 -0.3169  0.4264
  246MOL   C11434904   8.081   3.433   3.818 -0.4245 -0.1141  0.0319
  246MOL   C11534905   7.970   3.324   3.781  0.6282  0.5311 -0.0190
  246MOL   C11634906   7.839   3.341   3.837 -0.8347 -0.2750  0.1080
  246MOL   N11734907   7.730   3.354   3.885 -0.1171  0.2386  0.3429
  246MOL   H11834908   8.046   3.531   3.785 -0.2024  0.0732  0.3589
  246MOL   H11934909   8.171   3.425   3.756 -0.0302  3.2958  0.1006
  246MOL   H12034910   7.999   3.225   3.816 -1.6252  0.0010  0.3849
  246MOL   C12134911   7.938   3.321   3.626  0.1339 -0.1724  0.5911
  246MOL   C12234912   8.062   3.320   3.535 -0.0552 -0.5888 -0.2325
  246MOL   C12334913   8.161   3.221   3.570  0.0137  1.2427 -0.3428
  246MOL   N12434914   8.238   3.142   3.591 -0.0945  0.0437 -0.5186
  246MOL   H12534915   7.875   3.239   3.592 -0.7531  0.6235  0.3027
  246MOL   H12634916   7.896   3.420   3.608  1.0048  0.3039  1.0872
  246MOL   H12734917   8.117   3.414   3.542 -0.2847 -0.3967 -0.9898
  246MOL   C12834918   8.017   3.309   3.388 -0.3882 -0.3670 -0.1927
  246MOL   C12934919   7.943   3.434   3.335 -0.2197 -0.2120  0.0317
  246MOL   C13034920   8.043   3.541   3.313  0.2846  0.6996 -0.7361
  246MOL   N13134921   8.128   3.624   3.302  0.3772  0.1131  0.3244
  246MOL   H13234922   8.108   3.297   3.329  0.1613 -1.6735  0.8708
  246MOL   H13334923   7.972   3.211   3.373  1.4968 -1.0484 -1.5369
  246MOL   H13434924   7.862   3.470   3.398 -1.4716 -0.7250 -1.2643
  246MOL   C13534925   7.873   3.400   3.196 -0.8928 -0.0414 -0.2918
  246MOL   C13634926   7.811   3.515   3.112  0.0260 -0.8920  0.3773
  246MOL   C13734927   7.718   3.599   3.178  0.3225 -0.0111  0.0087
  246MOL   N13834928   7.637   3.680   3.217 -1.2533 -0.4743 -0.5783
  246MOL   H13934929   7.938   3.358   3.120 -0.2475 -0.4478  0.4808
  246MOL   H14034930   7.800   3.320   3.208 -1.3691  0.3311 -0.6523
  246MOL   H14134931   7.764   3.471   3.024 -1.1027 -1.1957  1.1139
  246MOL   H14234932   7.892   3.581   3.081  0.7176 -0.8003  2.2884
  247MOL     C134933   0.121   4.721   4.079 -0.0377  0.0137 -0.4179
  247MOL     C234934   0.180   4.591   4.014 -0.2454  0.2466 -0.5298
  247MOL     C334935   0.259   4.504   4.104  0.0380 -0.2176  0.2288
  247MOL     N434936   0.320   4.433   4.174  0.0679  0.1585 -0.0612
  247MOL     H534937   0.192   4.770   4.146  1.7412 -1.0550 -1.4691
  247MOL     H634938   0.033   4.712   4.142  2.3632  0.5273  3.1297
  247MOL     H734939   0.243   4.606   3.926 -0.2918  0.3081 -0.5516
  247MOL     H834940   0.099   4.796   4.002  2.4902 -0.9162 -2.1215
  247MOL     C934941   0.057   4.502   3.986  0.4522 -0.9006 -0.0929
  247MOL    C1034942   8.295   4.539   3.856  0.1218 -0.1341 -0.0936
  247MOL    C1134943   0.075   4.539   3.742  0.7554 -0.3540  0.2890
  247MOL    N1234944   0.143   4.529   3.646  0.6881  0.7347 -0.5164
  247MOL    H1334945   0.097   4.402   3.971  1.1221 -0.5883 -0.4025
  247MOL    H1434946   8.292   4.479   4.059  1.7092  2.9661  2.5650
  247MOL    H1534947   8.267   4.644   3.863 -0.6164 -0.2125 -1.7425
  247MOL    C1634948   8.166   4.462   3.826  0.3163  0.1603  0.2584
  247MOL    C1734949   8.171   4.305   3.807 -0.2031 -0.2442 -0.0823
  247MOL    C1834950   8.218   4.229   3.928  0.2787 -0.2101  0.7897
  247MOL    N1934951   8.255   4.178   4.024  0.4048 -0.7397  0.9382
  247MOL    H2034952   8.095   4.491   3.903  0.2698  1.3164 -0.2103
  247MOL    H2134953   8.121   4.495   3.732 -2.0733  0.3509  1.4221
  247MOL    H2234954   8.248   4.278   3.733  0.1248 -0.2469  0.2573
  247MOL    C2334955   8.038   4.247   3.753 -0.3780 -0.1584  0.8774
  247MOL    C2434956   8.060   4.094   3.721 -0.0375 -0.2018  0.5431
  247MOL    C2534957   8.053   3.999   3.837 -0.7180 -0.6377 -0.0446
  247MOL    N2634958   8.050   3.937   3.931 -0.1692  0.3354 -0.0219
  247MOL    H2734959   7.953   4.255   3.821 -2.0159  0.6729 -1.2261
  247MOL    H2834960   8.004   4.306   3.669  0.3261 -0.1915  0.5644
  247MOL    H2934961   8.156   4.072   3.675 -0.5961 -2.4617  0.4076
  247MOL    C3034962   7.957   4.045   3.620  0.0398 -1.0723 -0.5573
  247MOL    C3134963   7.961   3.897   3.560  0.1533 -0.3611  0.6159
  247MOL    C3234964   7.917   3.804   3.669 -0.6422 -0.1599  0.0941
  247MOL    N3334965   7.880   3.739   3.755 -0.2006 -0.3133 -0.5324
  247MOL    H3434966   7.863   4.069   3.669  1.1155 -1.2592  1.6578
  247MOL    H3534967   7.955   4.112   3.534  0.0926  0.8765  0.9299
  247MOL    H3634968   8.059   3.860   3.528  1.4250  1.9444  1.7751
  247MOL    C3734969   7.868   3.884   3.433 -0.0699  0.2727 -0.1887
  247MOL    C3834970   7.887   3.979   3.316  0.6351 -0.4727  0.4988
  247MOL    C3934971   7.930   3.906   3.191 -0.1178 -0.6693  0.0137
  247MOL    N4034972   7.954   3.844   3.101 -0.0093  0.2588 -0.5104
  247MOL    H4134973   7.875   3.781   3.397 -2.2222 -0.2343  0.7750
  247MOL    H4234974   7.764   3.888   3.466 -0.9949 -2.9188 -2.5229
  247MOL    H4334975   7.970   4.050   3.324 -0.4395  0.6379  2.0390
  247MOL    C4434976   7.758   4.052   3.292 -0.1487  0.0646 -0.2214
  247MOL    C4534977   7.772   4.159   3.173  0.3614  0.1884  0.7062
  247MOL    C4634978   7.645   4.222   3.164  0.7169  0.3455 -0.3405
  247MOL    N4734979   7.540   4.276   3.160  0.0127 -0.0979 -0.3393
  247MOL    H4834980   7.681   3.980   3.265  0.8959  0.0117 -3.2762
  247MOL    H4934981   7.729   4.095   3.388  2.7637 -2.1643  1.7515
  247MOL    H5034982   7.792   4.098   3.085 -0.4447 -2.1156  2.0643
  247MOL    C5134983   7.889   4.257   3.189  0.3285 -0.2149  0.4687
  247MOL    C5234984   7.950   4.317   3.062 -0.7374  1.0415 -0.0686
  247MOL    C5334985   7.855   4.381   2.977 -0.2278 -0.4158  0.0704
  247MOL    N5434986   7.781   4.432   2.906 -0.1421  0.2710 -0.0223
  247MOL    H5534987   7.843   4.343   3.238 -1.5084  0.4269 -2.2361
  247MOL    H5634988   7.966   4.227   3.259  0.6765 -1.0116 -0.2429
  247MOL    H5734989   7.992   4.245   2.993 -3.1324 -0.2643 -0.2397
  247MOL    C5834990   8.071   4.417   3.088  0.2411 -0.1995  0.1964
  247MOL    C5934991   8.203   4.349   3.140  0.3792 -0.5932  0.3379
  247MOL    C6034992   8.248   4.244   3.051  0.4982 -0.5142 -0.0335
  247MOL    N6134993   8.290   4.165   2.981 -0.1435 -0.0218  0.0319
  247MOL    H6234994   8.097   4.463   2.993  0.3004  0.4875  0.5420
  247MOL    H6334995   8.042   4.500   3.151  1.4261  1.2298 -1.1079
  247MOL    H6434996   8.167   4.301   3.231  1.7265 -0.8130  0.7651
  247MOL    C6534997   0.006   4.442   3.168  0.3481 -0.3331  0.1680
  247MOL    C6634998   8.293   4.546   3.281  0.3294  0.3605  0.4333
  247MOL    C6734999   8.241   4.473   3.395 -0.3254 -0.2747 -0.3165
  247MOL    N6835000   8.200   4.417   3.485  0.4101 -0.3731 -0.1708
  247MOL    H6935001   0.094   4.381   3.187 -0.0463 -1.1251 -0.5290
  247MOL    H7035002   0.041   4.493   3.078  0.4987 -1.9525 -0.6940
  247MOL    H7135003   8.203   4.600   3.251 -0.7289 -1.5936 -0.0515
  247MOL    C7235004   0.105   4.638   3.314 -0.2058  0.0052  0.4024
  247MOL    C7335005   0.143   4.740   3.201 -0.4716 -0.0906  0.3837
  247MOL    C7435006   0.046   4.851   3.194 -0.5892 -0.2574  0.6440
  247MOL    N7535007   8.282   4.939   3.190  0.0792 -0.2351 -0.7640
  247MOL    H7635008   0.070   4.695   3.401 -1.9453  0.4757 -0.5779
  247MOL    H7735009   0.190   4.572   3.333  1.7471  2.2553 -0.3288
  247MOL    H7835010   0.139   4.688   3.105  1.1707  1.0651 -0.3357
  247MOL    C7935011   0.284   4.801   3.210  0.0572  0.7862 -0.2234
  247MOL    C8035012   0.357   4.856   3.086 -0.4423 -0.3510  0.0537
  247MOL    C8135013   0.334   4.768   2.968  0.4476  0.5904 -0.5318
  247MOL    N8235014   0.319   4.697   2.873 -0.6025 -0.2094  0.0159
  247MOL    H8335015   0.293   4.873   3.291  2.5008  0.1080  0.1603
  247MOL    H8435016   0.352   4.724   3.248 -0.3371  1.0994  1.1236
  247MOL    H8535017   0.465   4.861   3.100 -0.2627 -1.5575 -0.8240
  247MOL    C8635018   0.312   4.999   3.039  0.0272  0.8476  0.2036
  247MOL    C8735019   0.373   5.119   3.117 -0.5310 -0.1348  0.3393
  247MOL    C8835020   0.327   5.124   3.252 -0.0190  0.0925  0.5739
  247MOL    N8935021   0.289   5.128   3.363 -0.4466 -0.2364 -0.4395
  247MOL    H9035022   0.341   4.997   2.934 -0.3358  0.3443  0.1137
  247MOL    H9135023   0.205   5.020   3.035 -0.0047  0.6255 -0.1652
  247MOL    H9235024   0.336   5.202   3.057 -0.9987 -2.3797 -2.5949
  247MOL    C9335025   0.523   5.120   3.112 -0.2335 -0.1782  0.1554
  247MOL    C9435026   0.588   5.148   2.972  0.4556 -0.3838  0.2857
  247MOL    C9535027   0.513   5.246   2.892 -0.1717 -0.6744 -0.1274
  247MOL    N9635028   0.457   5.326   2.830  0.2535  0.0754  0.4476
  247MOL    H9735029   0.558   5.193   3.184  1.4962  0.5660 -1.4031
  247MOL    H9835030   0.565   5.028   3.152  3.2085  0.2002 -2.3295
  247MOL    H9935031   0.574   5.056   2.915 -0.9555 -0.6661  1.0633
  247MOL   C10035032   0.730   5.171   2.984  0.8240 -0.0039  0.2230
  247MOL   C10135033   0.803   5.047   3.028  0.0921 -0.2357 -0.6076
  247MOL   C10235034   0.768   4.927   2.947  0.3261  0.3277  0.6898
  247MOL   N10335035   0.744   4.835   2.882  0.8663  0.8261 -0.0305
  247MOL   H10435036   0.764   5.194   2.883 -0.9234  0.1301 -0.3459
  247MOL   H10535037   0.742   5.253   3.053  0.9114  0.1424  0.0349
  247MOL   H10635038   0.771   5.026   3.130 -0.7029  1.2668 -0.5310
  247MOL   C10735039   0.958   5.065   3.011  0.3557  0.6282 -0.1368
  247MOL   C10835040   1.021   5.158   3.114 -0.5649 -0.5051  0.6551
  247MOL   C10935041   1.002   5.118   3.256 -0.1757  0.4946 -0.4963
  247MOL   N11035042   0.974   5.089   3.361  0.1695  0.4423 -0.2413
  247MOL   H11135043   0.997   4.964   3.024 -0.2514  0.7495  2.9657
  247MOL   H11235044   0.981   5.095   2.908  0.5847 -1.0511 -0.5952
  247MOL   H11335045   0.974   5.256   3.114  1.7475  0.6413  0.0252
  247MOL   C11435046   1.166   5.201   3.075 -0.7036  0.2789 -0.2093
  247MOL   C11535047   1.289   5.132   3.152 -0.0744  0.3032 -0.0877
  247MOL   C11635048   1.333   5.192   3.278  0.0300  0.8031 -0.2609
  247MOL   N11735049   1.362   5.240   3.377  0.8252 -0.1731 -0.4039
  247MOL   H11835050   1.187   5.188   2.969 -0.0152  0.6248 -0.1207
  247MOL   H11935051   1.169   5.310   3.077 -2.4639  0.3629 -1.6818
  247MOL   H12035052   1.378   5.168   3.100  1.1678  0.2168  1.8962
  247MOL   C12135053   1.288   4.975   3.153  0.3216 -0.0759 -0.7405
  247MOL   C12235054   1.427   4.898   3.165  0.3247 -0.2311 -0.0373
  247MOL   C12335055   1.499   4.960   3.276  0.1732 -0.1531 -0.6777
  247MOL   N12435056   1.565   5.001   3.359  0.3757  0.3156  0.3617
  247MOL   H12535057   1.208   4.940   3.218  3.3125 -1.1847  2.5598
  247MOL   H12635058   1.251   4.944   3.056  1.4507 -0.5562 -1.0260
  247MOL   H12735059   1.491   4.925   3.080  0.2879  0.3057  0.1013
  247MOL   C12835060   1.426   4.741   3.154 -0.3228 -0.6301  0.2471
  247MOL   C12935061   1.535   4.671   3.235 -0.1636 -0.6770  0.7499
  247MOL   C13035062   1.499   4.527   3.252 -0.2355 -0.6482  0.6120
  247MOL   N13135063   1.467   4.420   3.265 -1.0541 -0.0923 -0.1783
  247MOL   H13235064   1.331   4.708   3.198 -1.0759 -0.9741 -1.5823
  247MOL   H13335065   1.419   4.702   3.052  2.4904 -2.9497  0.8661
  247MOL   H13435066   1.532   4.719   3.333 -0.2296 -0.7812  0.7990
  247MOL   C13535067   1.683   4.690   3.186  0.2406 -0.0635  0.6401
  247MOL   C13635068   1.784   4.623   3.271 -0.1066 -0.1171 -0.1175
  247MOL   C13735069   1.759   4.653   3.414  0.5368 -0.3125 -0.2140
  247MOL   N13835070   1.732   4.677   3.529 -0.3818  0.0674  0.4369
  247MOL   H13935071   1.700   4.651   3.085 -0.5744  1.5514 -0.1524
  247MOL   H14035072   1.708   4.795   3.168  1.9939 -0.8582 -1.8720
  247MOL   H14135073   1.883   4.658   3.241 -0.4773  0.6023 -0.5036
  247MOL   H14235074   1.790   4.515   3.259 -1.1696 -0.1591 -0.3083
  248MOL     C135075   2.188   3.682   1.290  0.0221  0.6677  0.2931
  248MOL     C235076   2.147   3.542   1.223 -0.0757  0.6859 -0.4598
  248MOL     C335077   2.272   3.485   1.180 -1.1365  0.6274 -0.0077
  248MOL     N435078   2.375   3.437   1.152 -0.1002  0.1900 -0.6234
  248MOL     H535079   2.253   3.732   1.218 -0.0605 -0.4455 -0.5721
  248MOL     H635080   2.234   3.662   1.387 -2.1121 -1.1430  0.9607
  248MOL     H735081   2.093   3.558   1.130  0.5788 -2.3815 -1.4135
  248MOL     H835082   2.099   3.743   1.305 -0.0675  0.6605 -0.2124
  248MOL     C935083   2.052   3.457   1.307  0.2864  0.4361 -0.3015
  248MOL    C1035084   2.046   3.309   1.276  0.5202 -0.7172 -0.3682
  248MOL    C1135085   2.026   3.271   1.137  0.5805  0.1036  0.3975
  248MOL    N1235086   2.009   3.240   1.024  0.3902 -0.0082 -0.2547
  248MOL    H1335087   2.089   3.471   1.408 -0.4915 -2.0229  0.3523
  248MOL    H1435088   1.954   3.506   1.308  0.1843  0.2628 -1.3503
  248MOL    H1535089   1.950   3.270   1.311  0.4818 -0.8652 -0.6406
  248MOL    C1635090   2.139   3.214   1.357  0.5066  0.1341  0.1658
  248MOL    C1735091   2.092   3.072   1.355  0.0471  0.2409  0.4432
  248MOL    C1835092   2.198   2.981   1.411  0.9185  0.5846  0.0098
  248MOL    N1935093   2.278   2.915   1.459 -0.8364 -0.3781 -0.1716
  248MOL    H2035094   2.244   3.221   1.329  0.7497  0.9340  1.2492
  248MOL    H2135095   2.132   3.249   1.460 -1.1959  2.2450 -0.6252
  248MOL    H2235096   2.082   3.054   1.248 -3.6799  4.6672 -0.0865
  248MOL    C2335097   1.958   3.035   1.419 -0.2602  0.0679  0.4307
  248MOL    C2435098   1.927   3.064   1.570 -0.3820  0.2217 -1.0299
  248MOL    C2535099   2.036   3.035   1.655 -0.2038 -0.0446 -0.4972
  248MOL    N2635100   2.121   3.015   1.731  0.2761  0.2823  0.2177
  248MOL    H2735101   1.878   3.080   1.360 -0.0738  1.0656  0.9301
  248MOL    H2835102   1.936   2.931   1.397  1.0243 -0.1964  0.3597
  248MOL    H2935103   1.852   2.992   1.604  1.5803 -0.4760  2.0355
  248MOL    C3035104   1.861   3.207   1.578  0.0459 -0.4074 -0.8390
  248MOL    C3135105   1.814   3.263   1.713 -0.7525  0.0852 -0.3092
  248MOL    C3235106   1.753   3.155   1.791 -0.5960 -0.1658 -1.1809
  248MOL    N3335107   1.703   3.070   1.845  0.4294  0.7180  0.1025
  248MOL    H3435108   1.921   3.279   1.523  0.4359 -0.4390 -0.4618
  248MOL    H3535109   1.766   3.204   1.525 -0.7855 -3.5778  0.7162
  248MOL    H3635110   1.727   3.328   1.698 -2.1267 -1.4063  0.9751
  248MOL    C3735111   1.922   3.342   1.793  0.2829  0.2361 -0.0850
  248MOL    C3835112   1.872   3.415   1.919 -0.3156 -0.6580  0.0002
  248MOL    C3935113   1.990   3.478   1.980  0.1329  1.2151 -0.2635
  248MOL    N4035114   2.087   3.528   2.027  0.0162  1.1021  0.2059
  248MOL    H4135115   1.996   3.269   1.826 -0.5298  0.7187  2.9372
  248MOL    H4235116   1.981   3.411   1.732  0.9923 -0.0726  0.2362
  248MOL    H4335117   1.842   3.336   1.988  0.5993 -0.0665  1.0980
  248MOL    C4435118   1.742   3.501   1.905 -0.6154 -0.0432 -0.0479
  248MOL    C4535119   1.752   3.623   1.813  0.8632  0.2748 -0.5214
  248MOL    C4635120   1.809   3.591   1.681  0.0807  0.0935  0.2882
  248MOL    N4735121   1.848   3.556   1.579 -0.2085  0.4692  0.2596
  248MOL    H4835122   1.656   3.441   1.874 -0.7045  1.0096 -1.8610
  248MOL    H4935123   1.712   3.533   2.006  2.0973 -1.4650  1.2565
  248MOL    H5035124   1.829   3.689   1.852  0.0012 -0.5098  2.6514
  248MOL    C5135125   1.624   3.716   1.810  0.1169 -0.0071 -0.1326
  248MOL    C5235126   1.627   3.814   1.688  0.5755  0.0344 -0.0085
  248MOL    C5335127   1.503   3.894   1.678  0.8725 -1.1126  0.0417
  248MOL    N5435128   1.404   3.960   1.673 -0.5607  0.3782 -0.2740
  248MOL    H5535129   1.538   3.649   1.804  0.0677  0.1847 -1.5226
  248MOL    H5635130   1.605   3.768   1.904 -3.3693 -0.1955 -0.6886
  248MOL    H5735131   1.622   3.757   1.595  2.6254 -0.4136  0.1361
  248MOL    C5835132   1.756   3.903   1.670 -0.7259  0.7432  0.3109
  248MOL    C5935133   1.773   3.972   1.534 -0.5833 -0.2161  0.0534
  248MOL    C6035134   1.891   4.057   1.550  0.0257 -0.0878 -0.6467
  248MOL    N6135135   1.977   4.131   1.565  0.3868 -0.0402  0.1260
  248MOL    H6235136   1.753   3.975   1.752  0.7335 -0.4960  1.4900
  248MOL    H6335137   1.844   3.842   1.689 -0.4289  1.0145 -0.1768
  248MOL    H6435138   1.691   4.039   1.511  0.2122  0.3471 -1.1746
  248MOL    C6535139   1.806   3.873   1.421  0.0292  0.3001 -0.3077
  248MOL    C6635140   1.845   3.943   1.288 -0.4705 -0.1419  0.2993
  248MOL    C6735141   1.871   3.840   1.176  0.5815  0.6077  0.2589
  248MOL    N6835142   1.891   3.764   1.093  0.3022  0.7184  0.3981
  248MOL    H6935143   1.882   3.800   1.449 -0.1115 -0.7601 -2.5917
  248MOL    H7035144   1.729   3.800   1.393  1.2355 -1.1053 -0.0458
  248MOL    H7135145   1.944   3.984   1.307 -0.4713  0.1476 -0.2966
  248MOL    C7235146   1.748   4.053   1.233 -0.5591 -0.4362 -0.4563
  248MOL    C7335147   1.802   4.135   1.117  0.0821  0.1522  0.2608
  248MOL    C7435148   1.771   4.074   0.993 -0.4243  0.0736  0.2909
  248MOL    N7535149   1.752   4.024   0.891  0.4060 -0.6293 -0.3464
  248MOL    H7635150   1.649   4.013   1.211 -0.1635 -1.1884 -0.8902
  248MOL    H7735151   1.721   4.119   1.316  1.9504 -0.7808  0.6777
  248MOL    H7835152   1.911   4.139   1.122  0.2038 -0.4277 -1.6255
  248MOL    C7935153   1.758   4.284   1.124  0.2129 -0.4615 -0.2405
  248MOL    C8035154   1.842   4.378   1.030  0.3195  0.9281  0.6096
  248MOL    C8135155   1.796   4.346   0.889 -0.0990 -0.5735  0.0649
  248MOL    N8235156   1.765   4.317   0.783  0.4556 -0.3357  0.6248
  248MOL    H8335157   1.655   4.294   1.089  0.0973 -2.6594 -0.6061
  248MOL    H8435158   1.761   4.326   1.224  2.7651 -1.6288  0.2056
  248MOL    H8535159   1.948   4.356   1.046  0.3632  1.2674  0.8007
  248MOL    C8635160   1.821   4.526   1.067 -0.2696  0.3767  0.2257
  248MOL    C8735161   1.873   4.635   0.975 -0.0814  0.0899  0.6442
  248MOL    C8835162   1.821   4.631   0.843  0.1551 -0.6033  0.2715
  248MOL    N8935163   1.773   4.632   0.737  0.0708  0.0901  0.0938
  248MOL    H9035164   1.713   4.543   1.065 -0.4673 -0.7664  1.0304
  248MOL    H9135165   1.848   4.553   1.169  1.9696  0.6703 -0.4149
  248MOL    H9235166   1.976   4.602   0.980 -0.1205 -0.1661 -0.1432
  248MOL    C9335167   1.855   4.773   1.040 -0.0058 -0.1707  0.5621
  248MOL    C9435168   1.910   4.894   0.962 -0.5786 -0.3551 -0.4108
  248MOL    C9535169   1.920   5.011   1.046 -0.2754 -0.6123  0.2493
  248MOL    N9635170   1.924   5.109   1.109  0.1454  0.6950  0.9938
  248MOL    H9735171   1.750   4.788   1.065  0.5836  1.1277  2.4208
  248MOL    H9835172   1.904   4.774   1.138 -2.0379 -0.8569  1.6271
  248MOL    H9935173   1.852   4.911   0.871 -0.6688 -1.6932 -0.6176
  248MOL   C10035174   2.054   4.874   0.910  0.8257  0.0428 -0.2785
  248MOL   C10135175   2.107   4.988   0.815  0.2999  0.1335  1.4031
  248MOL   C10235176   2.177   5.097   0.890 -0.1643 -0.4155 -0.1490
  248MOL   N10335177   2.235   5.175   0.957 -0.1987  0.2188  0.1368
  248MOL   H10435178   2.128   4.861   0.989  0.5627 -0.4525 -0.1126
  248MOL   H10535179   2.046   4.781   0.852 -0.6890  0.1936 -0.3273
  248MOL   H10635180   2.017   5.032   0.772 -0.1710 -1.5217  0.6279
  248MOL   C10735181   2.202   4.916   0.701 -0.0010  0.0305 -0.7570
  248MOL   C10835182   2.218   4.974   0.562  0.2037  0.0657  0.3666
  248MOL   C10935183   2.328   4.912   0.499  0.2999 -0.0144  0.2820
  248MOL   N11035184   2.419   4.862   0.445 -0.4328  0.0892 -0.2083
  248MOL   H11135185   2.304   4.930   0.737 -0.5016  1.5808  0.1360
  248MOL   H11235186   2.179   4.810   0.695 -2.1188  0.6130 -4.1849
  248MOL   H11335187   2.245   5.080   0.571 -0.0326  0.0773  0.9289
  248MOL   C11435188   2.096   4.956   0.478  0.1286  0.7284  0.2121
  248MOL   C11535189   2.100   5.030   0.347 -0.3268  0.0652  0.0218
  248MOL   C11635190   1.968   5.012   0.271  0.3549 -0.4048 -0.3309
  248MOL   N11735191   1.865   5.000   0.216  0.3468 -0.2779  0.2216
  248MOL   H11835192   2.062   4.852   0.473 -2.2053  1.5224 -1.8390
  248MOL   H11935193   2.006   4.989   0.529 -0.9790  0.6934 -1.6399
  248MOL   H12035194   2.175   4.986   0.281 -0.6267 -0.4060 -0.0073
  248MOL   C12135195   2.147   5.175   0.348  0.0856  0.0524 -0.1691
  248MOL   C12235196   2.067   5.271   0.432 -0.5501  0.1038 -0.0579
  248MOL   C12335197   2.151   5.379   0.484  0.5001 -0.2433 -0.0470
  248MOL   N12435198   2.212   5.468   0.526 -0.0226  0.0910  0.1796
  248MOL   H12535199   2.252   5.168   0.377 -0.6000 -1.7996  2.0263
  248MOL   H12635200   2.133   5.216   0.248 -3.4889  1.7837  0.9466
  248MOL   H12735201   2.021   5.224   0.519  0.7682 -1.7073 -0.3109
  248MOL   C12835202   1.952   5.343   0.348 -0.2107 -0.8803  0.0360
  248MOL   C12935203   1.851   5.418   0.430  0.1475 -0.6254 -0.0519
  248MOL   C13035204   1.769   5.491   0.335  0.8918 -0.5079  0.1130
  248MOL   N13135205   1.704   5.546   0.257 -0.0064  0.2352 -0.0291
  248MOL   H13235206   2.007   5.406   0.278 -2.3128  0.5157 -0.4088
  248MOL   H13335207   1.895   5.281   0.278  1.9431 -1.2597 -1.4399
  248MOL   H13435208   1.903   5.492   0.490  1.0904 -1.5934  0.3459
  248MOL   C13535209   1.757   5.327   0.527 -0.5496  0.0389  0.5104
  248MOL   C13635210   1.658   5.413   0.609  0.3236 -0.5106 -0.6084
  248MOL   C13735211   1.721   5.524   0.682 -0.1205 -0.4381  0.0647
  248MOL   N13835212   1.781   5.607   0.732  0.1135 -0.3355 -0.2817
  248MOL   H13935213   1.697   5.256   0.470 -1.4610  0.5170  0.8571
  248MOL   H14035214   1.816   5.276   0.603  0.0254  0.4232  0.3262
  248MOL   H14135215   1.614   5.343   0.680  3.3610 -1.1483  0.7246
  248MOL   H14235216   1.577   5.453   0.548 -0.7023  0.6943  1.5087
  249MOL     C135217   6.540   1.284   2.348 -0.0997  0.2966 -0.0740
  249MOL     C235218   6.422   1.328   2.257  0.3511 -0.2387  0.0833
  249MOL     C335219   6.337   1.215   2.229 -0.5660 -0.3527 -0.3080
  249MOL     N435220   6.266   1.119   2.214  0.3220  0.2033 -0.4532
  249MOL     H535221   6.610   1.365   2.372  0.8337 -1.3339  3.0339
  249MOL     H635222   6.601   1.201   2.312  0.4690  0.2789  0.8784
  249MOL     H735223   6.449   1.373   2.161 -2.1407  1.2329  0.0162
  249MOL     H835224   6.500   1.236   2.437  1.9018 -0.4006  0.4840
  249MOL     C935225   6.336   1.435   2.323  0.1325  0.2589 -0.9033
  249MOL    C1035226   6.205   1.466   2.249  0.5320  0.2145 -0.3033
  249MOL    C1135227   6.112   1.537   2.325  0.1247 -0.0047 -0.1335
  249MOL    N1235228   6.039   1.601   2.388 -0.3667  0.6497 -0.1073
  249MOL    H1335229   6.313   1.396   2.422 -1.3244 -1.1870 -1.7644
  249MOL    H1435230   6.404   1.520   2.326  1.5397 -0.8355 -1.2813
  249MOL    H1535231   6.149   1.375   2.224  0.6284  0.6312 -2.0927
  249MOL    C1635232   6.232   1.543   2.120 -0.2210  0.2482  0.5481
  249MOL    C1735233   6.146   1.512   1.998 -0.0082  0.4813  0.0399
  249MOL    C1835234   6.005   1.564   2.007 -0.0888  0.5433 -0.1519
  249MOL    N1935235   5.898   1.609   2.011 -0.1357  0.5601  0.0162
  249MOL    H2035236   6.248   1.650   2.137  0.4245  0.5143 -1.5168
  249MOL    H2135237   6.331   1.512   2.086 -0.5978 -0.9501  0.5119
  249MOL    H2235238   6.127   1.405   1.992  0.1377  0.3653  1.4415
  249MOL    C2335239   6.208   1.571   1.862  0.1341  0.3775  0.0461
  249MOL    C2435240   6.343   1.501   1.816  0.2126  0.0023 -0.2086
  249MOL    C2535241   6.345   1.364   1.858 -0.0929  0.0862  0.3868
  249MOL    N2635242   6.346   1.253   1.894  0.7192 -0.1280 -0.6401
  249MOL    H2735243   6.137   1.559   1.781 -1.6844  1.0312  1.5147
  249MOL    H2835244   6.227   1.678   1.872 -0.4216  0.2306  3.3842
  249MOL    H2935245   6.428   1.551   1.863 -0.1877  0.6351 -0.1505
  249MOL    C3035246   6.366   1.502   1.661 -0.8908 -0.1703 -0.4788
  249MOL    C3135247   6.427   1.637   1.606  0.2494  0.4866 -0.9517
  249MOL    C3235248   6.548   1.658   1.690 -0.4543 -0.3699  0.8019
  249MOL    N3335249   6.640   1.680   1.753 -0.0039  0.1741  0.0134
  249MOL    H3435250   6.439   1.422   1.648 -0.0251 -0.0236  3.1017
  249MOL    H3535251   6.291   1.482   1.585 -2.3611  1.8861  0.3843
  249MOL    H3635252   6.368   1.729   1.611  0.8697  0.8181  0.6957
  249MOL    C3735253   6.459   1.616   1.456  0.1406  0.9044 -0.2034
  249MOL    C3835254   6.494   1.748   1.375  0.3527 -0.6134 -0.1816
  249MOL    C3935255   6.567   1.734   1.252 -0.2308  0.1307  0.6724
  249MOL    N4035256   6.625   1.720   1.146 -0.7291  0.3236  0.2955
  249MOL    H4135257   6.539   1.544   1.440 -0.0390  0.2841  1.5405
  249MOL    H4235258   6.376   1.570   1.404 -0.0488  3.5114 -2.2912
  249MOL    H4335259   6.564   1.805   1.437 -3.4899 -0.6402  4.4368
  249MOL    C4435260   6.366   1.830   1.346 -0.4039  0.4856 -1.0466
  249MOL    C4535261   6.378   1.981   1.290 -0.1095  0.0886  0.5144
  249MOL    C4635262   6.473   2.062   1.371  0.2146  0.5926  0.5387
  249MOL    N4735263   6.545   2.119   1.438  0.4548  0.2162 -0.2860
  249MOL    H4835264   6.305   1.774   1.275  0.3346 -0.5168 -0.9000
  249MOL    H4935265   6.312   1.837   1.440  2.5579  2.0956  0.5904
  249MOL    H5035266   6.282   2.031   1.305 -0.3280 -0.5994  1.4958
  249MOL    C5135267   6.396   1.991   1.136  0.6989 -0.2267  0.0305
  249MOL    C5235268   6.269   1.941   1.048 -0.0042  0.6852 -0.3744
  249MOL    C5335269   6.174   2.049   1.032  0.0939 -0.2774 -0.2115
  249MOL    N5435270   6.104   2.142   1.013  0.0176  0.8190 -0.1600
  249MOL    H5535271   6.411   2.095   1.106  1.7921 -0.8024 -1.4958
  249MOL    H5635272   6.486   1.938   1.106 -2.2850 -3.5367 -3.4583
  249MOL    H5735273   6.205   1.871   1.101 -1.1767  1.8220 -0.2788
  249MOL    C5835274   6.316   1.875   0.914 -0.7391  0.0040 -0.0647
  249MOL    C5935275   6.201   1.820   0.821 -0.6960  0.6068 -0.1517
  249MOL    C6035276   6.076   1.790   0.901  0.9554  0.1633 -0.6959
  249MOL    N6135277   5.980   1.778   0.970 -1.2035  0.0403  0.2058
  249MOL    H6235278   6.376   1.952   0.864 -1.5007  0.4000 -0.3791
  249MOL    H6335279   6.383   1.793   0.941 -0.0623  0.9763  1.2498
  249MOL    H6435280   6.242   1.725   0.788 -2.2078 -0.3106  0.5598
  249MOL    C6535281   6.179   1.915   0.701 -0.0560 -0.0977  0.1911
  249MOL    C6635282   6.083   1.861   0.594  1.4620 -0.6605 -0.3809
  249MOL    C6735283   5.942   1.838   0.630  0.2861 -0.7652  0.7416
  249MOL    N6835284   5.833   1.823   0.663 -0.5381 -0.2357 -0.2672
  249MOL    H6935285   6.143   2.005   0.752  3.7421  0.3128  2.3271
  249MOL    H7035286   6.277   1.939   0.661  0.5483  1.2845  2.4343
  249MOL    H7135287   6.117   1.762   0.561  0.5795 -1.1006  0.0067
  249MOL    C7235288   6.097   1.949   0.466 -0.6297  0.5874  0.2260
  249MOL    C7335289   6.005   1.917   0.349 -0.1861  0.2116  0.4579
  249MOL    C7435290   5.871   1.982   0.379 -1.1267 -0.2888  0.7068
  249MOL    N7535291   5.768   2.025   0.396 -0.2588  1.3451 -0.4798
  249MOL    H7635292   6.073   2.051   0.495 -0.9927  0.8844 -1.1138
  249MOL    H7735293   6.204   1.945   0.444 -0.7640  0.2798 -0.3693
  249MOL    H7835294   6.000   1.808   0.349 -2.1520  0.2691 -1.7751
  249MOL    C7935295   6.062   1.967   0.210 -0.1002  0.1747 -0.3992
  249MOL    C8035296   5.961   1.983   0.090 -0.2945 -0.5938 -0.1582
  249MOL    C8135297   6.035   2.060   8.300 -0.0860 -0.4097  0.3621
  249MOL    N8235298   6.096   2.121   8.225 -0.4244 -0.6103  0.3090
  249MOL    H8335299   6.109   2.063   0.229  1.4378 -0.8222  1.0577
  249MOL    H8435300   6.146   1.899   0.195  0.3491  0.5064  0.5494
  249MOL    H8535301   5.889   2.055   0.129 -0.9625 -0.5259 -1.5055
  249MOL    C8635302   5.894   1.859   0.029 -0.7311 -0.7220 -0.0701
  249MOL    C8735303   5.799   1.869   8.224  0.0779  0.1394  0.9195
  249MOL    C8835304   5.867   1.906   8.097  0.1532 -0.2085 -0.7532
  249MOL    N8935305   5.913   1.927   7.991  0.2939 -0.7098 -0.0692
  249MOL    H9035306   5.972   1.786   0.006 -1.1922 -0.7470 -1.5715
  249MOL    H9135307   5.835   1.819   0.111  0.2539  0.8166  1.4358
  249MOL    H9235308   5.732   1.953   8.237  1.0385  1.3005 -1.3350
  249MOL    C9335309   5.719   1.732   8.196 -0.5654  1.2857  0.0478
  249MOL    C9435310   5.629   1.669   8.309  0.0286  0.0999 -0.0948
  249MOL    C9535311   5.523   1.767   0.029 -0.3770  0.4130  0.8349
  249MOL    N9635312   5.443   1.846   0.059  0.5931 -0.6120  0.0335
  249MOL    H9735313   5.656   1.745   8.108 -0.6463 -0.8851 -0.2479
  249MOL    H9835314   5.797   1.665   8.159 -0.6068  0.8600  0.7234
  249MOL    H9935315   5.678   1.653   0.092 -4.2004 -3.6228  1.6710
  249MOL   C10035316   5.565   1.533   8.265  0.5222  0.0364 -0.0612
  249MOL   C10135317   5.513   1.456   0.078  0.7304  0.1202  0.8281
  249MOL   C10235318   5.417   1.539   0.166 -0.5822  0.4502  0.2425
  249MOL   N10335319   5.345   1.594   0.232 -0.2216 -0.5044  0.4682
  249MOL   H10435320   5.498   1.553   8.181 -0.8242 -1.2165  0.6789
  249MOL   H10535321   5.645   1.478   8.216 -0.8600 -0.2227 -2.0597
  249MOL   H10635322   5.601   1.442   0.140  0.7256  1.4873  1.1415
  249MOL   C10735323   5.461   1.317   0.045  0.5774  0.2068  0.4761
  249MOL   C10835324   5.326   1.301   8.279 -0.0955 -0.7612  0.2577
  249MOL   C10935325   5.278   1.412   8.194  0.4531 -0.5785  0.0319
  249MOL   N11035326   5.238   1.495   8.123 -0.8852  0.3424  0.1778
  249MOL   H11135327   5.536   1.252   8.311  0.2971  0.5855 -0.5299
  249MOL   H11235328   5.430   1.264   0.135 -0.1928 -0.0514  0.0635
  249MOL   H11335329   5.249   1.301   0.043 -2.7852 -0.2707 -2.3492
  249MOL   C11435330   5.314   1.161   8.211  0.2185 -0.1892  0.0789
  249MOL   C11535331   5.319   1.042   8.310  0.7897 -0.9637 -0.6334
  249MOL   C11635332   5.244   1.073   0.129 -0.5000  0.0926  0.6826
  249MOL   N11735333   5.181   1.105   0.225  0.2169 -0.1670  0.2892
  249MOL   H11835334   5.214   1.169   8.168 -0.6135  0.8277  2.1423
  249MOL   H11935335   5.380   1.146   8.126 -0.5647 -0.2373 -0.5249
  249MOL   H12035336   5.423   1.027   0.028  0.9250 -1.3617 -1.2938
  249MOL   C12135337   5.279   0.920   8.224  0.0351 -0.0010 -0.1124
  249MOL   C12235338   5.260   0.789   8.306 -0.2347 -0.0029  0.2494
  249MOL   C12335339   5.204   0.688   8.211 -0.0719  0.1435  0.3299
  249MOL   N12435340   5.163   0.607   8.138 -0.8296 -0.0238  1.0890
  249MOL   H12535341   5.191   0.944   8.164 -0.8382 -0.9104  0.7758
  249MOL   H12635342   5.359   0.912   8.150  0.3570 -2.9506  0.4765
  249MOL   H12735343   5.176   0.812   0.058  0.4285 -0.9777  1.4844
  249MOL   C12835344   5.387   0.746   0.071  0.4767 -0.1141  0.1368
  249MOL   C12935345   5.398   0.595   0.113  0.2826  0.1113 -0.2507
  249MOL   C13035346   5.521   0.572   0.197  0.7143  0.1560  0.0864
  249MOL   N13135347   5.609   0.557   0.271 -0.6141  0.1675 -0.0884
  249MOL   H13235348   5.474   0.772   0.010  0.0806  1.8257  0.3512
  249MOL   H13335349   5.393   0.808   0.161  0.0113 -1.8365  1.3926
  249MOL   H13435350   5.422   0.543   0.020  1.0249 -0.2001  0.1151
  249MOL   C13535351   5.278   0.533   0.188 -0.5247 -0.8754 -0.3180
  249MOL   C13635352   5.287   0.390   0.224  0.1990 -0.2992  0.0507
  249MOL   C13735353   5.309   0.283   0.130 -0.4698  0.2483 -0.1700
  249MOL   N13835354   5.328   0.204   0.053 -0.2218  0.0415 -0.2028
  249MOL   H13935355   5.247   0.589   0.277  0.4572 -1.2333  0.2550
  249MOL   H14035356   5.204   0.534   0.107  1.1758  0.7933 -1.8856
  249MOL   H14135357   5.196   0.358   0.275  0.4909 -0.5895  0.3988
  249MOL   H14235358   5.371   0.387   0.294  0.0933  1.2693  0.2519
  250MOL     C135359   6.674   1.493   4.874 -0.5826 -0.7313 -0.0558
  250MOL     C235360   6.524   1.528   4.881  0.2964 -0.7720 -0.0560
  250MOL     C335361   6.492   1.588   4.751 -0.3056  0.2743 -0.8226
  250MOL     N435362   6.462   1.636   4.648 -0.0146 -0.5734 -0.4910
  250MOL     H535363   6.747   1.572   4.862  0.8714 -2.2622 -1.6722
  250MOL     H635364   6.693   1.425   4.791 -1.2711 -2.4521  1.1672
  250MOL     H735365   6.517   1.601   4.962 -0.9163 -1.6705  0.6546
  250MOL     H835366   6.715   1.442   4.961  0.0142  1.2495  0.8470
  250MOL     C935367   6.431   1.409   4.919  0.1773  0.1414  0.6883
  250MOL    C1035368   6.280   1.428   4.883 -0.9174 -0.4439 -0.6990
  250MOL    C1135369   6.228   1.559   4.925 -0.1647  0.0156  0.4649
  250MOL    N1235370   6.191   1.662   4.956  0.1728 -0.2753 -0.1010
  250MOL    H1335371   6.458   1.317   4.868  1.2692  1.4146 -1.1039
  250MOL    H1435372   6.440   1.378   5.023 -3.4061  0.4502  1.1645
  250MOL    H1535373   6.238   1.352   4.949  1.9133 -2.9121 -1.6252
  250MOL    C1635374   6.233   1.393   4.744  0.0364  0.3228  0.6197
  250MOL    C1735375   6.077   1.415   4.732  0.2895 -0.5212 -0.5775
  250MOL    C1835376   6.058   1.512   4.615 -0.3619  0.7460  0.1268
  250MOL    N1935377   6.039   1.580   4.525 -0.4890 -0.4662  0.0904
  250MOL    H2035378   6.280   1.466   4.678 -0.4408  0.6685  0.6617
  250MOL    H2135379   6.275   1.305   4.695  1.6061  1.2617  0.2470
  250MOL    H2235380   6.051   1.478   4.817  1.5623 -0.0419 -0.5261
  250MOL    C2335381   5.993   1.284   4.715 -0.6464 -1.1297 -0.0583
  250MOL    C2435382   5.848   1.298   4.772  0.2653 -0.5134 -0.4883
  250MOL    C2535383   5.772   1.406   4.709  0.1295 -0.0570 -0.0878
  250MOL    N2635384   5.713   1.493   4.661  0.4265  0.5345 -0.6158
  250MOL    H2735385   6.007   1.231   4.621  3.6680  1.4809 -1.0259
  250MOL    H2835386   6.056   1.226   4.782  0.0204 -0.9648 -0.5360
  250MOL    H2935387   5.855   1.339   4.872 -0.5093  1.2990 -1.1592
  250MOL    C3035388   5.768   1.170   4.772 -0.1491 -0.1331  0.2411
  250MOL    C3135389   5.829   1.063   4.866 -0.0356 -0.6375  0.5288
  250MOL    C3235390   5.791   1.090   5.004 -0.3824 -0.5569 -0.2597
  250MOL    N3335391   5.760   1.107   5.111  0.0491 -0.2584 -0.5373
  250MOL    H3435392   5.663   1.186   4.796  0.2345  2.5172  0.2357
  250MOL    H3535393   5.764   1.135   4.669  0.1892 -0.0930  0.2136
  250MOL    H3635394   5.938   1.067   4.866 -0.0203 -1.0064  0.3167
  250MOL    C3735395   5.795   0.919   4.833  0.0409  0.3396  0.3695
  250MOL    C3835396   5.854   0.865   4.697  0.3492  0.0921 -0.6475
  250MOL    C3935397   6.000   0.879   4.699 -0.0056  0.4773  0.7512
  250MOL    N4035398   6.114   0.890   4.694 -0.2769 -0.6471  0.0998
  250MOL    H4135399   5.816   0.846   4.911 -0.9174 -0.9587 -0.5750
  250MOL    H4235400   5.686   0.925   4.822  0.1011  1.2665  0.2595
  250MOL    H4335401   5.811   0.913   4.610 -0.8158 -0.2109 -0.2496
  250MOL    C4435402   5.838   0.713   4.681  0.5556 -0.1435  0.0922
  250MOL    C4535403   5.705   0.662   4.634 -0.2129 -1.1616  0.2793
  250MOL    C4635404   5.629   0.753   4.546  0.5723 -0.0229  0.2572
  250MOL    N4735405   5.570   0.822   4.481 -0.1871 -0.4902  0.2218
  250MOL    H4835406   5.913   0.668   4.616 -1.4395 -1.4678 -1.3499
  250MOL    H4935407   5.857   0.655   4.771  0.5494 -0.5849 -0.1881
  250MOL    H5035408   5.645   0.667   4.725  0.2927  0.9326  0.5218
  250MOL    C5135409   5.702   0.513   4.584 -0.1570 -0.0662  0.1951
  250MOL    C5235410   5.557   0.476   4.541 -0.0207  0.1403 -0.0897
  250MOL    C5335411   5.555   0.381   4.427  0.5760 -0.0864  0.4600
  250MOL    N5435412   5.552   0.301   4.342 -0.5991  0.1598  0.2321
  250MOL    H5535413   5.769   0.522   4.499 -0.5061 -0.4115 -0.1186
  250MOL    H5635414   5.746   0.437   4.649 -0.2494 -1.3908 -1.2573
  250MOL    H5735415   5.505   0.564   4.502  3.8477  1.8897 -1.5739
  250MOL    C5835416   5.467   0.441   4.662  0.0979  0.2640  0.0338
  250MOL    C5935417   5.475   0.291   4.707  0.1686 -0.5040 -0.4329
  250MOL    C6035418   5.554   0.283   4.834 -0.0147  0.3120  0.6970
  250MOL    N6135419   5.622   0.289   4.927 -0.4498  0.7070  0.0685
  250MOL    H6235420   5.480   0.515   4.741  0.3387 -0.4053  0.6214
  250MOL    H6335421   5.368   0.461   4.621 -0.0373 -1.2062 -0.3842
  250MOL    H6435422   5.549   0.254   4.635  1.9005  3.1644 -0.6472
  250MOL    C6535423   5.343   0.220   4.705  0.0974 -0.4143 -0.5676
  250MOL    C6635424   5.334   0.067   4.694 -0.1501 -0.0961  0.1202
  250MOL    C6735425   5.193   0.031   4.694  0.1141  0.3362  0.1013
  250MOL    N6835426   5.081   0.007   4.691  0.1282 -0.1519 -0.4401
  250MOL    H6935427   5.268   0.242   4.781  0.0474  1.7657 -1.2154
  250MOL    H7035428   5.291   0.258   4.617  0.2771  0.4022 -0.3198
  250MOL    H7135429   5.358   0.020   4.789  3.2106  3.6800  1.2895
  250MOL    C7235430   5.424   0.016   4.576 -0.1759  0.1345 -0.0726
  250MOL    C7335431   5.438   8.181   4.548 -0.6152 -0.5917 -0.2192
  250MOL    C7435432   5.320   8.113   4.494 -0.5111  0.1812 -0.0943
  250MOL    N7535433   5.232   8.051   4.450  0.1287 -0.7520  0.0720
  250MOL    H7635434   5.412   0.071   4.483  0.7885  1.8646  0.7877
  250MOL    H7735435   5.520   0.060   4.604 -0.4675 -0.1514  1.4279
  250MOL    H7835436   5.469   8.127   4.637  0.0536 -0.1530 -0.1828
  250MOL    C7935437   5.566   8.164   4.454  0.6198  0.5920 -0.3122
  250MOL    C8035438   5.614   8.019   4.434 -0.8638 -0.0413  0.3595
  250MOL    C8135439   5.682   7.968   4.554 -0.4171  0.0283  0.1646
  250MOL    N8235440   5.732   7.924   4.647  0.4250  0.3141  0.3112
  250MOL    H8335441   5.543   8.219   4.363  0.5741  0.3347 -0.4584
  250MOL    H8435442   5.658   8.207   4.494 -0.3737  0.9193  1.6671
  250MOL    H8535443   5.703   8.019   4.370 -0.5031 -2.1874  0.8023
  250MOL    C8635444   5.519   7.922   4.365 -0.1036 -0.2350  0.3372
  250MOL    C8735445   5.582   7.805   4.298  0.1512 -0.3575 -0.0235
  250MOL    C8835446   5.599   7.696   4.392 -0.2755  0.2055  0.2589
  250MOL    N8935447   5.618   7.618   4.477  0.3686 -0.4266 -0.1612
  250MOL    H9035448   5.446   7.876   4.432  2.0183 -4.4054 -0.0914
  250MOL    H9135449   5.455   7.976   4.295 -1.2017 -0.6823  0.9724
  250MOL    H9235450   5.680   7.837   4.262 -1.4519  1.3445 -3.1626
  250MOL    C9335451   5.504   7.749   4.181  0.0196  0.0337  0.3534
  250MOL    C9435452   5.580   7.652   4.088  0.3211  0.1667  0.9431
  250MOL    C9535453   5.472   7.581   4.012  0.3854  0.2153 -0.1626
  250MOL    N9635454   5.382   7.524   3.956 -0.2796 -0.0680  0.4039
  250MOL    H9735455   5.409   7.709   4.217  0.3472  0.5489  1.8683
  250MOL    H9835456   5.467   7.834   4.123  0.0105 -0.1650  0.0680
  250MOL    H9935457   5.624   7.571   4.146  0.6110 -0.0002  0.4933
  250MOL   C10035458   5.676   7.728   3.997  0.3867 -0.0163  0.1556
  250MOL   C10135459   5.813   7.656   3.985  0.3403  0.2340  0.7505
  250MOL   C10235460   5.796   7.559   3.876  0.2401 -0.1878 -0.0893
  250MOL   N10335461   5.777   7.478   3.798 -0.5631 -0.1076  0.2848
  250MOL   H10435462   5.632   7.752   3.900  1.7156 -1.0117 -0.7089
  250MOL   H10535463   5.692   7.828   4.037 -0.8401  0.3844 -0.3125
  250MOL   H10635464   5.832   7.591   4.070  1.3273 -1.5054 -0.7824
  250MOL   C10735465   5.925   7.757   3.960 -0.2144 -0.1443  0.1869
  250MOL   C10835466   6.072   7.711   3.983 -0.2110  0.1137 -0.2423
  250MOL   C10935467   6.112   7.614   3.881 -0.2393  0.0591  0.1352
  250MOL   N11035468   6.140   7.542   3.790  0.1191 -0.5526 -0.0333
  250MOL   H11135469   5.920   7.820   3.871 -0.1741  1.3177  1.1993
  250MOL   H11235470   5.912   7.831   4.039 -0.9750 -0.1382  0.0634
  250MOL   H11335471   6.069   7.649   4.072  1.2246  2.5889  1.5954
  250MOL   C11435472   6.176   7.828   3.996  0.0224 -0.1878 -0.0075
  250MOL   C11535473   6.169   7.910   4.132  0.9285  0.2810  0.3925
  250MOL   C11635474   6.225   7.839   4.247 -0.2500 -0.6105  1.0144
  250MOL   N11735475   6.266   7.791   4.346 -0.6748  0.0451 -0.1756
  250MOL   H11835476   6.274   7.783   3.982  0.7870  0.7318  2.1398
  250MOL   H11935477   6.159   7.903   3.918 -1.5351  2.2110  2.5099
  250MOL   H12035478   6.061   7.909   4.146  0.6722 -0.8171 -1.3889
  250MOL   C12135479   6.212   8.054   4.115  0.3653  0.7035  0.6478
  250MOL   C12235480   6.164   8.162   4.219 -0.4582  0.4890 -0.0933
  250MOL   C12335481   6.016   8.164   4.227  0.1859 -0.3003  0.0387
  250MOL   N12435482   5.901   8.172   4.232  0.2282  0.0688  0.3013
  250MOL   H12535483   6.318   8.065   4.091  1.1041 -1.3828  2.6902
  250MOL   H12635484   6.155   8.094   4.032  0.4948  1.1085  0.7565
  250MOL   H12735485   6.175   8.262   4.177  0.1385 -0.9213 -3.4387
  250MOL   C12835486   6.236   8.166   4.350  0.0402  0.3650 -0.0965
  250MOL   C12935487   6.216   8.293   4.430 -0.0305 -0.0072  1.1610
  250MOL   C13035488   6.206   0.100   4.348  0.2724  0.3190 -1.1231
  250MOL   N13135489   6.196   0.192   4.281  1.3426  0.7341 -0.0371
  250MOL   H13235490   6.202   8.074   4.399  0.0240 -0.0376 -0.8494
  250MOL   H13335491   6.344   8.148   4.352  0.2709  1.7789  0.4546
  250MOL   H13435492   6.312   8.308   4.479  1.0915  1.3670 -1.3643
  250MOL   C13535493   6.089   8.281   4.523  0.0355  0.9789  0.2008
  250MOL   C13635494   6.057   0.089   4.609  0.0290  0.3474  0.6375
  250MOL   C13735495   6.162   0.104   4.704 -1.2084  0.4508 -0.2650
  250MOL   N13835496   6.241   0.112   4.789 -0.1289 -0.2553  0.2011
  250MOL   H13935497   6.002   8.248   4.466  1.7158 -0.9834 -1.3209
  250MOL   H14035498   6.099   8.196   4.591  2.1824  0.2814 -0.9339
  250MOL   H14135499   5.959   0.076   4.654 -0.8308 -1.0395 -1.4959
  250MOL   H14235500   6.055   0.176   4.544  2.8231 -1.4497 -2.0242
  251MOL     C135501   0.947   0.025   0.948 -0.5927  0.2635  0.2562
  251MOL     C235502   0.871   0.006   0.814  0.1249 -0.0365  0.2619
  251MOL     C335503   0.932   8.236   0.716 -0.2184 -0.3513  0.2336
  251MOL     N435504   0.981   8.172   0.633 -0.6556 -0.5971 -0.4978
  251MOL     H535505   0.953   8.240   0.998 -0.6305  0.8662  1.4660
  251MOL     H635506   0.895   0.093   1.016  0.8308 -0.0455  1.6930
  251MOL     H735507   0.864   0.105   0.770  0.8456  0.2738  0.8350
  251MOL     H835508   1.049   0.062   0.940 -0.5410 -0.1836 -1.1179
  251MOL     C935509   0.720   8.271   0.837  0.4355 -0.7109 -0.2375
  251MOL    C1035510   0.631   0.067   0.911  0.3284 -0.8360 -0.6887
  251MOL    C1135511   0.639   0.202   0.847  0.3401  0.5769 -0.2491
  251MOL    N1235512   0.640   0.306   0.801  0.3929  0.5655 -0.1291
  251MOL    H1335513   0.674   8.277   0.738 -0.3095 -0.4502  0.1169
  251MOL    H1435514   0.714   8.171   0.879 -0.5314 -0.0548  1.2108
  251MOL    H1535515   0.669   0.083   1.012  0.7205  3.7435 -1.4468
  251MOL    C1635516   0.477   0.040   0.918  0.1616 -0.0522  0.6483
  251MOL    C1735517   0.436   8.227   1.008  0.1330  0.3679 -0.2168
  251MOL    C1835518   0.519   8.202   1.128 -0.8366  0.3091 -0.2658
  251MOL    N1935519   0.590   8.178   1.222  0.6495 -0.5097 -0.2817
  251MOL    H2035520   0.436   0.122   0.977 -0.0596  0.1452  0.2243
  251MOL    H2135521   0.429   0.033   0.820 -1.2303 -0.7744  1.3666
  251MOL    H2235522   0.449   8.132   0.955 -0.2440 -0.9341  1.9638
  251MOL    C2335523   0.291   8.236   1.061  0.8328  0.5747  0.1893
  251MOL    C2435524   0.174   8.251   0.966 -0.4675 -0.0555 -0.6563
  251MOL    C2535525   0.176   0.053   0.868  0.0115  0.5391 -0.6003
  251MOL    N2635526   0.179   0.141   0.796  0.5355 -0.3371 -0.5858
  251MOL    H2735527   0.270   8.147   1.120 -2.4726  0.5307 -0.9205
  251MOL    H2835528   0.289   0.009   1.128 -0.2009 -0.7081  1.8399
  251MOL    H2935529   0.086   8.260   1.030 -0.3337 -0.6477 -0.3924
  251MOL    C3035530   0.147   8.127   0.886 -0.3251  0.2596  0.1582
  251MOL    C3135531   0.002   8.116   0.835  0.4636  0.0766  0.4945
  251MOL    C3235532   8.282   8.201   0.719  0.2207 -0.5500 -0.2238
  251MOL    N3335533   8.253   8.268   0.627  0.4726 -0.2367  0.5340
  251MOL    H3435534   0.225   8.113   0.811 -1.7272  1.1483 -1.4901
  251MOL    H3535535   0.168   8.039   0.947  0.2995 -0.0484 -0.4927
  251MOL    H3635536   8.242   8.143   0.911 -2.6805 -1.3229 -1.8828
  251MOL    C3735537   8.276   7.973   0.788 -0.6772  0.9635  0.2984
  251MOL    C3835538   8.123   7.944   0.805  0.9103  0.3774 -0.0237
  251MOL    C3935539   8.078   7.818   0.737 -0.0053 -0.0040  0.6797
  251MOL    N4035540   8.045   7.719   0.685 -0.2035 -0.3360  0.1838
  251MOL    H4135541   8.303   7.958   0.683 -0.6754  0.2650  0.3967
  251MOL    H4235542   0.029   7.900   0.835 -0.5773  2.0541  1.8961
  251MOL    H4335543   8.073   8.024   0.751 -1.6324 -1.1368  0.0355
  251MOL    C4435544   8.080   7.939   0.948 -0.1960 -0.2808  1.2174
  251MOL    C4535545   8.162   7.842   1.028 -1.1354  0.1497  0.8873
  251MOL    C4635546   8.276   7.902   1.097  0.2443 -0.2921 -0.5361
  251MOL    N4735547   0.055   7.943   1.156  0.0101 -0.9383 -0.6037
  251MOL    H4835548   8.082   8.040   0.987  0.5792  0.2354 -0.1237
  251MOL    H4935549   7.976   7.908   0.943 -0.8098  1.6082  1.9056
  251MOL    H5035550   8.199   7.771   0.954  0.4271 -1.4616  3.1706
  251MOL    C5135551   8.070   7.766   1.122 -0.0505  0.3400 -0.3758
  251MOL    C5235552   8.118   7.624   1.146 -0.3183  0.2650  0.4330
  251MOL    C5335553   8.262   7.607   1.183 -0.4768 -0.2929  0.3193
  251MOL    N5435554   0.059   7.596   1.208 -0.1058  0.2845  0.2692
  251MOL    H5535555   8.058   7.809   1.221 -3.6991 -0.7711 -0.2650
  251MOL    H5635556   7.968   7.757   1.087  0.1750 -2.2857 -0.4956
  251MOL    H5735557   8.113   7.571   1.051  1.1089 -1.1663  1.1499
  251MOL    C5835558   8.037   7.547   1.252 -0.5880  1.3258  0.3296
  251MOL    C5935559   8.042   7.395   1.243  0.4671  0.1341 -0.1004
  251MOL    C6035560   8.175   7.334   1.268  0.4694 -0.4364  0.3256
  251MOL    N6135561   8.276   7.279   1.291  0.2561 -0.7738 -0.2070
  251MOL    H6235562   8.066   7.578   1.352  1.6514 -2.6257  0.9903
  251MOL    H6335563   7.934   7.584   1.242 -0.8228  0.0812 -2.2867
  251MOL    H6435564   8.033   7.363   1.139 -0.6697 -0.6485  0.2353
  251MOL    C6535565   7.923   7.332   1.320  0.4774  0.1644 -0.0860
  251MOL    C6635566   7.942   7.317   1.474 -0.0566  0.1320 -0.8312
  251MOL    C6735567   7.968   7.435   1.552  0.2823 -0.2667 -0.5070
  251MOL    N6835568   7.992   7.527   1.619  0.2559 -0.3431  0.7560
  251MOL    H6935569   7.828   7.378   1.293  1.9607  0.7877 -4.5884
  251MOL    H7035570   7.903   7.234   1.277  1.6563  0.1211 -0.5467
  251MOL    H7135571   8.026   7.248   1.485 -0.0241  0.3203  0.1170
  251MOL    C7235572   7.832   7.241   1.536 -0.4918  0.2599 -0.4869
  251MOL    C7335573   7.838   7.089   1.511  0.7067  0.0786  0.1297
  251MOL    C7435574   7.966   7.032   1.552  0.7494 -0.3512  0.2021
  251MOL    N7535575   8.066   6.985   1.582  0.5597 -0.2403  0.3142
  251MOL    H7635576   7.826   7.262   1.643  1.2683  1.2809 -0.5744
  251MOL    H7735577   7.733   7.272   1.503 -0.0742  0.8680 -1.1796
  251MOL    H7835578   7.833   7.055   1.408 -0.3604 -1.5332  0.6877
  251MOL    C7935579   7.730   7.008   1.587  0.3487  0.5177 -0.5501
  251MOL    C8035580   7.586   7.023   1.526 -0.5095  0.4471 -0.1223
  251MOL    C8135581   7.574   6.912   1.425 -0.8491  0.1138 -0.2163
  251MOL    N8235582   7.571   6.829   1.349 -0.1756  0.6528  0.1065
  251MOL    H8335583   7.766   6.906   1.597  0.2219  0.1694 -3.3138
  251MOL    H8435584   7.731   7.043   1.690  2.6476 -2.0594  0.3419
  251MOL    H8535585   7.582   7.107   1.457  1.9059  0.5510 -0.1982
  251MOL    C8635586   7.482   7.023   1.645  0.1814  0.0068  0.7848
  251MOL    C8735587   7.329   7.061   1.599  0.5185 -0.3362 -0.1314
  251MOL    C8835588   7.332   7.197   1.545 -0.1877  0.0421 -0.0340
  251MOL    N8935589   7.338   7.305   1.501  0.8934  0.3671  0.3033
  251MOL    H9035590   7.488   6.918   1.676 -3.5887  0.3180  2.7784
  251MOL    H9135591   7.518   7.073   1.735  0.9119 -0.8590  0.9849
  251MOL    H9235592   7.274   7.058   1.692 -1.0632 -0.8112 -1.0681
  251MOL    C9335593   7.266   6.976   1.487 -0.1278 -0.0058  0.2330
  251MOL    C9435594   7.246   6.833   1.538 -0.1436  0.3916  0.0535
  251MOL    C9535595   7.205   6.821   1.673 -0.4315  0.2095 -0.0155
  251MOL    N9635596   7.176   6.814   1.784 -0.6963 -0.3982  0.0525
  251MOL    H9735597   7.166   7.015   1.468  0.3923  1.0299 -0.4178
  251MOL    H9835598   7.314   6.987   1.390  0.0248 -1.8002  0.0892
  251MOL    H9935599   7.341   6.780   1.549  0.6946  1.7928 -0.3424
  251MOL   C10035600   7.168   6.737   1.441  0.0804  0.1634  0.7096
  251MOL   C10135601   7.130   6.584   1.482  0.1745 -0.6108 -0.1918
  251MOL   C10235602   7.245   6.508   1.530 -0.2084  0.0244 -0.3716
  251MOL   N10335603   7.336   6.443   1.562  0.3535  0.5366  0.0724
  251MOL   H10435604   7.077   6.788   1.409  1.6627  2.1431 -0.7715
  251MOL   H10535605   7.230   6.739   1.351 -2.2564 -1.4400 -0.9685
  251MOL   H10635606   7.104   6.533   1.390  0.5897 -3.2825  1.1179
  251MOL   C10735607   7.018   6.580   1.584  0.4861  0.2882  0.6691
  251MOL   C10835608   6.882   6.637   1.549 -0.2360 -0.0331  0.5524
  251MOL   C10935609   6.820   6.559   1.442  0.0952 -0.0253 -0.2236
  251MOL   N11035610   6.768   6.494   1.363  0.5060 -0.0655  0.0693
  251MOL   H11135611   6.993   6.476   1.602  1.0339 -0.1525 -0.9890
  251MOL   H11235612   7.047   6.616   1.683 -2.2042  1.2071  1.1630
  251MOL   H11335613   6.888   6.737   1.506 -2.0838  0.1831  0.7294
  251MOL   C11435614   6.791   6.644   1.666  0.6201  0.2622 -0.1155
  251MOL   C11535615   6.648   6.691   1.643 -0.3336  0.3870 -0.2207
  251MOL   C11635616   6.567   6.659   1.767 -0.3009 -0.8356  0.0229
  251MOL   N11735617   6.502   6.638   1.862  0.3107  0.1560 -0.1200
  251MOL   H11835618   6.798   6.545   1.710  1.1854  1.1136  1.7355
  251MOL   H11935619   6.841   6.709   1.738 -0.4481  0.9298  0.0321
  251MOL   H12035620   6.606   6.625   1.566 -0.9679  0.1987  0.2788
  251MOL   C12135621   6.631   6.828   1.569 -0.8085  0.2369 -0.2009
  251MOL   C12235622   6.488   6.877   1.569  0.0940  0.1009 -0.6808
  251MOL   C12335623   6.498   7.006   1.498  0.2067 -0.7068 -0.0167
  251MOL   N12435624   6.503   7.110   1.447 -0.0401 -0.5186  0.3601
  251MOL   H12535625   6.695   6.895   1.626  0.5162 -1.2976  0.1280
  251MOL   H12635626   6.666   6.823   1.466  1.0061  0.1774  0.3963
  251MOL   H12735627   6.457   6.903   1.670  2.2886 -0.4465  0.1484
  251MOL   C12835628   6.375   6.783   1.512 -0.1225 -0.0788 -0.0193
  251MOL   C12935629   6.238   6.796   1.574 -0.1853 -0.0929 -0.0810
  251MOL   C13035630   6.197   6.931   1.612 -0.0420 -0.0966  0.0236
  251MOL   N13135631   6.157   7.031   1.649  0.0783  0.7443  0.0170
  251MOL   H13235632   6.379   6.788   1.403  1.2487 -1.2584 -0.0389
  251MOL   H13335633   6.396   6.677   1.524  1.3391 -0.0639 -2.1518
  251MOL   H13435634   6.247   6.747   1.671 -0.9564 -0.5453 -0.2341
  251MOL   C13535635   6.137   6.719   1.489  0.1749  0.1066 -0.0348
  251MOL   C13635636   6.076   6.799   1.372  0.2625  0.1345  0.2041
  251MOL   C13735637   6.177   6.830   1.271  0.1505  0.7748  0.0012
  251MOL   N13835638   6.251   6.852   1.190 -0.3307  0.1654 -0.6955
  251MOL   H13935639   6.167   6.616   1.473  2.0376  0.3275  1.8149
  251MOL   H14035640   6.061   6.707   1.566 -0.8820 -2.7419 -1.4325
  251MOL   H14135641   6.025   6.890   1.405  0.2932 -0.2282  1.2801
  251MOL   H14235642   5.994   6.743   1.327 -1.7556  3.1300 -0.0106
  252MOL     C135643   0.099   3.852   6.113  0.5018 -0.1666 -0.2648
  252MOL     C235644   0.229   3.924   6.074  0.9668  0.2362 -0.0590
  252MOL     C335645   0.228   4.060   6.126 -0.5086  0.3513  0.2676
  252MOL     N435646   0.229   4.168   6.167 -0.4318 -0.3947  0.5891
  252MOL     H535647   0.100   3.830   6.220 -0.4728  1.5600  0.1220
  252MOL     H635648   0.080   3.757   6.065  0.6252  0.0149 -0.6711
  252MOL     H735649   0.237   3.941   5.967 -0.6899 -1.7689 -0.5252
  252MOL     H835650   0.015   3.915   6.084 -0.8584 -2.2589 -0.9505
  252MOL     C935651   0.357   3.844   6.107  0.3034  0.3116  0.4389
  252MOL    C1035652   0.476   3.884   6.016  0.2807 -0.0361  0.1802
  252MOL    C1135653   0.499   4.029   5.982  0.4494  0.3847  0.3591
  252MOL    N1235654   0.514   4.138   5.955  0.0649  0.1570  0.1362
  252MOL    H1335655   0.379   3.855   6.213  1.4731 -0.8649  0.3319
  252MOL    H1435656   0.338   3.738   6.093 -1.1777  0.6502 -0.2614
  252MOL    H1535657   0.449   3.846   5.917 -1.8077  0.2434  0.6163
  252MOL    C1635658   0.604   3.808   6.049 -0.2447  0.1474 -0.2091
  252MOL    C1735659   0.726   3.837   5.959 -0.4716  0.0475 -0.4559
  252MOL    C1835660   0.857   3.805   6.020  0.7044 -0.4334 -0.4189
  252MOL    N1935661   0.957   3.779   6.069 -1.2992 -0.0165 -0.4810
  252MOL    H2035662   0.631   3.837   6.151 -0.1247  1.8771 -0.7293
  252MOL    H2135663   0.587   3.701   6.058  0.5433 -0.0297 -0.7980
  252MOL    H2235664   0.736   3.942   5.931 -0.7986  0.5865  1.3850
  252MOL    C2335665   0.718   3.763   5.826  0.2939  0.3691  0.6512
  252MOL    C2435666   0.813   3.829   5.717  0.1319 -0.8507  0.3176
  252MOL    C2535667   0.862   3.714   5.639 -0.1573  0.1564 -0.0754
  252MOL    N2635668   0.899   3.624   5.572  0.1063 -0.1394  0.2577
  252MOL    H2735669   0.752   3.662   5.849  0.6203 -0.2046 -2.1530
  252MOL    H2835670   0.621   3.751   5.778 -0.0226 -0.9007  1.5959
  252MOL    H2935671   0.902   3.866   5.768  0.1412  0.6254 -0.7414
  252MOL    C3035672   0.752   3.927   5.610  0.2708 -0.0409 -0.1410
  252MOL    C3135673   0.711   4.058   5.675  0.4341  0.3042  0.2317
  252MOL    C3235674   0.827   4.111   5.747 -0.5087 -0.0633  0.2734
  252MOL    N3335675   0.918   4.150   5.805 -0.4792  0.1092 -0.0580
  252MOL    H3435676   0.823   3.943   5.529  2.0121  1.4093  1.6406
  252MOL    H3535677   0.671   3.876   5.558  0.9299 -0.2114 -1.0015
  252MOL    H3635678   0.640   4.049   5.758 -0.9288  2.2921 -0.6665
  252MOL    C3735679   0.649   4.154   5.569 -0.1009 -0.3551 -0.1044
  252MOL    C3835680   0.588   4.284   5.625  1.0878 -0.0563  0.3425
  252MOL    C3935681   0.686   4.384   5.682 -0.3293 -0.1385  0.2677
  252MOL    N4035682   0.753   4.468   5.720  0.3469  0.0505  0.7221
  252MOL    H4135683   0.720   4.176   5.488 -0.2250 -0.9507 -0.3762
  252MOL    H4235684   0.574   4.098   5.514 -0.4589  1.2057 -1.2381
  252MOL    H4335685   0.531   4.258   5.714  1.2812  1.3741  0.9050
  252MOL    C4435686   0.494   4.355   5.522  0.1068 -0.1259 -0.1514
  252MOL    C4535687   0.429   4.485   5.571 -0.1099 -0.3354 -0.5769
  252MOL    C4635688   0.355   4.540   5.459  0.1849 -0.2599 -0.3597
  252MOL    N4735689   0.301   4.578   5.365 -0.3688 -0.6005 -0.0934
  252MOL    H4835690   0.550   4.381   5.433  0.6823  2.7667  0.9949
  252MOL    H4935691   0.414   4.288   5.491 -2.1010  2.4028 -0.0747
  252MOL    H5035692   0.504   4.561   5.592 -0.2328 -0.4403  0.2829
  252MOL    C5135693   0.336   4.467   5.692 -0.6577 -0.4525 -0.3390
  252MOL    C5235694   0.384   4.526   5.828 -0.2194 -1.4598  0.1535
  252MOL    C5335695   0.392   4.675   5.828 -0.7606  0.2167  0.2078
  252MOL    N5435696   0.395   4.791   5.831  0.5343  0.0799  0.2793
  252MOL    H5535697   0.242   4.518   5.671  0.2695  1.6628  0.4519
  252MOL    H5635698   0.304   4.364   5.703  0.8036 -1.1418 -2.2463
  252MOL    H5735699   0.488   4.496   5.836  0.9465  1.3323 -2.9708
  252MOL    C5835700   0.298   4.471   5.935 -0.1687  0.1530 -0.1491
  252MOL    C5935701   0.342   4.518   6.074  0.5300 -0.0665  0.5560
  252MOL    C6035702   0.220   4.508   6.171  0.1722  0.3071  0.1083
  252MOL    N6135703   0.135   4.492   6.244  0.0240  0.5607 -0.0923
  252MOL    H6235704   0.197   4.502   5.910 -0.0970 -0.8968 -1.8072
  252MOL    H6335705   0.303   4.362   5.933 -2.1105  0.0033  1.6118
  252MOL    H6435706   0.370   4.623   6.076  1.4528 -0.2091 -2.1327
  252MOL    C6535707   0.462   4.443   6.124  0.1564 -0.3928  0.3817
  252MOL    C6635708   0.528   4.515   6.245  0.3755 -0.4639 -0.6508
  252MOL    C6735709   0.439   4.532   6.359  0.0429 -0.2176  0.8236
  252MOL    N6835710   0.369   4.539   6.445 -0.2396 -0.0252 -0.0405
  252MOL    H6935711   0.424   4.344   6.149 -0.9153 -0.4186 -1.2205
  252MOL    H7035712   0.536   4.425   6.046 -1.0363 -2.8744 -0.2192
  252MOL    H7135713   0.555   4.615   6.214  1.3168 -0.0307  1.5297
  252MOL    C7235714   0.652   4.435   6.289 -0.5763  0.0392  0.2893
  252MOL    C7335715   0.760   4.490   6.379  0.2757  0.7270 -0.2197
  252MOL    C7435716   0.816   4.619   6.329  0.0374 -0.2394 -0.3037
  252MOL    N7535717   0.859   4.718   6.293  0.0152 -0.2104  0.5522
  252MOL    H7635718   0.635   4.340   6.339 -1.5366  0.0866  0.0567
  252MOL    H7735719   0.707   4.398   6.203 -0.6320  0.2124  0.1799
  252MOL    H7835720   0.837   4.414   6.371 -1.0372 -0.6242 -0.1320
  252MOL    C7935721   0.722   4.494   6.527 -0.5716  0.0215 -0.4305
  252MOL    C8035722   0.833   4.525   6.630  0.5324  0.5454 -0.4030
  252MOL    C8135723   0.963   4.506   6.566 -0.4211 -0.7116  0.3239
  252MOL    N8235724   1.070   4.495   6.517 -0.0440  0.5882  0.1757
  252MOL    H8335725   0.643   4.569   6.528 -1.9994 -1.4140 -1.3726
  252MOL    H8435726   0.674   4.397   6.543 -1.9369  0.0331 -3.9606
  252MOL    H8535727   0.820   4.452   6.709 -0.4051  1.2035  0.0583
  252MOL    C8635728   0.828   4.658   6.713 -0.2807  0.4141 -0.1237
  252MOL    C8735729   0.860   4.782   6.629 -0.2056  0.3786 -0.5863
  252MOL    C8835730   0.767   4.893   6.662  0.6132 -0.8169 -0.5514
  252MOL    N8935731   0.687   4.973   6.687 -0.3712 -0.0906  0.4560
  252MOL    H9035732   0.727   4.666   6.753 -0.4742  1.7222 -0.8549
  252MOL    H9135733   0.885   4.662   6.806 -1.8998  0.3830  0.8966
  252MOL    H9235734   0.839   4.760   6.525  0.9844 -3.9590 -0.0034
  252MOL    C9335735   1.005   4.829   6.627  0.3502  0.6575 -1.1608
  252MOL    C9435736   1.051   4.898   6.495  0.7311  0.2691  0.7571
  252MOL    C9535737   0.957   4.999   6.453 -0.2343 -0.0251  0.2083
  252MOL    N9635738   0.875   5.079   6.420 -0.1176  0.7232 -0.3537
  252MOL    H9735739   1.022   4.891   6.715 -0.7134 -0.0191 -0.4705
  252MOL    H9835740   1.075   4.752   6.659 -0.3356  0.9575  1.1537
  252MOL    H9935741   1.057   4.829   6.411  1.3257 -0.9537  1.7773
  252MOL   C10035742   1.195   4.940   6.494 -0.9575  0.0798  0.6103
  252MOL   C10135743   1.296   4.830   6.459 -0.3949 -0.2871  0.0177
  252MOL   C10235744   1.272   4.761   6.331 -0.3578  0.1582 -0.2049
  252MOL   N10335745   1.251   4.717   6.226 -0.1051 -0.3904  1.0304
  252MOL   H10435746   1.202   5.020   6.420  0.9939  0.8577  1.6101
  252MOL   H10535747   1.223   4.989   6.587 -0.3393  0.6090  0.1449
  252MOL   H10635748   1.282   4.738   6.517  0.5390 -1.0956 -1.0241
  252MOL   C10735749   1.442   4.868   6.480 -0.0266  0.0226 -0.5740
  252MOL   C10835750   1.482   4.908   6.620 -0.2421  0.3893 -0.8880
  252MOL   C10935751   1.451   4.799   6.718 -0.8809  0.0848  0.4059
  252MOL   N11035752   1.421   4.721   6.802 -0.4563 -0.1128  0.1074
  252MOL   H11135753   1.502   4.779   6.462 -1.0460 -1.2475  2.0317
  252MOL   H11235754   1.459   4.954   6.416 -0.4659  1.3788  1.1047
  252MOL   H11335755   1.414   4.981   6.664 -0.9928  1.0942 -3.1083
  252MOL   C11435756   1.626   4.962   6.634 -0.0870 -0.0956 -0.0701
  252MOL   C11535757   1.675   5.025   6.761  0.6918  0.8618  0.2876
  252MOL   C11635758   1.675   4.930   6.875  0.3308 -0.2479 -0.7350
  252MOL   N11735759   1.675   4.851   6.961 -0.4314 -0.4054  0.2974
  252MOL   H11835760   1.690   4.880   6.601  1.3696  1.3464 -0.8954
  252MOL   H11935761   1.642   5.039   6.558  0.4996  0.5390  0.6854
  252MOL   H12035762   1.608   5.109   6.780  1.0223  1.5836 -1.5742
  252MOL   C12135763   1.810   5.091   6.747  0.5436 -1.0570 -0.3126
  252MOL   C12235764   1.866   5.180   6.861 -0.2482  0.3632  0.4724
  252MOL   C12335765   1.880   5.103   6.984  0.1660  0.9814 -0.1778
  252MOL   N12435766   1.891   5.039   7.080 -0.2144  0.3531  0.2095
  252MOL   H12535767   1.889   5.017   6.734 -0.2773 -1.5913 -2.5826
  252MOL   H12635768   1.797   5.159   6.662 -0.6279  0.0329  0.7200
  252MOL   H12735769   1.797   5.260   6.889  1.7249  2.4481 -0.3877
  252MOL   C12835770   2.004   5.249   6.824  0.2979 -0.0862 -0.0497
  252MOL   C12935771   2.122   5.149   6.812 -0.4262 -0.4027  0.1900
  252MOL   C13035772   2.223   5.202   6.719 -0.3844  0.4650 -0.2653
  252MOL   N13135773   2.311   5.245   6.657 -0.0907 -0.4641 -0.7667
  252MOL   H13235774   1.990   5.297   6.727 -0.8710 -0.3392 -0.0168
  252MOL   H13335775   2.032   5.333   6.887 -1.9247  0.5102  0.1994
  252MOL   H13435776   2.094   5.054   6.768 -0.3557  0.5950 -2.0547
  252MOL   C13535777   2.198   5.117   6.951 -0.1802  0.5933 -0.3014
  252MOL   C13635778   2.313   5.020   6.927 -0.0097  1.0731  0.1294
  252MOL   C13735779   2.392   4.980   7.050 -0.0264 -0.4516  0.0414
  252MOL   N13835780   2.454   4.950   7.143 -0.4184 -0.1830 -0.0637
  252MOL   H13935781   2.239   5.212   6.987 -0.0692  0.7178 -0.7441
  252MOL   H14035782   2.120   5.069   7.009 -0.8644 -0.1327 -1.8039
  252MOL   H14135783   2.391   5.072   6.870 -0.3790  1.2653 -0.2028
  252MOL   H14235784   2.284   4.934   6.867 -1.5310 -0.0217  2.3924
  253MOL     C135785   3.359   5.963   1.399 -0.4894 -0.0081 -0.0303
  253MOL     C235786   3.244   5.873   1.360  0.4847  0.8114 -0.2529
  253MOL     C335787   3.114   5.941   1.376 -0.0469  1.2032 -0.2339
  253MOL     N435788   3.013   5.994   1.387 -0.2999 -0.2193 -0.1573
  253MOL     H535789   3.372   6.049   1.334  1.5982  0.8643  1.5043
  253MOL     H635790   3.438   5.892   1.374  0.3792  2.0681 -3.5490
  253MOL     H735791   3.240   5.784   1.423 -1.7462 -0.1236 -1.6569
  253MOL     H835792   3.363   5.988   1.505  2.5333  1.0590 -0.3583
  253MOL     C935793   3.275   5.830   1.214 -1.2018 -0.1052  0.4242
  253MOL    C1035794   3.161   5.760   1.136 -0.2947 -0.5661  0.5232
  253MOL    C1135795   3.191   5.741   0.995 -0.2355 -0.2157  0.8094
  253MOL    N1235796   3.215   5.726   0.883 -0.1517  0.5236  0.1244
  253MOL    H1335797   3.309   5.914   1.154  0.8558 -0.2844  1.2990
  253MOL    H1435798   3.365   5.768   1.210  0.1438  1.8517 -0.2764
  253MOL    H1535799   3.073   5.824   1.128  1.2752  1.5706 -0.2878
  253MOL    C1635800   3.119   5.633   1.208  0.6120  0.3395 -0.1792
  253MOL    C1735801   3.007   5.553   1.145 -0.4321 -0.2664 -0.1124
  253MOL    C1835802   3.010   5.420   1.200 -0.1145  0.3026 -0.0128
  253MOL    N1935803   3.012   5.311   1.240  0.0884 -0.6832 -0.2910
  253MOL    H2035804   3.208   5.569   1.204  0.2683 -0.0604 -2.2745
  253MOL    H2135805   3.091   5.660   1.309  2.3293  0.5893  0.2547
  253MOL    H2235806   3.025   5.550   1.038  0.8911 -0.9828  0.1254
  253MOL    C2335807   2.875   5.629   1.183  0.0686  0.0139  0.5984
  253MOL    C2435808   2.788   5.577   1.308  0.1672  0.6870  0.6781
  253MOL    C2535809   2.855   5.588   1.437 -0.2108 -0.1160 -0.0732
  253MOL    N2635810   2.907   5.601   1.544  0.0048  0.1100  0.5261
  253MOL    H2735811   2.882   5.738   1.178 -0.7979  0.0553  0.1442
  253MOL    H2835812   2.800   5.611   1.105  0.2986 -1.2501  0.6509
  253MOL    H2935813   2.762   5.471   1.298  0.7803  0.6487 -0.7725
  253MOL    C3035814   2.655   5.656   1.315  0.3090 -0.4786 -0.4348
  253MOL    C3135815   2.552   5.608   1.417  0.0932  0.0162  0.0333
  253MOL    C3235816   2.458   5.716   1.465 -0.4123 -0.6877  0.9165
  253MOL    N3335817   2.388   5.796   1.494 -0.3427  0.1278  0.3290
  253MOL    H3435818   2.680   5.756   1.347 -1.3286 -0.3433  0.4989
  253MOL    H3535819   2.606   5.672   1.219  1.8331  0.1998 -1.1027
  253MOL    H3635820   2.612   5.576   1.502  1.3757  4.0555  0.7878
  253MOL    C3735821   2.470   5.485   1.370 -0.4996 -0.6044 -0.3158
  253MOL    C3835822   2.362   5.437   1.472 -0.2184  0.6470 -0.7340
  253MOL    C3935823   2.254   5.350   1.414  0.1690 -0.8150 -0.3695
  253MOL    N4035824   2.178   5.280   1.369  0.1098  0.6760 -0.6492
  253MOL    H4135825   2.426   5.515   1.275  3.4916  0.6138 -1.8845
  253MOL    H4235826   2.541   5.409   1.340  1.2968  1.6145 -1.8670
  253MOL    H4335827   2.316   5.529   1.509 -1.0612 -0.1090  0.1173
  253MOL    C4435828   2.410   5.370   1.605  0.3601  0.1628  0.1562
  253MOL    C4535829   2.312   5.378   1.726 -0.2341 -0.0236 -0.1059
  253MOL    C4635830   2.291   5.242   1.779 -0.2661  0.3404  0.2285
  253MOL    N4735831   2.272   5.133   1.822  0.0678 -0.2059 -0.1718
  253MOL    H4835832   2.445   5.267   1.594  0.4245  0.3807 -2.1063
  253MOL    H4935833   2.495   5.428   1.640  0.0519  1.4165 -1.1411
  253MOL    H5035834   2.210   5.403   1.698  0.6941  4.6986  0.3239
  253MOL    C5135835   2.354   5.485   1.834  0.7293 -0.7985 -0.5922
  253MOL    C5235836   2.243   5.552   1.930 -0.1339 -0.0822  0.2104
  253MOL    C5335837   2.163   5.453   1.996 -0.7540 -0.4125  0.0829
  253MOL    N5435838   2.100   5.370   2.045  0.0946 -0.2621 -0.8033
  253MOL    H5535839   2.431   5.431   1.890  1.0292 -1.2312 -1.4049
  253MOL    H5635840   2.393   5.573   1.783  0.2446 -0.1441  0.1636
  253MOL    H5735841   2.188   5.602   1.850 -0.8390 -0.6640  0.3315
  253MOL    C5835842   2.306   5.656   2.027  0.1314 -0.8667  0.3614
  253MOL    C5935843   2.205   5.763   2.082  0.3935 -0.2402 -0.5019
  253MOL    C6035844   2.060   5.723   2.074  0.0990 -0.3774 -0.2785
  253MOL    N6135845   1.951   5.694   2.071  0.7574  0.0993  0.2192
  253MOL    H6235846   2.362   5.595   2.097  1.0337 -1.6264 -1.0046
  253MOL    H6335847   2.385   5.718   1.985  0.3286 -0.3308  1.4881
  253MOL    H6435848   2.210   5.851   2.017 -0.6853  0.7470  0.7100
  253MOL    C6535849   2.244   5.818   2.224  0.3447 -0.5284  0.1606
  253MOL    C6635850   2.394   5.877   2.237  0.7910 -0.5396  0.7462
  253MOL    C6735851   2.414   6.004   2.158  0.0035  0.2679 -0.2504
  253MOL    N6835852   2.431   6.103   2.100 -0.2088 -0.3576 -0.4680
  253MOL    H6935853   2.177   5.900   2.249  1.2394  1.0838 -2.4790
  253MOL    H7035854   2.234   5.726   2.283 -0.9821 -0.3888  0.1688
  253MOL    H7135855   2.478   5.817   2.202  0.2392 -0.7146 -0.3022
  253MOL    C7235856   2.423   5.892   2.381  0.3268  0.7516 -0.0911
  253MOL    C7335857   2.571   5.931   2.419  0.0313  0.7898  0.2311
  253MOL    C7435858   2.676   5.874   2.337 -0.2689 -0.1888  0.4523
  253MOL    N7535859   2.754   5.831   2.264 -0.0177 -0.4780  0.1070
  253MOL    H7635860   2.347   5.955   2.428 -0.1536 -0.0057  0.1591
  253MOL    H7735861   2.415   5.793   2.424 -0.0458 -0.0584 -1.9948
  253MOL    H7835862   2.588   5.894   2.520 -1.4275 -1.1023 -0.1941
  253MOL    C7935863   2.590   6.087   2.421  0.3896  0.6514 -0.8450
  253MOL    C8035864   2.714   6.141   2.495 -0.3714  0.5527 -0.2738
  253MOL    C8135865   2.770   6.041   2.582  1.4691 -0.4599 -0.0269
  253MOL    N8235866   2.809   5.957   2.657  0.3638 -0.5940  0.2728
  253MOL    H8335867   2.578   6.126   2.320 -2.3186  2.8081  0.2352
  253MOL    H8435868   2.501   6.119   2.477  0.6813  0.5045 -0.2953
  253MOL    H8535869   2.678   6.216   2.566 -0.4960  3.0359 -2.8575
  253MOL    C8635870   2.797   6.213   2.395 -0.8504  0.2906  0.4341
  253MOL    C8735871   2.734   6.352   2.355 -0.0011  0.1316  0.1251
  253MOL    C8835872   2.735   6.436   2.483  0.2770 -0.5172 -0.0584
  253MOL    N8935873   2.743   6.501   2.581  0.6733 -0.5167  0.0108
  253MOL    H9035874   2.898   6.236   2.431 -1.1512  3.2154 -0.4297
  253MOL    H9135875   2.807   6.162   2.299  2.7168  0.5902  0.5827
  253MOL    H9235876   2.626   6.347   2.335 -0.2699 -1.6113  1.8646
  253MOL    C9335877   2.801   6.429   2.241 -0.1668 -0.3470  0.1359
  253MOL    C9435878   2.718   6.532   2.161  0.6928 -0.4238 -0.0766
  253MOL    C9535879   2.636   6.624   2.245  0.3058  0.2316  0.0033
  253MOL    N9635880   2.582   6.691   2.318  0.4797  0.1034 -0.3467
  253MOL    H9735881   2.895   6.473   2.275 -0.8622 -0.1108  1.7837
  253MOL    H9835882   2.833   6.359   2.164  1.5574  1.0195 -0.4339
  253MOL    H9935883   2.648   6.478   2.099  0.5781  0.3912 -0.6657
  253MOL   C10035884   2.815   6.605   2.058  0.5766 -0.4903  0.2594
  253MOL   C10135885   2.746   6.700   1.957 -0.2285 -0.2265  0.2844
  253MOL   C10235886   2.710   6.834   2.015 -0.1905 -0.1729  0.3691
  253MOL   N10335887   2.685   6.937   2.057  0.2093  0.0658  0.2577
  253MOL   H10435888   2.888   6.659   2.119  1.5592 -1.1094 -0.3413
  253MOL   H10535889   2.867   6.533   1.995  0.1994 -0.4737 -0.0713
  253MOL   H10635890   2.648   6.658   1.935 -0.6077  0.0932  1.3145
  253MOL   C10735891   2.840   6.735   1.835 -0.0610 -0.3096 -0.7556
  253MOL   C10835892   2.837   6.623   1.723  0.1797 -0.6256 -0.3469
  253MOL   C10935893   2.707   6.564   1.710  0.1320 -0.7924 -0.2626
  253MOL   N11035894   2.599   6.518   1.703 -0.1146 -0.3504 -0.2626
  253MOL   H11135895   2.798   6.822   1.785  0.5306 -0.5988 -1.7761
  253MOL   H11235896   2.942   6.757   1.864 -1.0419  0.8357  2.0210
  253MOL   H11335897   2.906   6.544   1.752 -1.2457 -1.9643 -0.5270
  253MOL   C11435898   2.870   6.680   1.582 -0.8848  0.2501  0.2127
  253MOL   C11535899   2.995   6.769   1.574  0.5421  0.4685  0.6788
  253MOL   C11635900   3.124   6.684   1.578  0.8998  0.5307  0.1429
  253MOL   N11735901   3.216   6.617   1.580  0.6952 -0.1869  0.2996
  253MOL   H11835902   2.863   6.615   1.495  2.3957  1.1518 -0.8196
  253MOL   H11935903   2.790   6.749   1.556 -2.6186 -2.3820 -1.6043
  253MOL   H12035904   3.003   6.849   1.647  0.9478  0.8627  0.2090
  253MOL   C12135905   3.005   6.837   1.439  0.0289  0.0520 -0.3414
  253MOL   C12235906   2.945   6.974   1.425 -0.5256  0.7053  0.6455
  253MOL   C12335907   3.014   7.068   1.517  0.1764 -0.3549 -0.1374
  253MOL   N12435908   3.067   7.141   1.588 -0.0745  0.7620  0.1363
  253MOL   H12535909   3.107   6.849   1.401  1.1475 -4.0892  1.1411
  253MOL   H12635910   2.979   6.773   1.354 -0.4858 -0.3787  0.1393
  253MOL   H12735911   2.842   6.965   1.461 -0.3250 -2.9355  0.4387
  253MOL   C12835912   2.950   7.023   1.277  0.3349  0.1124  0.0996
  253MOL   C12935913   2.888   7.161   1.242  0.2376  0.4080  0.2095
  253MOL   C13035914   2.770   7.189   1.325 -0.4795  0.3357 -0.1384
  253MOL   N13135915   2.679   7.208   1.392 -0.0884  0.0978 -0.4728
  253MOL   H13235916   3.052   7.019   1.238  0.5537  0.0837  0.6635
  253MOL   H13335917   2.895   6.949   1.218  0.8592  0.6594 -1.0861
  253MOL   H13435918   2.856   7.154   1.138  0.7015 -2.0605  0.1975
  253MOL   C13535919   2.999   7.265   1.246  0.5128  0.4155 -0.3463
  253MOL   C13635920   2.960   7.406   1.239  0.9300 -0.1960  0.1827
  253MOL   C13735921   2.891   7.446   1.113 -0.7957 -0.0593 -0.8662
  253MOL   N13835922   2.834   7.469   1.018  0.2269 -0.5431 -0.1152
  253MOL   H13935923   3.067   7.258   1.331 -0.3956  0.3274  0.3851
  253MOL   H14035924   3.075   7.239   1.174  0.5540 -3.3099  0.9201
  253MOL   H14135925   3.048   7.470   1.238  0.6448  0.2032 -1.7199
  253MOL   H14235926   2.885   7.434   1.313  0.5317 -1.8095  0.4078
  254MOL     C135927   5.569   1.413   7.236 -0.3165  0.1118  0.9824
  254MOL     C235928   5.425   1.468   7.236 -0.0724 -0.0623  0.0907
  254MOL     C335929   5.394   1.553   7.124  0.0107 -0.2154  0.4189
  254MOL     N435930   5.371   1.619   7.030 -0.0321  0.2663 -0.3284
  254MOL     H535931   5.631   1.494   7.196 -2.9815  0.4022 -2.8598
  254MOL     H635932   5.569   1.334   7.162 -3.0245  0.2387  0.7840
  254MOL     H735933   5.415   1.544   7.314  0.4233 -1.2192  1.3058
  254MOL     H835934   5.600   1.370   7.331 -0.4467  0.8425  1.3635
  254MOL     C935935   5.305   1.368   7.252 -0.1023  0.4838 -0.8066
  254MOL    C1035936   5.170   1.439   7.283 -0.2528 -0.1180 -0.2137
  254MOL    C1135937   5.057   1.344   7.267  0.2494  0.2382  0.5722
  254MOL    N1235938   4.966   1.278   7.242  0.0997 -0.2540 -0.1855
  254MOL    H1335939   5.288   1.311   7.161  0.5809  0.2826 -0.8141
  254MOL    H1435940   5.314   1.292   7.331 -0.2018  0.3664 -0.9079
  254MOL    H1535941   5.151   1.515   7.207  1.7966  0.0968 -0.5259
  254MOL    C1635942   5.155   1.507   7.422  0.5958 -0.4289  0.3925
  254MOL    C1735943   5.205   1.440   7.557 -0.3212  0.7388  0.0972
  254MOL    C1835944   5.149   1.308   7.569 -0.4241  0.7725 -0.3790
  254MOL    N1935945   5.097   1.202   7.577  0.3225  0.1792 -0.6716
  254MOL    H2035946   5.210   1.601   7.413 -0.0824  0.0270  0.9136
  254MOL    H2135947   5.052   1.538   7.438  0.8850  0.7797  0.0186
  254MOL    H2235948   5.161   1.478   7.649 -0.1171 -0.2262  0.6019
  254MOL    C2335949   5.351   1.450   7.584 -0.4520  0.1115  1.1301
  254MOL    C2435950   5.408   1.444   7.725  0.0159 -0.0203  0.0380
  254MOL    C2535951   5.356   1.321   7.796 -0.2282 -0.3737  0.0023
  254MOL    N2635952   5.314   1.231   7.856  0.4310 -0.3258 -0.7325
  254MOL    H2735953   5.398   1.371   7.525  0.2778 -0.9226  3.0474
  254MOL    H2835954   5.381   1.544   7.537  0.8127 -1.8671 -2.2429
  254MOL    H2935955   5.365   1.524   7.786  2.4257  1.2961  0.0494
  254MOL    C3035956   5.560   1.449   7.717  0.5622  0.5807  0.6643
  254MOL    C3135957   5.638   1.459   7.855 -0.0873  0.1371 -0.0022
  254MOL    C3235958   5.603   1.369   7.960  0.6275  0.4691  0.2085
  254MOL    N3335959   5.576   1.300   8.049 -0.1485 -0.2661  0.6650
  254MOL    H3435960   5.599   1.360   7.667  0.5718  1.1691 -0.4013
  254MOL    H3535961   5.591   1.536   7.660 -0.9435  1.5989  1.3777
  254MOL    H3635962   5.599   1.551   7.898  2.5653  0.1960  2.4143
  254MOL    C3735963   5.794   1.467   7.830  0.5087  0.0958 -0.5118
  254MOL    C3835964   5.902   1.442   7.934  0.2226 -0.6034  0.0866
  254MOL    C3935965   5.903   1.300   7.975 -0.3143  0.2849  0.0433
  254MOL    N4035966   5.898   1.190   8.007 -0.4863 -0.9865 -0.3190
  254MOL    H4135967   5.814   1.381   7.765  2.0102  2.2546 -2.9853
  254MOL    H4235968   5.811   1.561   7.778 -1.0236  0.8579  0.3438
  254MOL    H4335969   5.891   1.494   8.029 -0.2899 -0.0804 -0.2613
  254MOL    C4435970   6.036   1.498   7.885  0.2508  0.1804  0.2450
  254MOL    C4535971   6.136   1.513   8.005 -0.2054 -0.6543 -0.6379
  254MOL    C4635972   6.182   1.384   8.054 -0.1315  0.2189  0.5528
  254MOL    N4735973   6.221   1.281   8.088  0.1040  0.0646  0.1926
  254MOL    H4835974   6.075   1.421   7.818 -1.4173 -0.1404 -0.3801
  254MOL    H4935975   6.023   1.582   7.817 -2.0763 -0.7265 -0.4797
  254MOL    H5035976   6.099   1.577   8.085  1.0021  0.4029 -0.9084
  254MOL    C5135977   6.265   1.581   7.947 -0.1257  1.0261 -0.3979
  254MOL    C5235978   6.264   1.738   7.956  0.0545 -0.0965  1.1431
  254MOL    C5335979   6.228   1.785   8.094 -0.1527 -0.5856  0.1826
  254MOL    N5435980   6.199   1.819   8.201 -0.5798  0.0287 -0.6440
  254MOL    H5535981   6.347   1.536   8.004  0.0169  0.5881 -0.9432
  254MOL    H5635982   6.288   1.539   7.850  2.1957 -0.2136  0.6563
  254MOL    H5735983   6.174   1.772   7.906 -1.9072 -2.6731  2.8000
  254MOL    C5835984   6.390   1.807   7.896  0.5911 -0.2279 -0.4814
  254MOL    C5935985   6.494   1.858   7.996  0.2957  0.3859 -0.2506
  254MOL    C6035986   6.528   1.757   8.098 -0.0921  0.9068  0.3841
  254MOL    N6135987   6.557   1.679   8.186  1.1147  0.3050 -0.2904
  254MOL    H6235988   6.433   1.731   7.831  0.3772  1.8693 -3.1608
  254MOL    H6335989   6.360   1.890   7.832 -0.8048  0.6379  1.2493
  254MOL    H6435990   6.458   1.953   8.037 -0.5903 -0.0066 -0.1136
  254MOL    C6535991   6.625   1.901   7.921  0.3260 -0.2331  0.4749
  254MOL    C6635992   6.690   2.020   8.001 -0.4501 -0.0867  0.4530
  254MOL    C6735993   6.737   1.981   8.132 -0.1589  0.5141  0.5192
  254MOL    N6835994   6.781   1.947   8.236  0.0505  0.2976 -0.3344
  254MOL    H6935995   6.687   1.813   7.907 -0.3449 -0.6824  0.3072
  254MOL    H7035996   6.592   1.933   7.822  1.3125  1.7054  0.7328
  254MOL    H7135997   6.611   2.090   8.026  0.3571  1.0457 -0.1315
  254MOL    C7235998   6.797   2.106   7.925 -0.4463  0.9287  0.2562
  254MOL    C7335999   6.877   2.208   8.013 -0.5779 -0.5558 -0.9995
  254MOL    C7436000   6.990   2.149   8.085 -0.3685 -0.5418 -0.3876
  254MOL    N7536001   7.077   2.096   8.140 -0.2991 -0.0064 -0.0167
  254MOL    H7636002   6.870   2.038   7.881 -0.5844 -0.0611  1.5143
  254MOL    H7736003   6.737   2.167   7.858 -0.0646  0.5386 -0.4394
  254MOL    H7836004   6.814   2.257   8.087  0.5425 -0.9426  0.2196
  254MOL    C7936005   6.926   2.333   7.936 -0.2396  0.1780  0.3123
  254MOL    C8036006   6.820   2.435   7.886 -0.3092  0.1874  0.6492
  254MOL    C8136007   6.755   2.518   7.992  0.6326 -0.4448 -0.1382
  254MOL    N8236008   6.707   2.589   8.071  0.0678 -0.1291  0.2362
  254MOL    H8336009   7.001   2.376   8.003  0.2123 -0.1655  0.0355
  254MOL    H8436010   6.984   2.292   7.853 -3.3704 -1.5091 -1.1454
  254MOL    H8536011   6.736   2.382   7.842 -1.2432  2.2129 -0.0499
  254MOL    C8636012   6.888   2.522   7.776 -0.0044  1.0048 -0.0715
  254MOL    C8736013   6.994   2.630   7.836 -0.8505 -0.5112  0.3146
  254MOL    C8836014   7.120   2.635   7.758  0.5298  0.6867  0.2112
  254MOL    N8936015   7.216   2.640   7.698 -0.0603  0.2067  0.1521
  254MOL    H9036016   6.937   2.461   7.701  0.0620 -0.1972  0.9239
  254MOL    H9136017   6.793   2.558   7.737 -1.9701 -0.8901  2.7808
  254MOL    H9236018   7.027   2.599   7.935 -0.4287 -2.0442 -0.2953
  254MOL    C9336019   6.940   2.775   7.834 -0.2742 -0.4988  0.4756
  254MOL    C9436020   6.930   2.843   7.691 -0.0614  0.1372  0.1241
  254MOL    C9536021   6.888   2.750   7.583  0.4648 -0.2448  0.6000
  254MOL    N9636022   6.856   2.675   7.496 -0.5223  0.1126 -0.1982
  254MOL    H9736023   6.837   2.764   7.870 -0.4822 -1.4613 -0.3884
  254MOL    H9836024   7.004   2.839   7.894 -0.3584 -0.0708  0.1189
  254MOL    H9936025   7.032   2.868   7.661 -0.5758  1.7166 -0.3579
  254MOL   C10036026   6.859   2.979   7.695 -0.1298  0.5714  0.5580
  254MOL   C10136027   6.700   2.995   7.689  0.1548  0.0432  0.1526
  254MOL   C10236028   6.635   2.948   7.816 -0.1232 -0.4197 -0.6417
  254MOL   N10336029   6.589   2.906   7.917 -0.6245 -0.6589  0.0238
  254MOL   H10436030   6.902   3.025   7.784 -1.6219  1.6039  0.7610
  254MOL   H10536031   6.905   3.036   7.614 -1.7952  3.5045  1.5935
  254MOL   H10636032   6.669   2.922   7.615  0.6860  0.4664 -0.4899
  254MOL   C10736033   6.650   3.134   7.647 -0.4095  0.5628 -0.4077
  254MOL   C10836034   6.643   3.177   7.501 -0.5320 -1.1459  0.1956
  254MOL   C10936035   6.768   3.173   7.424 -0.4118 -0.2404  0.2072
  254MOL   N11036036   6.864   3.162   7.358 -0.0497 -0.1223  0.1518
  254MOL   H11136037   6.551   3.145   7.691 -0.8400  1.5250 -1.5996
  254MOL   H11236038   6.720   3.205   7.693 -0.0856  1.1352 -1.7453
  254MOL   H11336039   6.622   3.284   7.499 -1.8655 -1.4122 -0.5389
  254MOL   C11436040   6.526   3.104   7.427 -0.1064  0.3624  0.3800
  254MOL   C11536041   6.533   3.115   7.275 -0.1101 -0.3559 -0.5597
  254MOL   C11636042   6.453   3.007   7.205 -0.1079  0.2369 -0.0808
  254MOL   N11736043   6.390   2.928   7.155  0.0442 -0.3888  0.5854
  254MOL   H11836044   6.520   2.997   7.447 -2.3746  0.7601  2.0212
  254MOL   H11936045   6.432   3.153   7.453  0.3990  1.4067  0.2937
  254MOL   H12036046   6.638   3.090   7.260 -0.0233 -0.3668  0.0403
  254MOL   C12136047   6.512   3.264   7.225  0.1769  0.6723  0.0222
  254MOL   C12236048   6.552   3.291   7.083 -0.3457  0.0921  0.2056
  254MOL   C12336049   6.446   3.290   6.984  0.2060 -0.7866 -0.2241
  254MOL   N12436050   6.366   3.285   6.904  0.7794  0.4476  0.0326
  254MOL   H12536051   6.409   3.291   7.244  1.0227  4.3641 -0.2518
  254MOL   H12636052   6.586   3.317   7.285  1.4391 -1.6253  0.5743
  254MOL   H12736053   6.617   3.207   7.059  2.7467  2.6563 -0.6625
  254MOL   C12836054   6.641   3.408   7.068 -0.4082 -0.4295 -0.0468
  254MOL   C12936055   6.699   3.417   6.928 -0.1595 -0.1272  0.7071
  254MOL   C13036056   6.633   3.512   6.836 -0.0939  0.1283  0.1316
  254MOL   N13136057   6.580   3.582   6.763  0.0370  0.3746  0.5336
  254MOL   H13236058   6.587   3.501   7.086 -0.5693 -0.8589  1.7704
  254MOL   H13336059   6.723   3.415   7.140 -3.1477  0.0689  3.1518
  254MOL   H13436060   6.692   3.319   6.882  0.6059  0.3319 -0.4213
  254MOL   C13536061   6.847   3.456   6.941 -0.5033  0.0667  0.0627
  254MOL   C13636062   6.864   3.604   6.981 -0.7046  0.6152 -0.0951
  254MOL   C13736063   6.853   3.619   7.128  0.2623  1.2055  0.4034
  254MOL   N13836064   6.846   3.625   7.245  0.5942  0.1772 -0.4735
  254MOL   H13936065   6.897   3.396   7.017  1.1636  0.3320 -0.8062
  254MOL   H14036066   6.905   3.443   6.849 -0.4854 -0.0042  0.0836
  254MOL   H14136067   6.800   3.677   6.931 -2.7475 -0.9861  0.0832
  254MOL   H14236068   6.964   3.623   6.944 -0.8279 -1.5009 -1.5787
  255MOL     C136069   6.219   4.205   2.058 -0.6270  0.1213 -0.1412
  255MOL     C236070   6.088   4.125   2.027 -0.2089 -0.4437 -0.7302
  255MOL     C336071   6.004   4.185   1.909 -0.4443 -0.2027 -0.1323
  255MOL     N436072   5.939   4.230   1.823  0.1486  0.5554  0.6048
  255MOL     H536073   6.272   4.158   2.140 -0.1165  0.5320 -0.2248
  255MOL     H636074   6.207   4.306   2.099  1.3124  0.6148 -0.7270
  255MOL     H736075   6.007   4.128   2.099  1.3676 -0.9247  1.1075
  255MOL     H836076   6.273   4.213   1.963  0.9903  3.1744  0.9330
  255MOL     C936077   6.126   3.977   1.995  0.5208 -0.6047  0.7843
  255MOL    C1036078   6.178   3.898   2.117  0.2609 -0.6057  0.6936
  255MOL    C1136079   6.070   3.885   2.218  0.4168  0.2619 -0.1221
  255MOL    N1236080   5.985   3.873   2.297  0.4569 -0.2377 -0.4009
  255MOL    H1336081   6.040   3.923   1.957  0.8067 -1.6298  1.5652
  255MOL    H1436082   6.202   3.978   1.916 -0.9043  0.7551 -0.5961
  255MOL    H1536083   6.248   3.961   2.172  1.0343 -0.5847 -0.2882
  255MOL    C1636084   6.241   3.755   2.088 -0.1620 -0.1445  0.3752
  255MOL    C1736085   6.140   3.652   2.029  0.5729  0.0572 -0.1781
  255MOL    C1836086   6.098   3.682   1.893  0.3435 -0.2491 -1.1632
  255MOL    N1936087   6.057   3.704   1.787  0.6942  0.1477 -0.1829
  255MOL    H2036088   6.332   3.772   2.030 -1.5281  2.6629 -1.0670
  255MOL    H2136089   6.274   3.726   2.188 -0.1286 -1.2180  0.0577
  255MOL    H2236090   6.047   3.661   2.086  0.6558  0.0961 -0.0472
  255MOL    C2336091   6.198   3.508   2.032 -0.2360  0.0061 -0.2532
  255MOL    C2436092   6.204   3.450   2.174  0.6177  0.5532 -0.7419
  255MOL    C2536093   6.076   3.467   2.244  0.0107 -0.5595 -0.7854
  255MOL    N2636094   5.974   3.471   2.303 -0.2332  0.0926 -0.1845
  255MOL    H2736095   6.135   3.444   1.970  1.1044  0.2111 -1.8722
  255MOL    H2836096   6.300   3.509   1.993  0.4740 -0.0787  1.5317
  255MOL    H2936097   6.270   3.510   2.236  0.0212 -0.8292  1.2603
  255MOL    C3036098   6.240   3.298   2.167  0.2569  0.0290  0.6897
  255MOL    C3136099   6.258   3.217   2.304  0.1502 -0.4673 -0.5153
  255MOL    C3236100   6.251   3.076   2.279 -0.7096  0.0862  0.1907
  255MOL    N3336101   6.250   2.962   2.255  0.5738  0.4147 -0.7430
  255MOL    H3436102   6.163   3.244   2.112 -1.1770  1.3338  1.3989
  255MOL    H3536103   6.330   3.292   2.106 -0.9358  1.8749 -1.2940
  255MOL    H3636104   6.164   3.234   2.356 -0.3407  1.2041 -1.8772
  255MOL    C3736105   6.371   3.256   2.394 -0.0353 -0.0396  0.2178
  255MOL    C3836106   6.501   3.195   2.357  0.9027 -0.2866  0.1685
  255MOL    C3936107   6.550   3.251   2.230  0.5099  0.2146 -0.2397
  255MOL    N4036108   6.590   3.290   2.137 -0.3644  0.5027  0.0564
  255MOL    H4136109   6.385   3.364   2.395  4.1976 -0.5219  0.0322
  255MOL    H4236110   6.337   3.224   2.493 -2.0760 -0.5074 -0.5960
  255MOL    H4336111   6.473   3.090   2.343  1.3168 -0.3849  0.0502
  255MOL    C4436112   6.598   3.205   2.472  1.0583 -0.9280 -0.4825
  255MOL    C4536113   6.732   3.125   2.453 -0.5913  0.2177 -0.0751
  255MOL    C4636114   6.780   3.081   2.317 -0.1706  0.2897  0.2160
  255MOL    N4736115   6.818   3.054   2.212  0.8274 -0.2619  0.3978
  255MOL    H4836116   6.594   3.312   2.492  2.4655 -0.9282 -0.1777
  255MOL    H4936117   6.550   3.160   2.558 -2.6177 -1.3352 -2.6199
  255MOL    H5036118   6.718   3.030   2.505  0.4386  0.0776 -0.0526
  255MOL    C5136119   6.854   3.193   2.527  0.5334 -0.2424 -0.0289
  255MOL    C5236120   6.937   3.295   2.447  0.5825 -0.5250  0.4608
  255MOL    C5336121   6.855   3.407   2.393 -0.1035 -0.3066  0.2679
  255MOL    N5436122   6.793   3.488   2.344 -0.6247 -0.5851  0.6133
  255MOL    H5536123   6.823   3.221   2.627  2.2406  0.7810  0.2255
  255MOL    H5636124   6.925   3.110   2.530  2.7064  1.5494 -0.5476
  255MOL    H5736125   6.977   3.250   2.356 -0.8056  0.8479 -0.8478
  255MOL    C5836126   7.044   3.357   2.540  0.3615 -0.1142  0.3816
  255MOL    C5936127   7.173   3.279   2.574 -0.9050 -0.6132  0.1599
  255MOL    C6036128   7.229   3.206   2.458 -0.0972  0.8222  0.8569
  255MOL    N6136129   7.273   3.147   2.368 -0.4536 -0.4472  0.0266
  255MOL    H6236130   7.081   3.445   2.487  1.3499  1.7156  3.9622
  255MOL    H6336131   6.997   3.408   2.624 -0.9148 -0.7248  0.0546
  255MOL    H6436132   7.140   3.207   2.648  2.4313 -3.8041 -1.2830
  255MOL    C6536133   7.268   3.389   2.633 -0.2669 -0.1264  0.1950
  255MOL    C6636134   7.380   3.346   2.728  0.0334  0.7041  0.6276
  255MOL    C6736135   7.477   3.268   2.652  0.1634  0.0516 -0.1498
  255MOL    N6836136   7.556   3.204   2.595  0.1193  0.1114  0.7392
  255MOL    H6936137   7.313   3.435   2.545 -2.7402  0.4501 -0.8075
  255MOL    H7036138   7.210   3.461   2.689 -2.0057 -2.1080  1.0223
  255MOL    H7136139   7.333   3.282   2.802 -0.2670  0.0226 -0.1532
  255MOL    C7236140   7.440   3.468   2.802 -0.4007 -0.5344 -0.2174
  255MOL    C7336141   7.534   3.567   2.725 -0.7857 -0.2756 -0.5386
  255MOL    C7436142   7.477   3.633   2.608  0.0146  0.0913 -0.1087
  255MOL    N7536143   7.435   3.684   2.508  0.1924  0.4997  0.4810
  255MOL    H7636144   7.361   3.520   2.856  0.9169 -1.9530  3.2608
  255MOL    H7736145   7.503   3.436   2.886  1.1738 -0.8519 -1.4798
  255MOL    H7836146   7.621   3.510   2.691  1.1979  1.9086  0.7070
  255MOL    C7936147   7.580   3.679   2.825 -0.2281 -0.4649  0.6008
  255MOL    C8036148   7.635   3.806   2.763  0.2980 -0.3589 -0.1148
  255MOL    C8136149   7.614   3.926   2.838  0.6097 -0.1994 -0.0044
  255MOL    N8236150   7.605   4.028   2.900 -0.1754  0.5618  0.3755
  255MOL    H8336151   7.487   3.702   2.877 -0.4107  2.7816 -1.0737
  255MOL    H8436152   7.651   3.645   2.901 -0.4736 -0.8295  0.6678
  255MOL    H8536153   7.581   3.829   2.672  0.3349  0.6471  0.1096
  255MOL    C8636154   7.783   3.805   2.722 -0.4193  0.3579  0.3661
  255MOL    C8736155   7.823   3.908   2.624  0.4956 -0.5721  0.1042
  255MOL    C8836156   7.974   3.921   2.608 -0.4830 -0.1321  0.8116
  255MOL    N8936157   8.092   3.932   2.593  0.5574 -0.1483  0.1768
  255MOL    H9036158   7.849   3.824   2.807  1.4796  0.2036 -1.0263
  255MOL    H9136159   7.794   3.707   2.676  1.4456  1.9078 -2.6595
  255MOL    H9236160   7.799   4.006   2.665  1.2765 -0.2361 -0.2267
  255MOL    C9336161   7.771   3.882   2.476 -0.3576 -0.4675  0.4186
  255MOL    C9436162   7.798   3.995   2.375  0.1203  0.4415  0.8094
  255MOL    C9536163   7.758   3.942   2.244  0.2742  0.0261  0.8841
  255MOL    N9636164   7.727   3.902   2.140  0.0145 -0.7214  0.1174
  255MOL    H9736165   7.831   3.796   2.446  1.4083  1.4573 -1.7590
  255MOL    H9836166   7.667   3.850   2.473 -0.6078  0.2734  1.0484
  255MOL    H9936167   7.906   4.005   2.381  0.5867 -2.3878 -1.6941
  255MOL   C10036168   7.738   4.140   2.413  0.2905 -0.6094  0.1534
  255MOL   C10136169   7.832   4.252   2.365  0.3857 -0.0736 -0.3594
  255MOL   C10236170   7.852   4.251   2.221  0.0052  0.8504  0.0438
  255MOL   N10336171   7.865   4.255   2.108  0.1694  0.0010 -0.1903
  255MOL   H10436172   7.637   4.149   2.373  0.7218  1.1171 -0.6240
  255MOL   H10536173   7.721   4.137   2.520  0.0987  0.6779  0.1691
  255MOL   H10636174   7.934   4.253   2.403  0.4611 -2.3143 -0.4013
  255MOL   C10736175   7.780   4.388   2.419 -1.0381 -0.1164  0.0164
  255MOL   C10836176   7.776   4.412   2.572  0.0559 -0.4290  0.4520
  255MOL   C10936177   7.876   4.328   2.639  1.2999  0.0102 -0.0378
  255MOL   N11036178   7.961   4.262   2.679 -0.9731 -0.4123  0.3775
  255MOL   H11136179   7.842   4.465   2.374  0.6024 -1.5008 -0.1479
  255MOL   H11236180   7.683   4.412   2.374 -2.0385  2.3094  3.2879
  255MOL   H11336181   7.676   4.389   2.609 -0.7697  4.6835  1.7512
  255MOL   C11436182   7.790   4.569   2.595  0.4934 -0.7208  0.5865
  255MOL   C11536183   7.933   4.632   2.603 -0.6268  0.1524 -0.1031
  255MOL   C11636184   8.007   4.627   2.477  0.5959  0.1139  0.4566
  255MOL   N11736185   8.064   4.621   2.377 -0.0899 -0.4966 -0.1808
  255MOL   H11836186   7.730   4.625   2.522  0.6854  0.2138  1.1313
  255MOL   H11936187   7.735   4.594   2.686 -0.2684 -1.8648  0.4542
  255MOL   H12036188   7.987   4.563   2.668 -0.2822 -0.4449 -1.0258
  255MOL   C12136189   7.950   4.768   2.670  0.5164  0.5256  0.4009
  255MOL   C12236190   8.083   4.775   2.758  0.2968  0.4211  0.0704
  255MOL   C12336191   8.199   4.775   2.667 -0.0468  0.7212 -0.0800
  255MOL   N12436192   8.288   4.773   2.591 -0.0933  0.2425 -0.1566
  255MOL   H12536193   7.936   4.848   2.597  0.4216  0.1223 -0.0281
  255MOL   H12636194   7.861   4.775   2.732  1.6707  0.1933  2.1118
  255MOL   H12736195   8.087   4.689   2.825 -0.8645  0.0114 -0.3641
  255MOL   C12836196   8.078   4.910   2.829  0.3023 -0.1274 -0.6834
  255MOL   C12936197   7.970   4.941   2.937  0.4076  0.1945 -0.0628
  255MOL   C13036198   7.992   4.857   3.060  0.5052  0.1088 -0.3414
  255MOL   N13136199   8.007   4.783   3.152 -0.1562 -0.6514 -0.6619
  255MOL   H13236200   8.177   4.940   2.864  1.2603 -0.3656 -3.1328
  255MOL   H13336201   8.063   4.988   2.754 -1.8961  1.4153  1.2703
  255MOL   H13436202   7.872   4.901   2.910 -0.5036  3.3233 -1.6050
  255MOL   C13536203   7.948   5.092   2.962  0.6240 -0.3636  0.4325
  255MOL   C13636204   8.056   5.154   3.044  0.5042 -0.4706  0.0421
  255MOL   C13736205   8.062   5.301   3.045  0.3989  0.4620 -0.3252
  255MOL   N13836206   8.073   5.420   3.046 -0.5495 -0.4159 -0.5316
  255MOL   H13936207   7.930   5.144   2.867 -1.8369 -4.1458 -1.3136
  255MOL   H14036208   7.852   5.106   3.012  0.4094 -1.1944  0.2635
  255MOL   H14136209   8.152   5.110   3.015  0.8834 -0.0213  0.6101
  255MOL   H14236210   8.034   5.123   3.146 -0.6659  2.9514  0.8838
  256MOL     C136211   1.303   7.499   1.770  0.0413  0.6616  0.9032
  256MOL     C236212   1.301   7.349   1.776 -0.1513  0.6438  0.4058
  256MOL     C336213   1.207   7.297   1.879  0.4545 -0.4463 -0.3543
  256MOL     N436214   1.141   7.263   1.966 -0.1169  1.0215 -0.2360
  256MOL     H536215   1.215   7.532   1.714  0.5368 -0.1974 -0.4224
  256MOL     H636216   1.389   7.551   1.729 -0.1090 -1.5760 -2.4781
  256MOL     H736217   1.399   7.308   1.796  0.3177  0.7759 -1.5076
  256MOL     H836218   1.304   7.543   1.870  0.4729 -0.8217  1.5597
  256MOL     C936219   1.268   7.282   1.635  0.5028  0.8274 -0.3404
  256MOL    C1036220   1.361   7.320   1.528 -0.2227 -0.4306 -0.3237
  256MOL    C1136221   1.500   7.312   1.572  0.2854 -0.1437 -0.2311
  256MOL    N1236222   1.609   7.298   1.611  0.8553 -0.7059 -0.2535
  256MOL    H1336223   1.266   7.174   1.649 -3.4285  0.7267 -1.1672
  256MOL    H1436224   1.169   7.319   1.608  1.0500  1.5946 -1.3475
  256MOL    H1536225   1.357   7.426   1.501 -1.4097  0.0688  1.6632
  256MOL    C1636226   1.345   7.253   1.393  0.4915  0.1111  0.2559
  256MOL    C1736227   1.468   7.243   1.298  0.1428 -0.1159  0.6541
  256MOL    C1836228   1.585   7.170   1.345  0.1519 -0.4363  0.0718
  256MOL    N1936229   1.679   7.111   1.376  0.2108  0.6393 -0.9765
  256MOL    H2036230   1.318   7.148   1.397 -1.4430  0.4761 -2.0468
  256MOL    H2136231   1.253   7.293   1.351 -0.7572 -1.1697  1.7419
  256MOL    H2236232   1.494   7.347   1.279  0.0556 -0.1767  0.1821
  256MOL    C2336233   1.430   7.193   1.156  0.4286 -0.2534 -0.7523
  256MOL    C2436234   1.543   7.216   1.058 -0.0152  0.4260  0.2309
  256MOL    C2536235   1.640   7.103   1.056 -0.7047 -0.7868 -0.3605
  256MOL    N2636236   1.708   7.010   1.044  0.4409  0.2867 -0.0866
  256MOL    H2736237   1.397   7.090   1.149 -0.0227 -0.3266  1.7525
  256MOL    H2836238   1.341   7.253   1.135 -0.4653 -0.7788  1.3637
  256MOL    H2936239   1.617   7.292   1.084  0.2972 -0.2738  1.3947
  256MOL    C3036240   1.490   7.238   0.913 -0.1898 -0.0048  0.8341
  256MOL    C3136241   1.407   7.360   0.889  0.5404  0.2501 -0.5310
  256MOL    C3236242   1.480   7.476   0.925  0.0180 -0.6575 -0.0391
  256MOL    N3336243   1.536   7.573   0.959  0.3444  0.4969 -1.3373
  256MOL    H3436244   1.577   7.262   0.853 -0.6419 -0.4787 -0.0131
  256MOL    H3536245   1.437   7.154   0.868 -1.5642  1.3607 -0.1370
  256MOL    H3636246   1.317   7.357   0.950  1.2418  0.0452  0.5027
  256MOL    C3736247   1.351   7.372   0.739 -0.3874 -0.5571  0.9117
  256MOL    C3836248   1.237   7.473   0.719 -0.9199 -0.6194 -0.2485
  256MOL    C3936249   1.241   7.523   0.578 -0.3881  0.1017 -0.4796
  256MOL    N4036250   1.250   7.561   0.469  0.0861 -0.4238 -0.5471
  256MOL    H4136251   1.436   7.397   0.675 -2.0491 -0.3649 -1.2377
  256MOL    H4236252   1.320   7.274   0.702  0.4237 -0.7595  0.7567
  256MOL    H4336253   1.270   7.561   0.775 -2.2416 -0.6964  0.6945
  256MOL    C4436254   1.098   7.433   0.759  0.3659  0.7474  0.3655
  256MOL    C4536255   1.043   7.296   0.724  0.2581  0.1583  0.3986
  256MOL    C4636256   1.101   7.189   0.807 -0.5815  0.6027  0.0695
  256MOL    N4736257   1.148   7.105   0.872  0.1155  0.2784 -0.0396
  256MOL    H4836258   1.096   7.435   0.868  0.3096 -0.1351  0.3851
  256MOL    H4936259   1.032   7.511   0.722 -0.0709  0.1204 -0.1960
  256MOL    H5036260   1.075   7.285   0.621  1.0096  0.6374  0.5738
  256MOL    C5136261   0.887   7.293   0.719 -0.3668  1.2125 -0.3993
  256MOL    C5236262   0.811   7.172   0.665 -0.0632  0.5167 -0.2736
  256MOL    C5336263   0.834   7.159   0.517 -0.2177 -0.5002 -0.8053
  256MOL    N5436264   0.853   7.150   0.404 -0.6553  0.0261  0.0925
  256MOL    H5536265   0.853   7.323   0.818 -2.6257  0.3417 -0.8783
  256MOL    H5636266   0.847   7.376   0.661 -1.0045  1.5686  0.5418
  256MOL    H5736267   0.708   7.206   0.667 -0.1098  0.4126 -0.8196
  256MOL    C5836268   0.823   7.038   0.742  0.1119 -0.2479 -0.0802
  256MOL    C5936269   0.816   7.051   0.901 -0.1275  0.3951  0.1993
  256MOL    C6036270   0.715   7.140   0.947  0.3358 -0.4024  0.4767
  256MOL    N6136271   0.631   7.216   0.974  0.5697  0.3568 -0.1333
  256MOL    H6236272   0.736   6.978   0.714  2.0643 -2.2473 -2.0544
  256MOL    H6336273   0.911   6.975   0.727  0.5182 -0.1485  1.7317
  256MOL    H6436274   0.911   7.095   0.933 -0.9110  0.5518  2.3522
  256MOL    C6536275   0.812   6.912   0.978 -0.2934  0.0979  0.6332
  256MOL    C6636276   0.681   6.869   1.028  0.7069 -0.3745  0.6455
  256MOL    C6736277   0.588   6.864   0.912  0.4550 -0.0980  0.2787
  256MOL    N6836278   0.514   6.858   0.825  0.2756 -0.8816  0.1340
  256MOL    H6936279   0.858   6.830   0.921  3.2837  1.8401  0.8539
  256MOL    H7036280   0.885   6.927   1.057  0.9674 -0.4660 -0.3940
  256MOL    H7136281   0.639   6.940   1.098  1.8499  0.1731  0.7815
  256MOL    C7236282   0.673   6.728   1.095  0.4367 -0.1901 -0.3992
  256MOL    C7336283   0.542   6.713   1.180  0.7180  0.2737 -0.1140
  256MOL    C7436284   0.419   6.697   1.100 -0.0340 -0.2058  0.0436
  256MOL    N7536285   0.317   6.681   1.052  0.1370 -0.4686 -0.2378
  256MOL    H7636286   0.675   6.648   1.020 -1.4017 -0.0539 -0.6213
  256MOL    H7736287   0.757   6.725   1.165  0.3848  3.4848 -0.1017
  256MOL    H7836288   0.518   6.807   1.231  0.4241  0.2443 -0.1980
  256MOL    C7936289   0.548   6.599   1.291  0.1621 -0.2982  0.2904
  256MOL    C8036290   0.624   6.643   1.416  0.1731 -0.1058  0.3010
  256MOL    C8136291   0.555   6.759   1.470  0.5699  0.2262 -0.3258
  256MOL    N8236292   0.494   6.848   1.507 -0.0259 -0.6076 -0.3998
  256MOL    H8336293   0.445   6.574   1.314 -0.2173 -1.2619 -2.2999
  256MOL    H8436294   0.579   6.501   1.254 -1.0694 -0.4428 -0.3840
  256MOL    H8536295   0.722   6.690   1.404  1.2763 -2.1793  0.9572
  256MOL    C8636296   0.632   6.532   1.524 -0.2782  0.5849 -0.5887
  256MOL    C8736297   0.734   6.421   1.487  0.9792  0.2135  0.8187
  256MOL    C8836298   0.869   6.472   1.490  0.4326 -0.6299  0.3828
  256MOL    N8936299   0.976   6.512   1.492  0.7993 -0.2847  0.2386
  256MOL    H9036300   0.678   6.573   1.614  0.0621 -0.2609 -0.3729
  256MOL    H9136301   0.533   6.493   1.548  0.2509  0.3582  1.3489
  256MOL    H9236302   0.700   6.397   1.386 -0.1850 -1.3366  1.5660
  256MOL    C9336303   0.724   6.304   1.588 -0.6278 -0.4294 -0.5149
  256MOL    C9436304   0.820   6.307   1.707 -0.7135  0.6033 -0.2646
  256MOL    C9536305   0.796   6.426   1.794  0.5881 -0.0006 -0.2366
  256MOL    N9636306   0.789   6.518   1.865 -0.3829  0.8562 -0.6302
  256MOL    H9736307   0.622   6.310   1.627 -1.0025  1.6124 -1.7500
  256MOL    H9836308   0.731   6.209   1.536  0.2992  0.4965 -2.1327
  256MOL    H9936309   0.922   6.318   1.671 -0.8063  0.3640 -0.6059
  256MOL   C10036310   0.840   6.178   1.789  0.2916 -0.0472 -0.0303
  256MOL   C10136311   0.955   6.176   1.902 -0.3189 -0.2286  0.6914
  256MOL   C10236312   0.943   6.271   2.008  0.5072  0.5257  0.1997
  256MOL   N10336313   0.930   6.347   2.095 -0.2844  0.3259  0.1104
  256MOL   H10436314   0.752   6.150   1.846  0.0954  3.5490  1.5383
  256MOL   H10536315   0.856   6.095   1.719  3.1859 -0.8292  1.4885
  256MOL   H10636316   1.048   6.209   1.856  0.3076 -0.2258  1.9435
  256MOL   C10736317   0.966   6.035   1.964 -0.1861 -0.0446  0.4656
  256MOL   C10836318   1.091   6.009   2.054 -1.0779 -0.1638  0.2485
  256MOL   C10936319   1.213   6.073   1.993 -0.0880  0.5508 -0.2413
  256MOL   N11036320   1.302   6.116   1.947  0.1183 -0.8358 -0.5458
  256MOL   H11136321   0.876   6.017   2.023  1.1600 -0.3143  2.4490
  256MOL   H11236322   0.974   5.967   1.878  0.6732  0.0007  0.5056
  256MOL   H11336323   1.100   5.901   2.050  2.5905  0.0572  0.8792
  256MOL   C11436324   1.080   6.036   2.211 -0.1528 -0.0629  0.4757
  256MOL   C11536325   1.212   6.014   2.294 -0.1061 -0.4116 -0.8356
  256MOL   C11636326   1.174   6.045   2.437 -0.4088 -0.1744  0.4020
  256MOL   N11736327   1.148   6.065   2.547 -0.1450 -0.5274 -0.4818
  256MOL   H11836328   1.050   6.139   2.234  0.4616  0.1762  0.2260
  256MOL   H11936329   0.992   5.980   2.244 -0.2819  0.4758  1.0704
  256MOL   H12036330   1.289   6.083   2.260 -0.7824  0.1064 -1.3293
  256MOL   C12136331   1.286   5.873   2.288 -0.3884 -0.1864 -0.3041
  256MOL   C12236332   1.209   5.757   2.356 -0.3646  0.6309 -0.2088
  256MOL   C12336333   1.087   5.717   2.286  0.3079  0.0274 -0.1103
  256MOL   N12436334   0.991   5.685   2.232 -0.3108 -0.1860  0.5168
  256MOL   H12536335   1.307   5.859   2.182  0.5289  0.8862 -0.2837
  256MOL   H12636336   1.384   5.888   2.333 -0.0731 -0.6536 -0.8275
  256MOL   H12736337   1.192   5.778   2.461  1.5912 -0.4985  0.3536
  256MOL   C12836338   1.307   5.637   2.356  0.3088  1.1185 -0.3234
  256MOL   C12936339   1.251   5.518   2.440  0.8484 -0.0117  0.4897
  256MOL   C13036340   1.288   5.383   2.389  0.8146  0.2605  0.3031
  256MOL   N13136341   1.312   5.278   2.345  0.1122  0.3106 -0.4741
  256MOL   H13236342   1.316   5.599   2.254  1.3308 -0.1213  0.2171
  256MOL   H13336343   1.413   5.653   2.371  0.6152 -1.9508  1.1227
  256MOL   H13436344   1.142   5.518   2.431  1.0428 -0.5527 -2.6309
  256MOL   C13536345   1.280   5.533   2.591  0.6908  0.4580  0.4592
  256MOL   C13636346   1.192   5.436   2.680 -0.6079 -0.3509 -0.0363
  256MOL   C13736347   1.261   5.432   2.807 -1.0824 -0.0504 -0.7582
  256MOL   N13836348   1.312   5.433   2.910  0.3528  0.3826  0.7074
  256MOL   H13936349   1.382   5.501   2.611  1.0961  1.7397  0.5052
  256MOL   H14036350   1.280   5.634   2.632  0.3797  0.3059  0.8406
  256MOL   H14136351   1.192   5.331   2.652  1.1691  0.7351 -4.5195
  256MOL   H14236352   1.092   5.478   2.687 -0.2971  0.4298 -0.1901
  257MOL     C136353   6.850   1.865   2.845 -0.3344 -0.3335 -0.1097
  257MOL     C236354   6.808   1.964   2.727 -0.0989  0.9384 -0.4286
  257MOL     C336355   6.700   1.898   2.655  0.7837  0.0986  0.1004
  257MOL     N436356   6.615   1.844   2.597  0.2665 -0.2124 -0.0121
  257MOL     H536357   6.910   1.909   2.925 -1.2104 -1.2703  1.0929
  257MOL     H636358   6.920   1.791   2.805  0.0841 -1.2447  2.2080
  257MOL     H736359   6.891   1.985   2.660  1.1936  0.0758  0.8789
  257MOL     H836360   6.765   1.820   2.896  1.0257 -2.3767  0.4459
  257MOL     C936361   6.762   2.104   2.776 -0.2109  1.0182 -0.7473
  257MOL    C1036362   6.733   2.197   2.656 -0.0162  0.8198 -0.0515
  257MOL    C1136363   6.612   2.280   2.678  0.2199 -0.1081 -0.2241
  257MOL    N1236364   6.514   2.346   2.696  0.2221  0.5846 -0.2069
  257MOL    H1336365   6.680   2.083   2.844  1.4813  1.0886  1.3823
  257MOL    H1436366   6.836   2.154   2.840  1.4347 -0.8734 -1.1037
  257MOL    H1536367   6.703   2.139   2.568 -0.2619  0.7671  0.0666
  257MOL    C1636368   6.861   2.274   2.612 -0.7061  0.1743 -0.2516
  257MOL    C1736369   6.851   2.345   2.471 -0.1778  0.9905 -0.9944
  257MOL    C1836370   6.758   2.457   2.479  0.0475 -0.3866 -0.5757
  257MOL    N1936371   6.687   2.549   2.491  0.1115  0.0904  0.3013
  257MOL    H2036372   6.885   2.355   2.680 -0.7496  1.9632 -2.3179
  257MOL    H2136373   6.947   2.208   2.625 -0.0457  0.9109 -0.8172
  257MOL    H2236374   6.802   2.268   2.412  0.2609  0.7282 -1.0118
  257MOL    C2336375   6.984   2.393   2.411 -0.1421  0.0942  0.1774
  257MOL    C2436376   7.042   2.531   2.456 -0.1345  0.6505 -1.2014
  257MOL    C2536377   7.058   2.561   2.604 -0.5634 -0.0325  0.7396
  257MOL    N2636378   7.078   2.592   2.713  0.1746  0.0476  0.0915
  257MOL    H2736379   7.061   2.316   2.425  0.2394 -0.0823 -2.6199
  257MOL    H2836380   6.967   2.397   2.304  0.8373 -1.8277 -0.0702
  257MOL    H2936381   6.962   2.602   2.436  0.3435  2.0355  1.5287
  257MOL    C3036382   7.168   2.574   2.382  0.4777 -0.6731 -0.4398
  257MOL    C3136383   7.221   2.724   2.410 -0.0427  0.1091 -0.1020
  257MOL    C3236384   7.104   2.814   2.439 -0.4588  0.3214  0.0900
  257MOL    N3336385   7.006   2.877   2.462 -0.2552  0.5722 -0.6062
  257MOL    H3436386   7.247   2.508   2.419  2.0662  1.1092 -0.6186
  257MOL    H3536387   7.155   2.561   2.275 -0.0785 -1.1854 -0.3177
  257MOL    H3636388   7.248   2.761   2.311 -0.2169 -1.1730 -0.6439
  257MOL    C3736389   7.352   2.727   2.496  0.3163  0.7678 -0.4390
  257MOL    C3836390   7.421   2.868   2.492  0.3662 -0.0690 -0.1894
  257MOL    C3936391   7.352   2.945   2.597 -0.2879  0.4120 -0.0924
  257MOL    N4036392   7.293   3.007   2.684  0.3727  0.0061 -0.2376
  257MOL    H4136393   7.325   2.698   2.598  2.5293 -0.1163 -0.0667
  257MOL    H4236394   7.424   2.654   2.459 -1.5306  0.2117 -3.0260
  257MOL    H4336395   7.411   2.916   2.395 -2.7469  0.4829  0.3646
  257MOL    C4436396   7.569   2.861   2.515 -0.2534  0.1909  0.2916
  257MOL    C4536397   7.614   2.839   2.661  0.4503 -0.3161  0.6627
  257MOL    C4636398   7.597   2.702   2.706  0.4809 -0.1061 -0.0910
  257MOL    N4736399   7.580   2.596   2.740  0.1208  0.8071 -0.3915
  257MOL    H4836400   7.614   2.780   2.458  0.0830  0.0740  0.7173
  257MOL    H4936401   7.606   2.957   2.479  0.2217 -0.4882 -1.0845
  257MOL    H5036402   7.553   2.893   2.733 -3.3798  0.0900 -2.7139
  257MOL    C5136403   7.765   2.876   2.656 -0.2596  0.0044 -0.0660
  257MOL    C5236404   7.850   2.851   2.783  0.1139 -0.1827  0.1565
  257MOL    C5336405   7.894   2.708   2.793  0.6190 -0.0737 -0.5063
  257MOL    N5436406   7.928   2.598   2.791 -0.2078 -0.6745 -0.0897
  257MOL    H5536407   7.808   2.821   2.573  1.6438  2.4972 -0.8233
  257MOL    H5636408   7.771   2.978   2.618 -0.1922 -0.0099 -0.0937
  257MOL    H5736409   7.778   2.869   2.863 -0.9016  1.4890 -1.0774
  257MOL    C5836410   7.965   2.951   2.791  0.4810  0.8187 -0.2460
  257MOL    C5936411   7.927   3.091   2.840 -0.0140  0.9841  1.0702
  257MOL    C6036412   7.875   3.079   2.980  0.1258  0.2595 -0.9580
  257MOL    N6136413   7.840   3.076   3.093  0.0600  0.1759  0.2387
  257MOL    H6236414   8.039   2.901   2.853  0.5462 -0.4069 -1.3035
  257MOL    H6336415   8.018   2.958   2.697  1.3562 -0.3533  0.1420
  257MOL    H6436416   7.828   3.118   2.803 -0.7695 -2.8961 -0.0056
  257MOL    C6536417   8.023   3.212   2.832  0.5471  0.0268  0.4538
  257MOL    C6636418   8.047   3.254   2.683  0.2028  0.1563 -0.3328
  257MOL    C6736419   7.928   3.306   2.622  0.2787  0.1956  0.4874
  257MOL    N6836420   7.836   3.354   2.568 -0.5764 -0.3277 -0.0930
  257MOL    H6936421   7.979   3.293   2.889  1.3543  0.7520  0.0519
  257MOL    H7036422   8.121   3.194   2.877 -0.4754  2.3194  3.7530
  257MOL    H7136423   8.079   3.166   2.627  1.3490 -0.6902  1.5979
  257MOL    C7236424   8.169   3.342   2.656 -0.4658 -0.2864  0.7553
  257MOL    C7336425   8.149   3.498   2.656 -0.1005  0.6198 -0.3720
  257MOL    C7436426   8.052   3.544   2.759 -0.3438  0.5592  0.0215
  257MOL    N7536427   7.975   3.572   2.840  0.0572  0.9101  0.7363
  257MOL    H7636428   8.247   3.310   2.725 -1.8595 -1.9935  1.5798
  257MOL    H7736429   8.220   3.317   2.564 -2.1780  0.2017 -0.3539
  257MOL    H7836430   8.101   3.523   2.562  0.8247  1.0603 -0.7309
  257MOL    C7936431   8.274   3.582   2.671  0.2683 -0.4086  0.7925
  257MOL    C8036432   0.000   3.606   2.820 -0.5043 -0.1913  0.3671
  257MOL    C8136433   8.310   3.488   2.910  0.1865 -0.5750 -0.4530
  257MOL    N8236434   8.303   3.398   2.982 -0.3016  0.5958 -0.5061
  257MOL    H8336435   0.039   3.520   2.627 -0.0153  0.0657 -0.3999
  257MOL    H8436436   8.272   3.674   2.613 -0.2938 -0.3475  0.9096
  257MOL    H8536437   8.229   3.668   2.853 -0.9253 -1.5820  1.9544
  257MOL    C8636438   0.132   3.693   2.834  0.0848  0.3974 -0.5554
  257MOL    C8736439   0.170   3.736   2.973  0.0228 -0.2977  0.1254
  257MOL    C8836440   0.289   3.820   2.965 -1.2697  0.2709  0.1429
  257MOL    N8936441   0.385   3.882   2.960 -0.1791  0.3060 -0.5611
  257MOL    H9036442   0.215   3.643   2.783 -0.7725 -0.7562 -0.8206
  257MOL    H9136443   0.127   3.783   2.773  1.1181  0.7271 -0.1821
  257MOL    H9236444   0.200   3.649   3.031 -0.1738 -1.5151 -1.5533
  257MOL    C9336445   0.059   3.811   3.050  0.0060 -0.3253  0.2146
  257MOL    C9436446   0.095   3.896   3.173  0.5010 -0.1699 -0.2248
  257MOL    C9536447   8.292   3.977   3.228  0.3601 -0.3295 -0.8205
  257MOL    N9636448   8.198   4.026   3.275 -0.2736  0.0675  0.5020
  257MOL    H9736449   0.016   3.888   2.986  1.7328  0.4124 -0.0841
  257MOL    H9836450   8.292   3.740   3.073  1.1662 -1.3451  1.1261
  257MOL    H9936451   0.155   3.977   3.130 -0.3107  0.7699  0.3849
  257MOL   C10036452   0.172   3.817   3.286 -0.4029 -0.5359 -0.0049
  257MOL   C10136453   0.197   3.899   3.418  0.0462  0.3046  0.0287
  257MOL   C10236454   0.222   3.812   3.532 -0.1641  0.0159 -0.5721
  257MOL   N10336455   0.252   3.744   3.623  0.0997 -0.6114 -0.3390
  257MOL   H10436456   0.108   3.738   3.323 -2.1656  0.0538 -1.7286
  257MOL   H10536457   0.262   3.775   3.242  0.4137 -0.2788  1.3821
  257MOL   H10636458   0.104   3.947   3.445 -0.9843 -0.1673 -2.5146
  257MOL   C10736459   0.296   4.019   3.405 -0.2026  0.3101  0.0957
  257MOL   C10836460   0.325   4.112   3.536 -0.6024  0.3957 -0.8636
  257MOL   C10936461   0.430   4.047   3.618 -0.6737 -0.4270 -1.0639
  257MOL   N11036462   0.512   3.990   3.681  0.0230 -0.0366 -0.4263
  257MOL   H11136463   0.386   3.977   3.360 -0.5030 -1.4562  1.0800
  257MOL   H11236464   0.250   4.085   3.332  2.4373  0.5717 -1.3889
  257MOL   H11336465   0.237   4.132   3.598  0.0611 -1.2218  0.6610
  257MOL   C11436466   0.364   4.249   3.483 -0.1304  0.1908 -0.1064
  257MOL   C11536467   0.506   4.259   3.423 -0.0507 -0.1217  0.1661
  257MOL   C11636468   0.534   4.190   3.297 -0.2288  0.1968  0.1351
  257MOL   N11736469   0.560   4.143   3.196  0.2729 -0.0482  0.0346
  257MOL   H11836470   0.297   4.291   3.408  0.6104 -2.6096 -2.3959
  257MOL   H11936471   0.339   4.315   3.567  2.8425  0.5175  0.5690
  257MOL   H12036472   0.573   4.219   3.500 -0.1044  1.9015  1.3025
  257MOL   C12136473   0.554   4.406   3.402 -0.3054  0.1931  0.0657
  257MOL   C12236474   0.705   4.431   3.435  1.0164 -0.0670  0.1701
  257MOL   C12336475   0.798   4.341   3.366 -0.5853  0.1715  0.3046
  257MOL   N12436476   0.866   4.263   3.312  0.1185  0.1326 -0.1938
  257MOL   H12536477   0.532   4.451   3.305 -0.2791  0.9429  0.4048
  257MOL   H12636478   0.495   4.464   3.473 -0.0491  0.8204 -0.2345
  257MOL   H12736479   0.722   4.395   3.537  0.0694 -0.1450  0.3075
  257MOL   C12836480   0.735   4.582   3.441 -0.3105 -0.3655 -0.2109
  257MOL   C12936481   0.868   4.619   3.505  0.3780  1.1601 -0.4175
  257MOL   C13036482   0.984   4.564   3.440 -0.2642  0.6439 -0.2156
  257MOL   N13136483   1.075   4.512   3.391 -0.6848 -0.3059 -0.6697
  257MOL   H13236484   0.738   4.629   3.343 -0.5214 -1.1861 -0.6218
  257MOL   H13336485   0.659   4.624   3.507 -1.0088  0.1034 -1.2980
  257MOL   H13436486   0.868   4.576   3.605 -1.0712  1.7447 -0.1565
  257MOL   C13536487   0.876   4.774   3.536 -0.0126  0.5384 -0.3398
  257MOL   C13636488   0.993   4.842   3.604  0.6649  0.6668 -0.0749
  257MOL   C13736489   1.120   4.817   3.544  0.4006 -0.6446 -0.4772
  257MOL   N13836490   1.223   4.804   3.498  0.7320  0.0415  0.6863
  257MOL   H13936491   0.849   4.835   3.450 -0.6333 -2.1028 -2.0961
  257MOL   H14036492   0.794   4.797   3.604  0.3236  0.5805  0.0534
  257MOL   H14136493   1.008   4.802   3.704  0.5757 -1.5741 -0.9298
  257MOL   H14236494   0.977   4.950   3.607 -0.2262  0.5870 -1.5014
  258MOL     C136495   5.992   2.983   6.402  0.4375  0.1105 -0.0258
  258MOL     C236496   6.100   3.059   6.331 -0.3729  0.2559  0.3516
  258MOL     C336497   6.233   2.988   6.339  0.0702 -0.0930 -0.1445
  258MOL     N436498   6.329   2.926   6.347  0.3417 -0.6935  0.5089
  258MOL     H536499   5.893   3.030   6.408 -0.7429 -2.1846 -0.9921
  258MOL     H636500   6.021   2.968   6.506 -2.4433 -0.4756  0.7420
  258MOL     H736501   6.105   3.160   6.371 -2.1065  0.6315 -0.3596
  258MOL     H836502   5.987   2.879   6.370  1.1282 -0.5748  2.0163
  258MOL     C936503   6.073   3.057   6.179 -0.1423  0.4673  0.2366
  258MOL    C1036504   5.949   3.142   6.125  0.3727 -0.2806 -0.4082
  258MOL    C1136505   5.964   3.287   6.164 -0.6879  0.0324 -0.6488
  258MOL    N1236506   5.973   3.400   6.184 -0.4033 -0.8593 -0.0869
  258MOL    H1336507   6.164   3.074   6.122 -0.7171  1.1143 -0.4939
  258MOL    H1436508   6.062   2.951   6.153 -0.3985  0.8060 -1.0419
  258MOL    H1536509   5.860   3.108   6.179 -1.2793  0.6012 -2.5388
  258MOL    C1636510   5.904   3.106   5.977  0.4316 -0.3499  0.0221
  258MOL    C1736511   5.965   3.179   5.855 -0.1674  0.4737  0.2697
  258MOL    C1836512   6.115   3.165   5.844  0.1042  0.0540 -0.3391
  258MOL    N1936513   6.231   3.152   5.831 -0.0266 -0.3246 -0.0656
  258MOL    H2036514   5.895   2.997   5.968  0.5904 -0.5122  1.7763
  258MOL    H2136515   5.799   3.134   5.969  0.4488 -0.5710 -1.1043
  258MOL    H2236516   5.952   3.284   5.882 -1.6197  0.6983 -1.2706
  258MOL    C2336517   5.902   3.151   5.717 -0.5797  0.0687 -0.4007
  258MOL    C2436518   5.976   3.047   5.626  0.5812  0.0479 -0.3576
  258MOL    C2536519   5.990   2.911   5.691 -0.2597 -0.0082 -0.4236
  258MOL    N2636520   5.994   2.806   5.741 -0.1076  0.4647  0.4870
  258MOL    H2736521   5.795   3.131   5.722 -0.5570 -0.2632 -1.1442
  258MOL    H2836522   5.922   3.241   5.658  0.1777  0.0424 -0.1963
  258MOL    H2936523   6.079   3.079   5.613  0.5737  0.0947 -0.3075
  258MOL    C3036524   5.912   3.040   5.480 -0.2021  0.4276  0.4578
  258MOL    C3136525   5.961   2.920   5.400  0.2827 -0.2841  1.2390
  258MOL    C3236526   5.902   2.918   5.269 -0.5221  0.3142 -0.0187
  258MOL    N3336527   5.848   2.919   5.164  0.4396  0.0444 -0.4566
  258MOL    H3436528   5.804   3.024   5.475  0.2826 -2.5308 -2.2267
  258MOL    H3536529   5.941   3.131   5.429  1.6537  0.1148  0.9111
  258MOL    H3636530   5.925   2.830   5.451 -2.1366  1.5191  2.7897
  258MOL    C3736531   6.116   2.920   5.383 -0.2510  0.7334 -0.4284
  258MOL    C3836532   6.170   2.815   5.280 -0.3797  0.6396 -0.0708
  258MOL    C3936533   6.308   2.847   5.242  0.1589  0.3285  0.1015
  258MOL    N4036534   6.419   2.873   5.218 -0.3547 -0.3601  0.5035
  258MOL    H4136535   6.141   3.020   5.349  0.2230  0.5997 -0.4778
  258MOL    H4236536   6.171   2.904   5.475  1.1917 -0.2816 -1.4508
  258MOL    H4336537   6.126   2.828   5.182  2.0617 -3.1321 -1.8109
  258MOL    C4436538   6.176   2.666   5.338 -0.1191 -0.2162 -0.0626
  258MOL    C4536539   6.204   2.570   5.222 -0.2487  0.5282 -0.5184
  258MOL    C4636540   6.263   2.441   5.273  0.2280  0.5368 -0.4021
  258MOL    N4736541   6.301   2.341   5.314 -0.5397 -0.6616 -0.5238
  258MOL    H4836542   6.265   2.650   5.399 -0.9995  0.2534  1.3692
  258MOL    H4936543   6.086   2.633   5.391  0.9333 -0.1914  1.7743
  258MOL    H5036544   6.288   2.613   5.167 -0.1503  0.2141 -0.6132
  258MOL    C5136545   6.078   2.554   5.129 -0.8300  0.0168 -0.4646
  258MOL    C5236546   6.011   2.421   5.124  0.0163  0.0456 -0.3087
  258MOL    C5336547   5.961   2.386   5.259 -0.0221  0.0785 -0.6636
  258MOL    N5436548   5.921   2.350   5.365 -0.2764  0.1647 -0.2978
  258MOL    H5536549   6.008   2.633   5.155 -0.6804  0.6278 -1.8717
  258MOL    H5636550   6.113   2.579   5.029 -1.8921  1.2330 -0.5423
  258MOL    H5736551   6.088   2.349   5.095  0.3439  0.5003 -0.5613
  258MOL    C5836552   5.889   2.406   5.027 -0.6965  0.0999 -0.4775
  258MOL    C5936553   5.918   2.446   4.882 -0.0469  1.1188 -0.3231
  258MOL    C6036554   6.046   2.382   4.831  0.2351  0.4180  0.0559
  258MOL    N6136555   6.142   2.334   4.802  0.0665  0.0974  0.3931
  258MOL    H6236556   5.852   2.304   5.023  0.5392 -0.3338 -0.7756
  258MOL    H6336557   5.803   2.471   5.049  0.8301  3.3201 -3.5791
  258MOL    H6436558   5.934   2.553   4.877  0.8359  1.0181  0.3178
  258MOL    C6536559   5.801   2.412   4.786 -0.1129  0.2444 -0.1723
  258MOL    C6636560   5.656   2.453   4.830  0.3890  1.3080  0.0739
  258MOL    C6736561   5.647   2.591   4.866  0.1313 -0.4316 -0.3156
  258MOL    N6836562   5.635   2.703   4.896  0.0740  0.2762 -0.7335
  258MOL    H6936563   5.827   2.453   4.688  0.1592 -1.5062 -0.8498
  258MOL    H7036564   5.797   2.306   4.763 -1.0169  0.3982 -0.7765
  258MOL    H7136565   5.631   2.402   4.923 -2.3154  0.2476 -1.1933
  258MOL    C7236566   5.555   2.416   4.715 -0.1471  0.0551  0.9074
  258MOL    C7336567   5.421   2.485   4.719  0.0418 -0.4478 -0.4416
  258MOL    C7436568   5.368   2.518   4.585  0.4204  0.2195  0.4767
  258MOL    N7536569   5.330   2.553   4.476  0.1240  0.2819 -0.2833
  258MOL    H7636570   5.599   2.440   4.618 -1.4947 -0.6004  0.1159
  258MOL    H7736571   5.545   2.308   4.708 -0.4763  0.1299  0.1216
  258MOL    H7836572   5.427   2.586   4.760 -0.7868  0.8546 -3.4076
  258MOL    C7936573   5.314   2.407   4.803 -0.2789  0.2839  0.6002
  258MOL    C8036574   5.171   2.476   4.802 -0.3434 -0.8966 -0.1066
  258MOL    C8136575   5.186   2.619   4.795 -0.2544 -0.0601  0.5714
  258MOL    N8236576   5.198   2.734   4.786 -0.5091  0.1529 -0.7885
  258MOL    H8336577   5.296   2.306   4.767  2.8772  0.0786 -0.5503
  258MOL    H8436578   5.354   2.391   4.903  2.9424 -0.4879 -0.7605
  258MOL    H8536579   5.122   2.442   4.892  0.2899 -0.3796  0.4382
  258MOL    C8636580   5.075   2.417   4.703  0.3241 -0.6361  0.2821
  258MOL    C8736581   4.925   2.421   4.735 -0.4640 -0.7117 -0.0721
  258MOL    C8836582   4.864   2.553   4.742  0.3889  0.1018  0.5216
  258MOL    N8936583   4.814   2.651   4.745 -0.1119 -0.5242 -0.0095
  258MOL    H9036584   5.095   2.467   4.609  0.9814 -0.1149  0.7020
  258MOL    H9136585   5.103   2.313   4.683 -0.0853 -0.7569  0.3231
  258MOL    H9236586   4.912   2.374   4.833 -1.7206  0.4014  0.3188
  258MOL    C9336587   4.835   2.336   4.640  0.1223 -0.5629  0.3385
  258MOL    C9436588   4.803   2.409   4.504 -0.4851 -0.2143  0.0219
  258MOL    C9536589   4.926   2.427   4.417 -0.2480  0.0940  0.2296
  258MOL    N9636590   5.019   2.446   4.345 -0.1857  0.0211 -0.6546
  258MOL    H9736591   4.893   2.246   4.617 -0.1459 -0.5544 -0.3775
  258MOL    H9836592   4.744   2.309   4.693 -0.1621 -3.9721 -1.7717
  258MOL    H9936593   4.772   2.513   4.515  0.2227 -0.0650  0.6739
  258MOL   C10036594   4.682   2.349   4.430  0.3144  1.1711 -0.4289
  258MOL   C10136595   4.714   2.223   4.354 -0.5718  0.5558  0.8056
  258MOL   C10236596   4.745   2.116   4.448  0.4242  1.2350 -0.6605
  258MOL   N10336597   4.773   2.032   4.522  0.3564 -0.8232  0.0003
  258MOL   H10436598   4.591   2.338   4.490 -0.9227  2.2757 -2.0379
  258MOL   H10536599   4.648   2.426   4.360 -0.5961  0.8973 -0.3052
  258MOL   H10636600   4.806   2.243   4.299 -0.9021  0.6747  0.2985
  258MOL   C10736601   4.608   2.169   4.250  0.0721 -0.6667  0.1459
  258MOL   C10836602   4.554   2.275   4.144 -0.2806 -0.1419  0.3236
  258MOL   C10936603   4.672   2.351   4.097  0.2744  0.2451  0.9192
  258MOL   N11036604   4.772   2.405   4.065 -0.4786 -0.1436 -0.7640
  258MOL   H11136605   4.655   2.091   4.190 -2.2509 -0.7744 -1.6433
  258MOL   H11236606   4.531   2.112   4.302 -0.5729 -1.7863 -1.9838
  258MOL   H11336607   4.506   2.357   4.198  0.7122  1.1612 -0.7421
  258MOL   C11436608   4.472   2.213   4.024  0.6217 -0.6255 -0.2971
  258MOL   C11536609   4.400   2.319   3.934  0.4563 -0.2316  0.3059
  258MOL   C11636610   4.489   2.418   3.867 -0.0004 -0.4435  0.5758
  258MOL   N11736611   4.563   2.491   3.817  0.3842  0.0573 -0.1660
  258MOL   H11836612   4.531   2.149   3.958  1.5108  0.0709 -0.1877
  258MOL   H11936613   4.388   2.151   4.056 -0.2545  0.5203 -0.3538
  258MOL   H12036614   4.332   2.369   4.003  1.1944 -0.1459  0.9729
  258MOL   C12136615   4.301   2.258   3.830 -0.1151 -0.8124 -0.5531
  258MOL   C12236616   4.344   2.278   3.676  0.3108 -0.1459  0.0235
  258MOL   C12336617   4.475   2.227   3.656 -0.2362 -0.4430 -1.0188
  258MOL   N12436618   4.585   2.188   3.636 -0.0347 -0.0268  0.2571
  258MOL   H12536619   4.295   2.151   3.851 -0.7615 -0.4671  1.0990
  258MOL   H12636620   4.199   2.295   3.836 -0.1577 -0.5509 -2.6270
  258MOL   H12736621   4.351   2.383   3.647 -0.0167 -0.2516 -0.4446
  258MOL   C12836622   4.235   2.225   3.577  0.2430  0.7943  0.6391
  258MOL   C12936623   4.233   2.074   3.552 -0.5143 -0.2949 -0.1666
  258MOL   C13036624   4.213   1.991   3.672 -0.2689 -0.0031  0.0409
  258MOL   N13136625   4.193   1.929   3.768 -0.6619 -0.2286 -0.5286
  258MOL   H13236626   4.138   2.258   3.614 -0.9952 -1.0968 -0.7804
  258MOL   H13336627   4.239   2.268   3.477 -0.7811 -1.4478 -0.4004
  258MOL   H13436628   4.332   2.035   3.529 -0.1399 -0.5576  1.8380
  258MOL   C13536629   4.133   2.025   3.439  0.5529 -0.3092 -0.6623
  258MOL   C13636630   4.099   1.876   3.461  0.0567  0.2215  0.5270
  258MOL   C13736631   3.991   1.828   3.376  0.3552 -0.3060 -0.6471
  258MOL   N13836632   3.903   1.784   3.315 -0.1440 -0.3065 -0.5279
  258MOL   H13936633   4.041   2.082   3.453  1.3268  0.8517 -0.2748
  258MOL   H14036634   4.176   2.047   3.341 -1.7173  0.1165 -1.5854
  258MOL   H14136635   4.055   1.864   3.559  1.7212 -2.9415  0.9352
  258MOL   H14236636   4.189   1.815   3.452  1.2590  1.8864  0.9762
  259MOL     C136637   1.705   0.409   4.566  0.4747 -0.1956  0.3876
  259MOL     C236638   1.590   0.491   4.502  0.2697 -0.5230 -0.7278
  259MOL     C336639   1.601   0.468   4.361  0.5493  0.2164  0.2223
  259MOL     N436640   1.615   0.441   4.248  0.5102 -0.1755  0.4329
  259MOL     H536641   1.691   0.301   4.572  0.9863 -0.2804  0.0699
  259MOL     H636642   1.717   0.445   4.668  0.7448  3.7401 -0.9577
  259MOL     H736643   1.614   0.597   4.507  0.5537 -0.4342 -3.2302
  259MOL     H836644   1.800   0.435   4.520  0.8747 -2.3498 -0.0446
  259MOL     C936645   1.446   0.463   4.560 -0.0637  0.4702  0.6418
  259MOL    C1036646   1.445   0.484   4.713  0.3256 -0.2641  0.3670
  259MOL    C1136647   1.472   0.625   4.731 -0.7322  0.5385  0.0905
  259MOL    N1236648   1.501   0.735   4.736 -0.4495 -0.4894 -0.0478
  259MOL    H1336649   1.379   0.526   4.501  0.9801  0.8637 -0.1582
  259MOL    H1436650   1.427   0.358   4.537 -0.6823  0.5795  0.6438
  259MOL    H1536651   1.520   0.426   4.766  0.8548 -0.0955 -0.1906
  259MOL    C1636652   1.309   0.445   4.772 -0.0973 -0.7623 -0.4441
  259MOL    C1736653   1.287   0.295   4.803 -0.3142  0.0757  0.5270
  259MOL    C1836654   1.394   0.261   4.896  0.0823 -0.1701  0.0103
  259MOL    N1936655   1.480   0.242   4.978 -0.3795  0.5979 -0.6140
  259MOL    H2036656   1.298   0.490   4.871 -0.7387 -0.9417 -0.4352
  259MOL    H2136657   1.231   0.485   4.707 -0.3003 -1.8356 -0.8651
  259MOL    H2236658   1.299   0.233   4.714  1.4764  0.3722  0.5276
  259MOL    C2336659   1.150   0.265   4.865  0.2637 -0.9979 -0.0297
  259MOL    C2436660   1.103   0.120   4.878 -0.4329  0.5091 -0.3927
  259MOL    C2536661   1.179   0.050   4.981  0.4596 -0.3342 -0.4540
  259MOL    N2636662   1.237   8.302   5.059 -0.0848  0.1921 -0.1182
  259MOL    H2736663   1.140   0.322   4.957  3.1545  1.0661 -0.9222
  259MOL    H2836664   1.070   0.311   4.805 -1.4384 -0.4064  2.5917
  259MOL    H2936665   1.114   0.079   4.777  0.1341 -2.0288  0.6469
  259MOL    C3036666   0.953   0.124   4.907 -0.1146 -0.4110 -0.3445
  259MOL    C3136667   0.872   8.307   4.922  0.0352  0.2168  0.9256
  259MOL    C3236668   0.888   8.231   4.802 -0.5332  0.1704  0.1014
  259MOL    N3336669   0.902   8.171   4.699 -0.5923 -0.4691 -0.5205
  259MOL    H3436670   0.929   0.180   4.997 -0.9060 -2.9803  1.1013
  259MOL    H3536671   0.899   0.179   4.830 -2.1256 -1.1810  0.4746
  259MOL    H3636672   0.764   0.006   4.929  0.3841  2.7564  2.8610
  259MOL    C3736673   0.916   8.235   5.045 -0.5180 -0.5589  0.9682
  259MOL    C3836674   0.795   8.161   5.107 -0.3083 -0.2842  0.1193
  259MOL    C3936675   0.756   8.048   5.027  0.3688 -0.2460 -0.2225
  259MOL    N4036676   0.724   7.960   4.957 -0.0771 -0.2653 -0.0459
  259MOL    H4136677   0.999   8.170   5.019  0.5505  1.0280  0.3856
  259MOL    H4236678   0.960   8.295   5.124 -0.7616  4.0510 -2.2206
  259MOL    H4336679   0.713   8.233   5.113  2.5387  2.8717  2.3822
  259MOL    C4436680   0.817   8.113   5.251 -0.2385 -0.5135  0.2199
  259MOL    C4536681   0.946   8.028   5.267  0.3976  0.1102  0.3490
  259MOL    C4636682   0.976   8.027   5.415 -0.8727 -0.0364  0.5189
  259MOL    N4736683   1.001   8.027   5.525 -0.0320 -0.5280 -0.7391
  259MOL    H4836684   0.834   8.204   5.309 -0.8159  0.2933 -0.8569
  259MOL    H4936685   0.723   8.069   5.285 -1.5219  0.9036 -1.4082
  259MOL    H5036686   1.030   8.089   5.232  1.0362  0.7405  2.9101
  259MOL    C5136687   0.942   7.886   5.209 -0.1961  0.1333  0.5319
  259MOL    C5236688   1.046   7.866   5.094 -0.3513 -0.2283 -0.3144
  259MOL    C5336689   1.178   7.889   5.156 -0.2385  0.5876 -0.6699
  259MOL    N5436690   1.279   7.914   5.209 -0.0370  0.2207  0.3890
  259MOL    H5536691   0.971   7.807   5.279  0.4005 -0.2533 -0.1444
  259MOL    H5636692   0.840   7.859   5.180 -0.1744  0.5433  0.0598
  259MOL    H5736693   1.045   7.949   5.022  1.0328  0.5010  0.4847
  259MOL    C5836694   1.040   7.732   5.022  0.6750  0.0066  0.0258
  259MOL    C5936695   1.126   7.706   4.892  0.0946 -0.7744 -0.9607
  259MOL    C6036696   1.269   7.709   4.918 -0.3248  0.2405 -0.0251
  259MOL    N6136697   1.383   7.716   4.937  0.6070  0.7746  0.3320
  259MOL    H6236698   1.060   7.658   5.100 -2.3783 -0.9487 -0.0426
  259MOL    H6336699   0.936   7.709   5.002  1.0068 -2.4882  0.8967
  259MOL    H6436700   1.091   7.784   4.825  2.7213  1.1605 -0.1621
  259MOL    C6536701   1.097   7.570   4.828  0.2626 -0.0123  0.4093
  259MOL    C6636702   0.977   7.565   4.727 -0.4132 -0.2035 -0.0637
  259MOL    C6736703   0.971   7.672   4.627  0.3643  0.5050  0.3185
  259MOL    N6836704   0.966   7.756   4.553 -0.2930 -0.3346  0.2475
  259MOL    H6936705   1.183   7.534   4.771  0.4231 -0.6366  1.0400
  259MOL    H7036706   1.081   7.499   4.909  0.9917  0.4818  1.0041
  259MOL    H7136707   0.884   7.596   4.775 -0.1107  0.8597 -0.1633
  259MOL    C7236708   0.959   7.429   4.650  0.4794  0.2536 -0.4996
  259MOL    C7336709   0.968   7.303   4.741  0.1811 -0.4378 -0.5782
  259MOL    C7436710   0.875   7.312   4.849 -0.4423  0.0438  0.3688
  259MOL    N7536711   0.800   7.316   4.934  0.5690 -0.0751  0.0525
  259MOL    H7636712   0.864   7.432   4.596 -0.5138  0.7511  1.2302
  259MOL    H7736713   1.041   7.429   4.578 -0.8783 -0.1451 -2.0646
  259MOL    H7836714   1.066   7.290   4.786  0.7815  0.4556 -1.5871
  259MOL    C7936715   0.964   7.172   4.658  0.3524 -0.3251 -0.4626
  259MOL    C8036716   0.936   7.037   4.725  0.2215 -0.5341 -0.4645
  259MOL    C8136717   0.795   7.026   4.760 -0.0649 -0.2033  0.0160
  259MOL    N8236718   0.683   7.017   4.784  0.8910 -0.4415  0.1614
  259MOL    H8336719   0.889   7.176   4.578 -0.4482 -2.5202  0.1312
  259MOL    H8436720   1.059   7.165   4.605 -0.0079 -0.7792 -1.0529
  259MOL    H8536721   0.991   7.037   4.818 -0.8540 -1.5544  0.1890
  259MOL    C8636722   0.997   6.915   4.636 -0.4575 -0.1202  0.2095
  259MOL    C8736723   1.020   6.780   4.709  0.1349  0.1661 -0.1267
  259MOL    C8836724   0.903   6.714   4.754 -0.1591  0.5131 -0.3196
  259MOL    N8936725   0.809   6.653   4.789 -0.1969  0.0201  0.2952
  259MOL    H9036726   0.931   6.900   4.551 -0.8095 -0.3370  0.5150
  259MOL    H9136727   1.087   6.945   4.583 -0.3975 -0.4183  0.1398
  259MOL    H9236728   1.080   6.804   4.797  2.2950 -1.5752 -1.0947
  259MOL    C9336729   1.101   6.692   4.616 -0.0197 -0.1685  0.2895
  259MOL    C9436730   1.128   6.551   4.674  1.0151 -0.7006  0.5083
  259MOL    C9536731   1.168   6.454   4.571 -0.2570 -0.0035  0.1665
  259MOL    N9636732   1.204   6.376   4.495 -0.0932 -0.5372 -0.0922
  259MOL    H9736733   1.065   6.685   4.513  0.8427  0.5195 -0.0638
  259MOL    H9836734   1.196   6.740   4.597 -0.7166  0.6941 -1.1471
  259MOL    H9936735   1.033   6.505   4.701  0.0509  1.4491  0.8998
  259MOL   C10036736   1.220   6.545   4.795 -0.3963  1.3750 -0.2202
  259MOL   C10136737   1.252   6.416   4.861  0.3171 -0.4193  0.3250
  259MOL   C10236738   1.345   6.443   4.968  0.1938  0.4665 -0.4489
  259MOL   N10336739   1.421   6.457   5.052 -0.2636  0.7689 -0.2920
  259MOL   H10436740   1.315   6.586   4.760  0.5109 -0.2172  0.3652
  259MOL   H10536741   1.179   6.604   4.877 -1.9367  2.2362 -1.5681
  259MOL   H10636742   1.312   6.346   4.805  1.2543  0.2809  0.4373
  259MOL   C10736743   1.134   6.332   4.903 -0.2529  0.3658 -0.4320
  259MOL   C10836744   1.173   6.203   4.972  0.5832 -0.8129 -0.3278
  259MOL   C10936745   1.052   6.142   5.034  0.1065  0.0487  0.0504
  259MOL   N11036746   0.952   6.103   5.085 -0.4665  0.0328  0.2741
  259MOL   H11136747   1.079   6.390   4.976  0.6882  0.9680 -0.2091
  259MOL   H11236748   1.075   6.308   4.814  0.9951 -0.7164 -0.9855
  259MOL   H11336749   1.235   6.233   5.056 -0.1066  0.2010 -0.1579
  259MOL   C11436750   1.244   6.104   4.874  0.2006  0.2321  0.1913
  259MOL   C11536751   1.265   5.958   4.910  0.3547  0.6622  0.0185
  259MOL   C11636752   1.141   5.874   4.897  0.3486  0.0292 -0.3139
  259MOL   N11736753   1.041   5.817   4.885  0.7765  0.1733 -0.2377
  259MOL   H11836754   1.208   6.105   4.771 -0.1796  2.9866  0.3256
  259MOL   H11936755   1.344   6.147   4.862 -0.0183  0.1817 -2.0932
  259MOL   H12036756   1.293   5.956   5.015  0.0268  0.7427  0.1090
  259MOL   C12136757   1.382   5.884   4.841  0.6443 -0.2395 -0.4763
  259MOL   C12236758   1.522   5.948   4.832  0.0272  0.2196  0.5340
  259MOL   C12336759   1.556   6.003   4.962  0.1694  0.2455  0.3094
  259MOL   N12436760   1.580   6.054   5.064 -0.3049 -0.0733 -0.6838
  259MOL   H12536761   1.387   5.781   4.875  0.0628 -0.3881 -0.8353
  259MOL   H12636762   1.352   5.865   4.738  0.2710  1.0561 -0.6154
  259MOL   H12736763   1.513   6.036   4.768 -0.7310 -1.0077 -1.0900
  259MOL   C12836764   1.618   5.847   4.765  0.5690 -0.2498 -0.2122
  259MOL   C12936765   1.752   5.903   4.716  0.4131  0.8144  0.5947
  259MOL   C13036766   1.829   5.972   4.819 -0.6326  0.2969  0.2164
  259MOL   N13136767   1.889   6.030   4.900  0.0385 -0.1795 -0.4871
  259MOL   H13236768   1.637   5.779   4.848 -2.9599  0.8178  1.5751
  259MOL   H13336769   1.557   5.805   4.685 -1.2769  0.1308  0.9449
  259MOL   H13436770   1.725   5.979   4.643 -4.0063  0.0991  1.3204
  259MOL   C13536771   1.839   5.798   4.646 -0.0351  0.2060  0.3901
  259MOL   C13636772   1.940   5.845   4.540 -0.1590  0.2483  0.0596
  259MOL   C13736773   2.049   5.927   4.583 -0.5939 -0.9523 -0.2788
  259MOL   N13836774   2.135   5.998   4.619  0.2886 -0.0202  0.0524
  259MOL   H13936775   1.892   5.740   4.721  1.2064  0.3347 -0.3716
  259MOL   H14036776   1.785   5.723   4.588  0.1876  0.5966 -0.3275
  259MOL   H14136777   1.888   5.895   4.459  1.0362 -1.5188 -1.8263
  259MOL   H14236778   1.972   5.756   4.487 -0.5842 -1.3632  2.4294
  260MOL     C136779   5.489   5.167   8.097  0.0800 -0.0315  0.3167
  260MOL     C236780   5.511   5.025   8.056 -0.3532 -0.1303  0.0928
  260MOL     C336781   5.618   4.960   8.137  0.5275  0.1120  0.9049
  260MOL     N436782   5.693   4.910   8.204  0.2226 -0.0465  0.1354
  260MOL     H536783   5.450   5.167   8.199 -2.3995  0.8478 -0.5636
  260MOL     H636784   5.427   5.229   8.032  2.1946  1.5652 -0.2114
  260MOL     H736785   5.549   5.018   7.954  2.4831 -1.9725  1.2231
  260MOL     H836786   5.583   5.221   8.092  0.5004 -0.5974  2.0001
  260MOL     C936787   5.383   4.936   8.071  0.7554  0.3957 -0.3337
  260MOL    C1036788   5.274   4.968   7.966 -0.2858 -0.3796  0.0844
  260MOL    C1136789   5.336   4.977   7.830 -0.1602 -0.3441  0.0612
  260MOL    N1236790   5.388   4.982   7.726  0.3381 -0.4598 -0.6462
  260MOL    H1336791   5.406   4.829   8.070 -0.7782  0.0328  0.5549
  260MOL    H1436792   5.353   4.947   8.176  2.5693 -1.1484  0.3754
  260MOL    H1536793   5.245   5.073   7.971  1.1626  0.0793 -0.7915
  260MOL    C1636794   5.152   4.879   7.969 -1.0205  0.2751  0.4843
  260MOL    C1736795   5.035   4.962   7.904 -0.1611 -0.3735  0.4840
  260MOL    C1836796   5.046   4.948   7.761 -0.2208  0.0780  0.7205
  260MOL    N1936797   5.051   4.936   7.644 -0.2513  0.2447  0.1315
  260MOL    H2036798   5.166   4.783   7.919 -1.8493  0.8960 -0.9785
  260MOL    H2136799   5.138   4.845   8.071  0.0699 -2.5038 -0.2542
  260MOL    H2236800   5.050   5.069   7.916  1.8632 -0.6611  0.6497
  260MOL    C2336801   4.894   4.922   7.956  0.2347  0.5988 -0.6756
  260MOL    C2436802   4.827   4.801   7.896 -0.3311 -0.2550  0.1067
  260MOL    C2536803   4.784   4.802   7.755  0.1183  0.3289  0.7108
  260MOL    N2636804   4.747   4.799   7.643  0.2839 -0.9165  0.9892
  260MOL    H2736805   4.894   4.906   8.064  1.1257  1.7359 -0.4942
  260MOL    H2836806   4.825   5.006   7.948 -1.7809 -1.0335 -1.2394
  260MOL    H2936807   4.731   4.802   7.949 -0.5739  0.4995 -0.3400
  260MOL    C3036808   4.886   4.667   7.950 -0.0336  0.0679 -0.5320
  260MOL    C3136809   4.780   4.555   7.934 -0.0470 -0.2803 -0.2062
  260MOL    C3236810   4.800   4.500   7.794  0.3462 -0.1303 -0.1515
  260MOL    N3336811   4.809   4.465   7.683 -0.2530 -0.5942 -0.1764
  260MOL    H3436812   4.982   4.639   7.906  0.5236  0.1969  0.5774
  260MOL    H3536813   4.901   4.687   8.056  0.7250 -1.2240 -0.3867
  260MOL    H3636814   4.681   4.599   7.934  0.1427  0.1506 -0.4996
  260MOL    C3736815   4.787   4.452   8.053 -0.1332 -0.6103  0.5014
  260MOL    C3836816   4.660   4.376   8.076 -0.3003  0.7356 -0.8905
  260MOL    C3936817   4.541   4.458   8.118 -0.3193 -0.3868  0.0414
  260MOL    N4036818   4.448   4.520   8.149  0.5452 -0.7527 -0.1911
  260MOL    H4136819   4.875   4.390   8.036 -1.6037 -2.2517 -1.3853
  260MOL    H4236820   4.811   4.501   8.147 -1.2983 -1.8356  1.4591
  260MOL    H4336821   4.673   4.299   8.152 -1.1664 -0.4289 -1.9033
  260MOL    C4436822   4.628   4.288   7.961  0.5765 -0.1143 -0.0076
  260MOL    C4536823   4.517   4.188   7.994  0.0857  0.3049 -0.8038
  260MOL    C4636824   4.432   4.179   7.870  0.3094  0.1121  0.1476
  260MOL    N4736825   4.373   4.164   7.772  0.4466 -0.4959 -0.1110
  260MOL    H4836826   4.592   4.355   7.882  0.2559  1.0974  1.1629
  260MOL    H4936827   4.714   4.235   7.921 -1.2906 -0.8490 -3.2696
  260MOL    H5036828   4.442   4.220   8.066 -0.3353 -1.4035 -0.4790
  260MOL    C5136829   4.568   4.055   8.069  0.6957 -0.4398  0.2111
  260MOL    C5236830   4.450   3.978   8.136 -0.3934 -0.4172 -0.2731
  260MOL    C5336831   4.355   3.920   8.033  1.0005 -0.2240 -0.1357
  260MOL    N5436832   4.280   3.877   7.954 -0.0993 -0.4187 -0.3391
  260MOL    H5536833   4.611   3.990   7.993  2.4699 -0.1433  0.9425
  260MOL    H5636834   4.641   4.087   8.143 -1.2799  3.9595  0.4187
  260MOL    H5736835   4.380   4.041   8.190  2.4971  2.2121  0.6042
  260MOL    C5836836   4.500   3.869   8.238 -0.2381  0.2700  0.0321
  260MOL    C5936837   4.428   3.726   8.235  0.2054 -0.5320 -0.6988
  260MOL    C6036838   4.453   3.661   8.097  0.5024 -0.0115  0.3753
  260MOL    N6136839   4.474   3.619   7.991  0.1049  0.0909  0.4356
  260MOL    H6236840   4.606   3.850   8.218 -0.2806 -0.0881  0.1395
  260MOL    H6336841   4.489   3.922   0.020 -1.8455  0.4574 -0.2585
  260MOL    H6436842   4.321   3.737   8.250  0.2620  3.1381 -2.4082
  260MOL    C6536843   4.479   3.640   0.036 -0.1251 -0.3788  0.3775
  260MOL    C6636844   4.381   3.526   0.067 -0.2501  0.5256  0.1686
  260MOL    C6736845   4.361   3.422   8.275  0.0083 -0.2490 -0.1626
  260MOL    N6836846   4.342   3.340   8.193 -0.0062  0.0529  0.5469
  260MOL    H6936847   4.578   3.600   0.012  0.7605  2.6040 -1.1796
  260MOL    H7036848   4.494   3.686   0.134  0.0783  0.2545  0.0494
  260MOL    H7136849   4.284   3.572   0.086 -0.4046 -0.0942  0.9336
  260MOL    C7236850   4.411   3.447   0.192  0.2085 -1.2135 -0.1701
  260MOL    C7336851   4.297   3.352   0.227  0.1672  0.0932  0.7611
  260MOL    C7436852   4.299   3.214   0.176 -1.1643  0.3066 -0.1494
  260MOL    N7536853   4.300   3.106   0.132 -0.6534  0.3640  0.4519
  260MOL    H7636854   4.507   3.397   0.181  1.5996  0.8921  1.7817
  260MOL    H7736855   4.437   3.522   0.267  0.6029  2.0630 -3.4386
  260MOL    H7836856   4.202   3.391   0.191  1.0602  0.7114 -1.0158
  260MOL    C7936857   4.266   3.352   0.379 -0.5699 -0.0871  0.4910
  260MOL    C8036858   4.366   3.273   0.466  0.9482  0.4047 -0.0969
  260MOL    C8136859   4.503   3.318   0.445  0.5155 -0.0005  0.0203
  260MOL    N8236860   4.610   3.354   0.424 -0.5925 -0.0966 -0.0998
  260MOL    H8336861   4.251   3.453   0.418 -0.4390  0.0651  0.1451
  260MOL    H8436862   4.173   3.299   0.399 -0.9388 -0.0449 -1.0491
  260MOL    H8536863   4.369   3.177   0.414 -1.9470  0.1535  0.1457
  260MOL    C8636864   4.336   3.273   0.612 -0.1385  0.3565 -0.0449
  260MOL    C8736865   4.407   3.159   0.704  0.1401 -0.2051  0.2199
  260MOL    C8836866   4.553   3.186   0.719  0.2224  0.0765  0.6667
  260MOL    N8936867   4.666   3.197   0.735 -0.2718  0.3953 -0.4157
  260MOL    H9036868   4.376   3.365   0.655 -0.5978 -0.0356  1.2420
  260MOL    H9136869   4.228   3.282   0.619 -0.0609  0.9011  0.5386
  260MOL    H9236870   4.401   3.061   0.656  0.1155 -0.7690  1.3766
  260MOL    C9336871   4.327   3.147   0.833  0.3975  0.0615 -0.5868
  260MOL    C9436872   4.410   3.079   0.946  0.1983 -0.1925  0.6296
  260MOL    C9536873   4.367   3.126   1.083  0.7043 -0.0080 -0.5108
  260MOL    N9636874   4.329   3.156   1.188 -0.5406 -0.8924 -0.3370
  260MOL    H9736875   4.298   3.243   0.876  3.0233 -0.4159  2.4265
  260MOL    H9836876   4.231   3.097   0.817  0.2778  0.0175  0.2205
  260MOL    H9936877   4.514   3.107   0.936  0.2501 -0.9173 -1.0045
  260MOL   C10036878   4.402   2.926   0.931  0.0409  0.6005 -0.2147
  260MOL   C10136879   4.539   2.856   0.970  0.0557 -0.4284 -0.0037
  260MOL   C10236880   4.516   2.719   1.011 -0.9296  0.7272 -0.2960
  260MOL   N10336881   4.502   2.604   1.043 -0.5491 -0.0911  0.8355
  260MOL   H10436882   4.330   2.891   1.006  0.3144  1.7420  0.5910
  260MOL   H10536883   4.373   2.886   0.834  3.4587  1.4418 -1.6538
  260MOL   H10636884   4.559   2.901   1.067  0.6542 -0.7071  0.0040
  260MOL   C10736885   4.656   2.871   0.870 -0.1526 -0.6228 -0.2703
  260MOL   C10836886   4.643   2.832   0.726 -0.1509  0.9221 -0.1282
  260MOL   C10936887   4.761   2.893   0.663  0.2868 -0.1433  0.1354
  260MOL   N11036888   4.849   2.945   0.601 -0.1354 -0.3958 -0.4698
  260MOL   H11136889   4.682   2.976   0.872 -1.4159 -0.2998 -0.1363
  260MOL   H11236890   4.743   2.819   0.911 -1.1914 -1.2665  1.1628
  260MOL   H11336891   4.550   2.872   0.686  0.2934  1.8905 -0.2082
  260MOL   C11436892   4.623   2.682   0.699  0.4749 -0.5090 -0.1096
  260MOL   C11536893   4.573   2.650   0.564  0.1580  0.9249 -0.7242
  260MOL   C11636894   4.674   2.671   0.458 -0.3998  0.1356  0.4580
  260MOL   N11736895   4.750   2.690   0.375  0.3266 -0.2301 -0.0497
  260MOL   H11836896   4.710   2.625   0.729  0.5300  0.3090  1.3696
  260MOL   H11936897   4.547   2.641   0.765  0.0165 -0.2813 -0.4870
  260MOL   H12036898   4.500   2.728   0.543  1.7929  3.4197  2.3121
  260MOL   C12136899   4.496   2.514   0.555 -0.2853 -0.8390  0.1161
  260MOL   C12236900   4.432   2.486   0.411 -0.4362 -0.5024 -0.6736
  260MOL   C12336901   4.367   2.356   0.396 -0.3452  0.3971 -0.6107
  260MOL   N12436902   4.316   2.248   0.378 -0.2769  0.3192  0.1774
  260MOL   H12536903   4.577   2.443   0.570  0.8009  0.0561 -1.3345
  260MOL   H12636904   4.432   2.510   0.642 -0.5991  0.0338 -0.0683
  260MOL   H12736905   4.517   2.472   0.345  1.8396 -2.5833  2.5321
  260MOL   C12836906   4.338   2.598   0.352  0.3444 -0.4922 -0.2051
  260MOL   C12936907   4.206   2.647   0.434 -0.3975  0.5881  0.5647
  260MOL   C13036908   4.236   2.690   0.577 -0.4819  0.1566  0.0180
  260MOL   N13136909   4.261   2.725   0.684  0.5432 -1.2233  0.3566
  260MOL   H13236910   4.392   2.689   0.324  1.0693 -0.8213  0.1000
  260MOL   H13336911   4.303   2.560   0.256 -2.5093 -0.9710  0.9727
  260MOL   H13436912   4.137   2.564   0.444 -2.4398  2.0998 -0.6620
  260MOL   C13536913   4.147   2.771   0.359 -0.5921 -0.4726  0.0609
  260MOL   C13636914   4.024   2.830   0.424 -0.3612  0.2067 -0.6545
  260MOL   C13736915   3.915   2.732   0.415 -0.4614 -0.5678 -0.5149
  260MOL   N13836916   3.836   2.648   0.407  0.1858 -0.1845 -0.8717
  260MOL   H13936917   4.226   2.845   0.355  1.1900 -2.4027 -2.0050
  260MOL   H14036918   4.138   2.735   0.257 -1.1125  0.7280 -0.3228
  260MOL   H14136919   3.994   2.916   0.365  1.4986  0.2508 -1.5795
  260MOL   H14236920   4.032   2.855   0.529 -2.5660 -0.4304 -0.3159
  261MOL     C136921   1.000   8.235   7.156  0.2462  0.0376 -0.5693
  261MOL     C236922   0.944   0.053   7.207  0.2256 -0.0079  0.5367
  261MOL     C336923   0.815   0.094   7.146  0.6025  0.1931  0.6773
  261MOL     N436924   0.712   0.132   7.107  0.0909  0.1779  0.1163
  261MOL     H536925   1.033   8.237   7.052  1.5717 -0.8093 -0.1861
  261MOL     H636926   0.921   8.161   7.151  0.7566 -0.4164 -2.2657
  261MOL     H736927   1.010   0.134   7.176 -0.9100  2.2349  3.7544
  261MOL     H836928   1.083   8.194   7.213  1.4168 -0.0860 -2.3154
  261MOL     C936929   0.935   0.069   7.353 -0.3814 -0.0649 -0.4511
  261MOL    C1036930   0.829   8.288   7.423  0.0650  0.1915  0.0505
  261MOL    C1136931   0.859   8.148   7.416 -0.4724 -0.0041 -0.1887
  261MOL    N1236932   0.889   8.037   7.420 -0.0232 -0.2039 -0.4592
  261MOL    H1336933   1.030   0.036   7.396 -1.6164 -1.3567  1.3400
  261MOL    H1436934   0.918   0.170   7.389 -1.8638 -0.7367  0.7671
  261MOL    H1536935   0.731   0.001   7.384  0.3268  0.6640 -0.2993
  261MOL    C1636936   0.803   0.019   7.572  0.3219  0.5847 -0.4932
  261MOL    C1736937   0.659   0.003   7.618  0.4987  0.7125 -0.1659
  261MOL    C1836938   0.623   8.174   7.631 -0.7339 -0.2651  0.0845
  261MOL    N1936939   0.603   8.061   7.643  0.4473  0.5844 -0.0006
  261MOL    H2036940   0.874   8.278   7.636 -1.0358 -0.4727  0.1665
  261MOL    H2136941   0.834   0.122   7.589 -1.1569  0.9974 -0.2528
  261MOL    H2236942   0.586   0.034   7.544 -1.1445  0.9190  1.5254
  261MOL    C2336943   0.638   0.075   7.748 -0.1882  0.0444  0.1057
  261MOL    C2436944   0.497   0.086   7.811 -0.4338 -0.5276 -0.4226
  261MOL    C2536945   0.494   0.105   7.956 -1.0883  0.2205  0.4970
  261MOL    N2636946   0.480   0.119   8.069 -0.6113 -0.0513 -0.4492
  261MOL    H2736947   0.698   0.033   7.829 -0.0059 -0.7476 -0.4409
  261MOL    H2836948   0.674   0.178   7.741 -0.4266  0.2540  1.7350
  261MOL    H2936949   0.446   8.304   7.791 -0.4138 -0.4988 -0.6053
  261MOL    C3036950   0.405   0.196   7.747 -0.7797  0.1382  0.0926
  261MOL    C3136951   0.253   0.173   7.752 -0.5247 -0.1240  0.8971
  261MOL    C3236952   0.226   0.047   7.689  0.2752 -0.5530  0.3659
  261MOL    N3336953   0.205   8.254   7.643  0.0517  0.3991 -0.0841
  261MOL    H3436954   0.438   0.290   7.792 -0.4672 -1.0262  2.3706
  261MOL    H3536955   0.427   0.190   7.640 -2.2016  1.2097 -0.2667
  261MOL    H3636956   0.204   0.253   7.696 -3.8546 -2.2798  0.5748
  261MOL    C3736957   0.186   0.180   7.887  0.0642 -0.1974 -0.2767
  261MOL    C3836958   0.041   0.143   7.897 -0.3240  0.0452 -0.2037
  261MOL    C3936959   8.299   0.096   8.024  0.2603 -0.3585 -0.4917
  261MOL    N4036960   8.245   0.056   8.121 -0.4525  0.0558 -0.3896
  261MOL    H4136961   0.242   0.114   7.953 -0.2204  1.3767  1.5992
  261MOL    H4236962   0.210   0.277   7.932  0.5067 -0.3795 -0.1095
  261MOL    H4336963   0.039   0.050   7.841 -0.5175  1.0563 -1.9058
  261MOL    C4436964   8.264   0.239   7.820  0.0416  0.6269  0.5943
  261MOL    C4536965   8.197   0.344   7.912  0.2456 -0.0077  0.2870
  261MOL    C4636966   8.287   0.418   7.998  0.2574  0.3539  0.4444
  261MOL    N4736967   0.048   0.480   8.061 -0.2096  0.2811  0.3585
  261MOL    H4836968   8.297   0.272   7.721  0.2334  2.4693  1.2675
  261MOL    H4936969   8.179   0.177   7.792  0.0470 -0.0216  1.9514
  261MOL    H5036970   8.137   0.281   7.977  0.0511  1.6001  1.6931
  261MOL    C5136971   8.097   0.437   7.835  0.4318  0.1506  0.0916
  261MOL    C5236972   8.146   0.569   7.764 -0.2354  0.0096 -0.2848
  261MOL    C5336973   8.276   0.559   7.703 -0.3040  0.6330 -0.0388
  261MOL    N5436974   0.071   0.561   7.655  0.2704  0.0070  0.7523
  261MOL    H5536975   8.040   0.372   7.768  1.7776 -1.0455  0.0819
  261MOL    H5636976   8.027   0.469   7.912 -1.1988  0.2722 -1.3910
  261MOL    H5736977   8.173   0.646   7.836  0.3729 -0.3365 -0.1324
  261MOL    C5836978   8.038   0.637   7.679 -0.3234 -0.3363  0.6496
  261MOL    C5936979   7.906   0.672   7.757  0.5960 -0.3977 -0.3702
  261MOL    C6036980   7.912   0.753   7.881  0.0845 -0.0066  0.5827
  261MOL    N6136981   7.920   0.819   7.975  0.2536  0.1164 -0.1915
  261MOL    H6236982   8.086   0.724   7.634 -1.8718  1.6630  2.7411
  261MOL    H6336983   8.014   0.567   7.599  0.8328 -0.7557  0.6547
  261MOL    H6436984   7.866   0.576   7.789 -3.6723  1.6086  0.6790
  261MOL    C6536985   7.811   0.730   7.652  0.4274 -0.8479  0.2006
  261MOL    C6636986   7.685   0.801   7.702  1.0712  0.3135  0.6000
  261MOL    C6736987   7.619   0.885   7.594  0.2227 -0.9847  0.0077
  261MOL    N6836988   7.571   0.950   7.511  0.6858 -0.2692 -0.4984
  261MOL    H6936989   7.863   0.811   7.600 -1.5244  0.3924  0.1397
  261MOL    H7036990   7.791   0.649   7.582 -0.7174 -0.0676 -0.3788
  261MOL    H7136991   7.717   0.871   7.779 -1.1236  1.0910  0.8308
  261MOL    C7236992   7.585   0.718   7.773  0.1941  0.1357  0.0925
  261MOL    C7336993   7.511   0.617   7.680 -0.4071 -0.0673 -0.2867
  261MOL    C7436994   7.595   0.504   7.641  0.5352  0.3229  0.1225
  261MOL    N7536995   7.661   0.412   7.612  0.3092 -0.3557  0.2035
  261MOL    H7636996   7.636   0.669   7.857  1.6724 -0.2491 -0.9974
  261MOL    H7736997   7.513   0.789   7.814  0.3568 -0.1632  0.9166
  261MOL    H7836998   7.483   0.663   7.586 -0.4798  0.5123  0.0160
  261MOL    C7936999   7.385   0.559   7.748 -0.7386  0.5338  0.7678
  261MOL    C8037000   7.296   0.462   7.659  0.3842 -0.4499  0.7029
  261MOL    C8137001   7.164   0.421   7.716  0.3109  0.0028 -0.1424
  261MOL    N8237002   7.058   0.385   7.758  0.2662  0.5516 -0.2255
  261MOL    H8337003   7.424   0.497   7.829 -0.2616 -0.3456 -0.1143
  261MOL    H8437004   7.324   0.642   7.782  0.0004  0.9721  1.0416
  261MOL    H8537005   7.350   0.368   7.660 -0.3333 -0.8788  3.6667
  261MOL    C8637006   7.274   0.495   7.515 -0.2018  0.0256 -0.0317
  261MOL    C8737007   7.178   0.612   7.487 -0.1825 -0.2893  0.4913
  261MOL    C8837008   7.218   0.743   7.532  0.2211 -0.0518 -0.0162
  261MOL    N8937009   7.266   0.842   7.566  0.2806 -0.5164 -0.0933
  261MOL    H9037010   7.372   0.506   7.468 -1.1840 -0.5478 -2.3044
  261MOL    H9137011   7.229   0.413   7.458  0.8429  0.6893 -1.8475
  261MOL    H9237012   7.088   0.591   7.544 -0.5457 -1.1348 -0.3988
  261MOL    C9337013   7.146   0.633   7.337 -1.2331 -0.5602  0.2284
  261MOL    C9437014   7.005   0.590   7.299 -0.1079  0.0202  0.0531
  261MOL    C9537015   6.894   0.654   7.377  0.5940  1.2540  0.1543
  261MOL    N9637016   6.804   0.700   7.437 -0.4746 -0.0710  0.0933
  261MOL    H9737017   7.150   0.740   7.315  0.5811 -1.2007 -2.7850
  261MOL    H9837018   7.228   0.585   7.285  0.0280 -1.7980  3.2556
  261MOL    H9937019   7.001   0.483   7.320  0.1696  0.0514  0.2739
  261MOL   C10037020   6.983   0.607   7.146  0.3355  0.1002 -0.7972
  261MOL   C10137021   6.838   0.560   7.100 -0.5239 -0.2230 -0.0061
  261MOL   C10237022   6.734   0.659   7.121  0.4316  0.2139 -0.3833
  261MOL   N10337023   6.649   0.734   7.131  0.5236  0.4072  0.2075
  261MOL   H10437024   7.007   0.712   7.131  3.4935 -0.2271  1.4247
  261MOL   H10537025   7.054   0.549   7.088 -0.2681 -0.7257 -0.7181
  261MOL   H10637026   6.808   0.486   7.175  0.7789 -0.5218  0.2275
  261MOL   C10737027   6.836   0.498   6.952  0.2007  0.1022  0.0424
  261MOL   C10837028   6.704   0.440   6.900  0.4712 -0.2128  0.4017
  261MOL   C10937029   6.580   0.516   6.899  0.3066  0.0190  0.1680
  261MOL   N11037030   6.479   0.576   6.898  0.0296 -0.3060  0.5771
  261MOL   H11137031   6.892   0.563   6.884  0.5241  0.4201  0.6127
  261MOL   H11237032   6.914   0.423   6.953 -0.9883 -1.1579 -0.3598
  261MOL   H11337033   6.672   0.358   6.964  0.1476 -0.1155  0.3708
  261MOL   C11437034   6.702   0.380   6.757 -0.4324  0.3409  0.0871
  261MOL   C11537035   6.745   0.475   6.640  0.7027  0.8666 -0.7482
  261MOL   C11637036   6.889   0.491   6.626 -0.3279  0.3172 -0.1278
  261MOL   N11737037   7.005   0.500   6.614  0.5316  0.8929  0.7988
  261MOL   H11837038   6.782   0.306   6.764 -0.3802  0.4250  0.3779
  261MOL   H11937039   6.613   0.323   6.732  2.0823 -1.9837 -4.0325
  261MOL   H12037040   6.704   0.575   6.655  1.3936  0.6113  3.5331
  261MOL   C12137041   6.684   0.420   6.505 -0.3451  0.5642  0.0934
  261MOL   C12237042   6.717   0.490   6.369 -0.0223  0.2049 -0.0518
  261MOL   C12337043   6.692   0.632   6.364  0.2237 -0.5975 -0.1127
  261MOL   N12437044   6.673   0.746   6.356 -0.0037 -0.2630  0.2103
  261MOL   H12537045   6.709   0.315   6.489  0.3446  0.8017 -0.4090
  261MOL   H12637046   6.577   0.411   6.525 -0.4852  0.5149 -0.6781
  261MOL   H12737047   6.637   0.448   6.308  0.4675 -0.7279 -0.0643
  261MOL   C12837048   6.859   0.460   6.311  0.0577  0.2221 -1.0912
  261MOL   C12937049   6.907   0.311   6.305  0.0175 -0.5796 -0.2008
  261MOL   C13037050   6.822   0.237   6.213  0.3970 -0.4015 -0.1064
  261MOL   N13137051   6.757   0.184   6.137 -0.6853  0.1467 -0.5204
  261MOL   H13237052   6.852   0.516   6.217  1.1349  1.0446 -0.6942
  261MOL   H13337053   6.929   0.524   6.365 -0.2266 -1.2918  1.1271
  261MOL   H13437054   6.895   0.262   6.402 -0.5212  0.2476  0.1523
  261MOL   C13537055   7.055   0.305   6.268 -0.0591 -0.0433  0.1449
  261MOL   C13637056   7.102   0.160   6.276 -0.8499  0.5406 -0.3302
  261MOL   C13737057   7.246   0.153   6.276  0.3358 -0.6019  0.3637
  261MOL   N13837058   7.363   0.139   6.283  0.0456 -0.5082 -1.2969
  261MOL   H13937059   7.077   0.342   6.168  1.1220 -1.7601 -0.2440
  261MOL   H14037060   7.103   0.364   6.346 -1.1057  1.9551 -0.6839
  261MOL   H14137061   7.070   0.087   6.202  0.6746  0.6282 -1.1035
  261MOL   H14237062   7.072   0.109   6.368  1.8067 -0.0773  0.2624
  262MOL     C137063   6.206   6.687   2.726 -0.4277 -0.2686 -0.5156
  262MOL     C237064   6.094   6.791   2.761  0.6464  0.2237  0.1835
  262MOL     C337065   6.143   6.873   2.877 -0.5549  0.6778 -0.3131
  262MOL     N437066   6.176   6.935   2.967 -0.4103  0.8048 -0.4745
  262MOL     H537067   6.183   6.618   2.645  1.7346 -1.0446 -0.5071
  262MOL     H637068   6.214   6.630   2.818  0.8321 -0.6392 -0.8449
  262MOL     H737069   6.013   6.731   2.802  2.3053 -1.7797  0.6388
  262MOL     H837070   6.300   6.742   2.714  0.6301 -1.0651  3.4155
  262MOL     C937071   6.051   6.865   2.646 -0.0116  0.0847 -0.3643
  262MOL    C1037072   5.921   6.952   2.651 -0.3033 -0.1285 -0.1397
  262MOL    C1137073   5.919   7.042   2.543  0.3000  0.1392  0.5808
  262MOL    N1237074   5.916   7.118   2.457 -0.1427 -0.6297  0.1152
  262MOL    H1337075   6.129   6.940   2.629  0.3844 -0.5788 -1.5699
  262MOL    H1437076   6.064   6.808   2.554  1.3282 -2.2853  1.2550
  262MOL    H1537077   5.937   7.015   2.738 -0.6570 -0.5858  0.2630
  262MOL    C1637078   5.786   6.881   2.665 -0.4609  0.6548  0.4451
  262MOL    C1737079   5.750   6.784   2.549 -0.0472  1.3002 -0.4469
  262MOL    C1837080   5.831   6.663   2.565  0.8143  0.1313  0.3928
  262MOL    N1937081   5.898   6.571   2.578 -0.2079  0.1968 -0.1270
  262MOL    H2037082   5.777   6.821   2.755 -0.8470  0.7543  0.4759
  262MOL    H2137083   5.710   6.959   2.661  1.9783  3.0588 -0.9518
  262MOL    H2237084   5.784   6.826   2.454 -1.5305  0.1228 -1.5157
  262MOL    C2337085   5.600   6.749   2.550  0.8741 -0.1657  0.2815
  262MOL    C2437086   5.559   6.644   2.435 -0.1477  0.6200  0.0836
  262MOL    C2537087   5.427   6.594   2.448 -0.2154  1.2181 -0.1500
  262MOL    N2637088   5.320   6.545   2.450 -1.0181  0.2586  0.0171
  262MOL    H2737089   5.577   6.708   2.648 -1.6258  0.9343  0.1952
  262MOL    H2837090   5.535   6.836   2.536  1.0252  0.4122  2.9285
  262MOL    H2937091   5.622   6.556   2.450 -0.0949  0.8493  1.2730
  262MOL    C3037092   5.597   6.698   2.294  0.5469 -0.6918 -0.1874
  262MOL    C3137093   5.565   6.600   2.181 -0.1064 -0.0772  0.3933
  262MOL    C3237094   5.423   6.631   2.138  0.6270  0.4152  0.2610
  262MOL    N3337095   5.314   6.656   2.107 -0.0949  0.4304  0.2705
  262MOL    H3437096   5.545   6.792   2.277  1.4734 -0.6902 -3.3175
  262MOL    H3537097   5.704   6.722   2.294  0.0689  1.8318  3.3583
  262MOL    H3637098   5.563   6.496   2.213 -2.1723 -0.0497  0.4335
  262MOL    C3737099   5.669   6.604   2.068  0.2874 -0.5668 -1.2824
  262MOL    C3837100   5.640   6.520   1.944 -0.1959 -0.3365 -0.4242
  262MOL    C3937101   5.548   6.584   1.847  0.8355 -0.2139 -0.9513
  262MOL    N4037102   5.475   6.636   1.772 -0.4814  0.1363 -0.0236
  262MOL    H4137103   5.676   6.706   2.031 -1.4130  0.5064  1.2452
  262MOL    H4237104   5.763   6.580   2.118  0.4609  4.0795  0.8722
  262MOL    H4337105   5.589   6.432   1.982 -4.0060  1.9125 -0.0681
  262MOL    C4437106   5.776   6.479   1.875  0.7316 -0.5527 -0.5293
  262MOL    C4537107   5.890   6.390   1.947 -0.3713 -0.2098 -0.0201
  262MOL    C4637108   5.824   6.265   1.992  0.4246 -0.5357  0.4157
  262MOL    N4737109   5.762   6.167   2.023  0.5106 -0.1671 -0.6914
  262MOL    H4837110   5.750   6.446   1.774 -1.3724 -0.2030 -0.1126
  262MOL    H4937111   5.812   6.579   1.850  1.2329 -0.2008  1.4955
  262MOL    H5037112   5.925   6.447   2.033  0.8519 -0.4165 -0.3759
  262MOL    C5137113   6.007   6.350   1.852  0.0565 -0.2720  0.2166
  262MOL    C5237114   6.136   6.423   1.881  0.6743  0.6675 -0.2374
  262MOL    C5337115   6.132   6.567   1.886 -0.2127 -0.5121  0.3618
  262MOL    N5437116   6.118   6.680   1.894 -0.0615  0.1941  0.2903
  262MOL    H5537117   6.027   6.243   1.861 -2.3620 -0.7758 -0.0417
  262MOL    H5637118   5.981   6.358   1.747 -0.6078 -2.1741  0.2177
  262MOL    H5737119   6.202   6.396   1.799 -1.1161  2.7039 -2.4035
  262MOL    C5837120   6.198   6.360   2.011  0.4980  0.1906 -0.0435
  262MOL    C5937121   6.345   6.391   2.039  0.0846 -0.1907  0.1594
  262MOL    C6037122   6.347   6.512   2.126 -0.1050  0.0526 -0.6581
  262MOL    N6137123   6.348   6.605   2.198 -0.7229  0.1949  0.6388
  262MOL    H6237124   6.136   6.386   2.096  0.6474 -0.0941  0.1549
  262MOL    H6337125   6.182   6.252   2.013  0.3497  0.2249  0.8955
  262MOL    H6437126   6.395   6.409   1.944  0.1277 -1.1989 -0.0242
  262MOL    C6537127   6.412   6.276   2.121 -0.3423  0.3093 -0.0765
  262MOL    C6637128   6.566   6.278   2.118 -0.2769 -0.6599 -0.0266
  262MOL    C6737129   6.620   6.408   2.163  0.2538 -0.0284  0.0767
  262MOL    N6837130   6.667   6.506   2.202  0.3718  0.1644  0.4194
  262MOL    H6937131   6.370   6.282   2.221  0.0338  1.2259  0.0314
  262MOL    H7037132   6.389   6.179   2.076  0.0093 -0.2834  1.0190
  262MOL    H7137133   6.603   6.284   2.016 -0.7681  0.7518 -0.1361
  262MOL    C7237134   6.645   6.155   2.171  0.3836  0.3409 -0.4029
  262MOL    C7337135   6.798   6.178   2.173 -0.5702  0.0886  0.3053
  262MOL    C7437136   6.854   6.245   2.288 -0.3955  0.0003  0.0143
  262MOL    N7537137   6.895   6.304   2.382  0.1450  0.1520 -0.2323
  262MOL    H7637138   6.610   6.126   2.270 -0.6407  2.7077 -0.0625
  262MOL    H7737139   6.629   6.070   2.104  1.7948 -0.0873 -0.2156
  262MOL    H7837140   6.846   6.218   2.083 -0.6202 -1.8036 -0.5943
  262MOL    C7937141   6.869   6.043   2.174  0.1084 -0.1107 -0.7543
  262MOL    C8037142   6.853   5.954   2.306 -0.0505 -0.2838  0.5589
  262MOL    C8137143   6.728   5.903   2.344 -0.1539  0.2514 -0.3519
  262MOL    N8237144   6.625   5.858   2.379 -0.5220  0.0616 -0.3096
  262MOL    H8337145   6.859   5.990   2.079 -2.5610  0.2795 -0.7178
  262MOL    H8437146   6.974   6.070   2.181 -0.3724  1.6521 -0.0467
  262MOL    H8537147   6.856   6.026   2.388 -2.6786  0.7974 -0.2357
  262MOL    C8637148   6.974   5.859   2.326  0.3409  0.2939  0.3610
  262MOL    C8737149   6.968   5.719   2.260  0.3867 -0.6831 -0.2467
  262MOL    C8837150   6.903   5.718   2.125 -0.6536  0.3630 -0.7448
  262MOL    N8937151   6.849   5.711   2.024  0.1429  0.3631  0.6437
  262MOL    H9037152   7.070   5.893   2.289  0.3745  1.2262  1.2760
  262MOL    H9137153   6.990   5.843   2.432 -0.5041  1.1025  0.6205
  262MOL    H9237154   6.891   5.667   2.318 -1.3042 -0.1497 -1.9533
  262MOL    C9337155   7.106   5.648   2.251  0.1668  0.0066  0.2910
  262MOL    C9437156   7.111   5.499   2.206  0.0540 -0.7289 -0.2608
  262MOL    C9537157   7.252   5.465   2.164  1.0266 -0.4410 -0.1306
  262MOL    N9637158   7.358   5.438   2.137  0.2209  0.4235  0.0251
  262MOL    H9737159   7.174   5.704   2.187  1.0274  1.9883  2.8902
  262MOL    H9837160   7.154   5.657   2.348  0.8288 -2.7635  0.2644
  262MOL    H9937161   7.046   5.491   2.119 -1.2287 -1.9809  0.7777
  262MOL   C10037162   7.056   5.407   2.311 -0.8023  0.0640 -0.4323
  262MOL   C10137163   6.999   5.268   2.268  1.4086  0.2485  1.1932
  262MOL   C10237164   6.901   5.292   2.158 -0.5497  0.8815 -0.2752
  262MOL   N10337165   6.822   5.302   2.076 -0.0578  0.0134  0.3472
  262MOL   H10437166   7.132   5.388   2.387 -0.1155 -0.0110 -1.1347
  262MOL   H10537167   6.974   5.464   2.356  2.1467  3.3829  0.9889
  262MOL   H10637168   6.945   5.235   2.358  2.6869 -2.1536  1.1329
  262MOL   C10737169   7.110   5.164   2.243  0.0168  0.2591  0.0601
  262MOL   C10837170   7.204   5.136   2.361  0.0424  0.3708 -0.5249
  262MOL   C10937171   7.125   5.153   2.485  0.0464 -0.3300 -1.1780
  262MOL   N11037172   7.063   5.165   2.586  0.2431  0.7924  0.1043
  262MOL   H11137173   7.059   5.075   2.204  3.6830 -1.2743 -1.4215
  262MOL   H11237174   7.170   5.189   2.156 -0.7420  1.6985 -0.0541
  262MOL   H11337175   7.277   5.216   2.374 -0.4308  0.8076 -0.5664
  262MOL   C11437176   7.277   5.006   2.350 -0.1760  0.1440 -0.2323
  262MOL   C11537177   7.380   4.987   2.462 -0.4051  0.1716 -0.4590
  262MOL   C11637178   7.433   4.849   2.451  0.0967 -0.0028  0.2550
  262MOL   N11737179   7.468   4.739   2.442  0.4203 -0.1104 -0.2786
  262MOL   H11837180   7.210   4.923   2.330 -0.7110  0.6823 -0.7082
  262MOL   H11937181   7.341   5.025   2.264 -1.3650 -1.5504 -1.5159
  262MOL   H12037182   7.328   4.978   2.557  0.5678  3.0209  0.4097
  262MOL   C12137183   7.491   5.095   2.489 -0.3325 -0.5794  0.0916
  262MOL   C12237184   7.634   5.042   2.537  0.0925 -0.0147 -0.6501
  262MOL   C12337185   7.707   4.954   2.446  0.0411 -0.2427 -0.4777
  262MOL   N12437186   7.769   4.889   2.376 -0.5444 -0.3335  0.1035
  262MOL   H12537187   7.511   5.142   2.393 -0.5612 -2.1369 -0.7306
  262MOL   H12637188   7.455   5.175   2.554 -0.1323  0.1149 -0.6493
  262MOL   H12737189   7.605   4.974   2.618  1.1538  0.5870  0.2422
  262MOL   C12837190   7.720   5.154   2.608  0.5341  0.1765 -0.0741
  262MOL   C12937191   7.814   5.236   2.518  0.2244 -0.3913  0.0847
  262MOL   C13037192   7.729   5.302   2.416  0.1897  0.0305 -0.1652
  262MOL   N13137193   7.662   5.355   2.338 -0.0193  0.0904  0.6074
  262MOL   H13237194   7.656   5.220   2.667  1.2381  1.0658 -0.2876
  262MOL   H13337195   7.786   5.089   2.664 -0.9926 -1.4492 -0.1081
  262MOL   H13437196   7.881   5.168   2.466  1.9183  1.2111  0.1266
  262MOL   C13537197   7.901   5.339   2.593 -0.4938 -0.7175 -0.5785
  262MOL   C13637198   7.980   5.438   2.515  0.3588 -0.4187  0.7507
  262MOL   C13737199   8.088   5.372   2.436 -0.0066  0.6475  0.1412
  262MOL   N13837200   8.182   5.317   2.390  0.7122  0.1367  0.3033
  262MOL   H13937201   7.833   5.396   2.657  1.5471  0.5305  0.5444
  262MOL   H14037202   7.966   5.293   2.667  1.0954  0.6529 -1.0951
  262MOL   H14137203   8.036   5.500   2.585  2.3283 -0.1361 -1.0365
  262MOL   H14237204   7.921   5.511   2.459 -0.2931 -3.1158 -2.2000
  263MOL     C137205   5.376   4.589   0.746  0.3367 -0.1733  0.3319
  263MOL     C237206   5.458   4.503   0.854 -0.4944 -0.5308  0.3764
  263MOL     C337207   5.479   4.368   0.811 -0.6779  0.0270 -0.5866
  263MOL     N437208   5.489   4.256   0.781  0.4832 -0.5263  0.0003
  263MOL     H537209   5.277   4.548   0.730  0.1575  0.1388  0.6265
  263MOL     H637210   5.432   4.598   0.653  1.1648  0.0567  0.8479
  263MOL     H737211   5.413   4.492   0.952 -0.1213  1.1440  0.7593
  263MOL     H837212   5.357   4.691   0.780  1.3931 -0.4149  1.6998
  263MOL     C937213   5.596   4.563   0.876  0.2037  0.3737 -0.2236
  263MOL    C1037214   5.621   4.707   0.920 -0.0995 -0.0950 -0.6998
  263MOL    C1137215   5.556   4.744   1.042  0.2123  0.3741  0.4877
  263MOL    N1237216   5.509   4.773   1.144 -0.5378  0.5542 -0.3545
  263MOL    H1337217   5.637   4.504   0.958 -2.5315  3.3708  3.5492
  263MOL    H1437218   5.654   4.543   0.786 -0.0094 -0.8532 -0.0850
  263MOL    H1537219   5.578   4.771   0.843  2.7135  0.6960 -1.6865
  263MOL    C1637220   5.778   4.735   0.914 -0.4422  0.3399  0.2210
  263MOL    C1737221   5.841   4.731   0.774 -0.3187 -0.5520  0.2687
  263MOL    C1837222   5.739   4.757   0.667 -0.4110  0.3738  0.2137
  263MOL    N1937223   5.655   4.774   0.585  0.1656  0.1441  0.0384
  263MOL    H2037224   5.798   4.824   0.973  0.6941  0.0077  0.3508
  263MOL    H2137225   5.826   4.664   0.982 -1.7150 -2.6150 -1.8322
  263MOL    H2237226   5.872   4.627   0.765 -2.1988 -1.3047  1.9444
  263MOL    C2337227   5.960   4.828   0.778  0.9922  0.0205  0.1771
  263MOL    C2437228   6.072   4.781   0.877 -0.2070  0.2362  0.1504
  263MOL    C2537229   6.144   4.659   0.833  0.0904  0.0197  0.2799
  263MOL    N2637230   6.209   4.566   0.808  0.5992  0.6282  0.1877
  263MOL    H2737231   5.996   4.826   0.675 -0.8774 -0.3956 -0.4809
  263MOL    H2837232   5.927   4.929   0.800 -0.0520 -0.3540  0.3413
  263MOL    H2937233   6.027   4.751   0.972 -3.2452  0.0040 -1.3202
  263MOL    C3037234   6.179   4.899   0.904  0.1657  0.6792 -0.0524
  263MOL    C3137235   6.156   4.975   1.035 -0.2437  0.4862 -0.0924
  263MOL    C3237236   6.019   5.028   1.038 -0.3794 -0.8308 -0.5940
  263MOL    N3337237   5.913   5.068   1.041 -0.6162 -0.1728  0.2646
  263MOL    H3437238   6.277   4.853   0.906  0.1124  0.4741 -1.3883
  263MOL    H3537239   6.171   4.970   0.822 -0.9258  0.1577 -0.4099
  263MOL    H3637240   6.207   5.071   1.038  1.3619 -0.3261 -0.7750
  263MOL    C3737241   6.199   4.899   1.166  0.0397 -0.3120 -0.3142
  263MOL    C3837242   6.362   4.902   1.193  0.6078  0.5800 -0.4481
  263MOL    C3937243   6.399   5.040   1.179 -0.0021  0.0239 -0.8558
  263MOL    N4037244   6.429   5.152   1.164  0.0215 -0.1435  0.1609
  263MOL    H4137245   6.150   4.946   1.251  0.3192 -0.7551  0.0958
  263MOL    H4237246   6.151   4.801   1.174 -0.3447  0.0192  2.0992
  263MOL    H4337247   6.407   4.845   1.112 -0.2377 -1.6062  0.5808
  263MOL    C4437248   6.390   4.836   1.329 -0.3169  0.4726  0.2500
  263MOL    C4537249   6.528   4.820   1.392 -0.4780  0.9369  0.6016
  263MOL    C4637250   6.527   4.807   1.535  0.1174 -0.5267  0.1403
  263MOL    N4737251   6.527   4.796   1.652 -0.8917 -0.5284  0.0454
  263MOL    H4837252   6.353   4.916   1.394 -0.3904 -0.5252  1.4486
  263MOL    H4937253   6.330   4.749   1.353 -1.6450  1.4446  0.5192
  263MOL    H5037254   6.584   4.911   1.370  1.6973 -0.6469 -0.7228
  263MOL    C5137255   6.607   4.698   1.325 -0.5746  0.4630  0.3173
  263MOL    C5237256   6.560   4.548   1.363  0.5611 -0.0616  0.6999
  263MOL    C5337257   6.420   4.516   1.313 -0.2313  0.5047 -0.2267
  263MOL    N5437258   6.312   4.491   1.276 -0.5614 -0.3560 -0.1145
  263MOL    H5537259   6.614   4.709   1.217 -0.8191  2.2085  0.4595
  263MOL    H5637260   6.711   4.712   1.354 -0.3047  0.3417 -0.5923
  263MOL    H5737261   6.554   4.536   1.471 -0.9869  1.3633  0.7883
  263MOL    C5837262   6.663   4.442   1.317  0.4081 -0.6099  0.7318
  263MOL    C5937263   6.661   4.301   1.377 -0.2074 -0.2886  0.4031
  263MOL    C6037264   6.539   4.230   1.337 -0.2743  0.1797 -0.6847
  263MOL    N6137265   6.440   4.180   1.301 -0.0026 -0.6271 -0.1688
  263MOL    H6237266   6.646   4.425   1.210  1.7310 -0.5707  0.5011
  263MOL    H6337267   6.764   4.479   1.337 -0.3538  2.1027 -0.2651
  263MOL    H6437268   6.649   4.306   1.486 -1.5711 -0.9650  0.3026
  263MOL    C6537269   6.793   4.237   1.349 -0.3600 -0.4326 -0.2297
  263MOL    C6637270   6.809   4.085   1.402  0.0144 -0.9701  0.1879
  263MOL    C6737271   6.726   3.989   1.324 -0.5424 -0.1629 -0.4547
  263MOL    N6837272   6.656   3.917   1.265 -0.0674  0.2253  0.3234
  263MOL    H6937273   6.811   4.236   1.241 -1.3405  1.0819 -0.4106
  263MOL    H7037274   6.869   4.305   1.387  0.5576 -1.5902  0.0500
  263MOL    H7137275   6.762   4.094   1.500 -0.9152  1.8623 -0.4510
  263MOL    C7237276   6.957   4.044   1.421  0.2306  0.2373  0.2432
  263MOL    C7337277   7.049   4.009   1.303 -0.2956  0.3306  0.1309
  263MOL    C7437278   7.012   3.878   1.248 -0.2114  0.0234  0.1332
  263MOL    N7537279   6.987   3.771   1.211  0.5691 -0.6768 -0.0020
  263MOL    H7637280   7.013   4.117   1.479  2.1064  0.2332 -1.5359
  263MOL    H7737281   6.955   3.961   1.492  0.4325 -0.6160 -0.7302
  263MOL    H7837282   7.149   4.004   1.345  1.5103  2.6457 -3.6058
  263MOL    C7937283   7.051   4.119   1.197  0.4117  0.3942  0.5820
  263MOL    C8037284   7.180   4.136   1.118 -0.1676 -0.6377  0.0248
  263MOL    C8137285   7.291   4.173   1.203 -0.2467 -0.5000  0.8534
  263MOL    N8237286   7.380   4.200   1.271  0.2739 -0.2017  0.4205
  263MOL    H8337287   6.965   4.094   1.135  1.1195 -0.4378 -0.0823
  263MOL    H8437288   7.037   4.219   1.238 -2.9143 -0.0313  0.6274
  263MOL    H8537289   7.170   4.210   1.038 -1.7527 -0.8035  0.0565
  263MOL    C8637290   7.227   4.007   1.042 -0.0484 -0.2319 -0.0602
  263MOL    C8737291   7.125   3.955   0.945 -1.0656  0.0492  0.1816
  263MOL    C8837292   7.103   4.052   0.834  0.1440  0.4023 -0.5495
  263MOL    N8937293   7.089   4.124   0.746  0.4490  0.1040 -0.0384
  263MOL    H9037294   7.327   4.032   1.006  0.2428  1.4194  1.7847
  263MOL    H9137295   7.235   3.923   1.110 -1.7209 -2.3485 -2.3833
  263MOL    H9237296   7.029   3.936   0.992 -0.1007 -1.0131  1.7435
  263MOL    C9337297   7.180   3.823   0.888  0.0914  0.5233 -0.3504
  263MOL    C9437298   7.082   3.734   0.815  0.5655  0.0779  0.1130
  263MOL    C9537299   7.015   3.792   0.696 -1.0654 -0.0051 -0.1930
  263MOL    N9637300   6.961   3.829   0.603 -0.5280  0.0620 -0.4841
  263MOL    H9737301   7.259   3.855   0.821  1.0797  0.5499  0.8070
  263MOL    H9837302   7.236   3.767   0.963 -0.9571  0.1972  0.2026
  263MOL    H9937303   7.003   3.726   0.890 -1.1374 -1.5847 -1.7836
  263MOL   C10037304   7.147   3.599   0.781 -0.5141  0.7009  0.0098
  263MOL   C10137305   7.048   3.510   0.700 -0.0026 -0.1613  0.1438
  263MOL   C10237306   7.132   3.402   0.646 -0.1178  0.1388  0.0436
  263MOL   N10337307   7.203   3.317   0.611 -0.3589  0.8075  0.5304
  263MOL   H10437308   7.236   3.625   0.725 -0.3552  1.6344  0.6707
  263MOL   H10537309   7.169   3.536   0.867  0.0838  0.5004 -0.2933
  263MOL   H10637310   7.009   3.559   0.611  0.0671 -3.0079 -1.5324
  263MOL   C10737311   6.929   3.458   0.781 -0.0051 -0.3641  0.1102
  263MOL   C10837312   6.826   3.383   0.687 -0.1787  0.4764 -0.2888
  263MOL   C10937313   6.749   3.293   0.768 -0.1694  0.0923 -0.1037
  263MOL   N11037314   6.688   3.218   0.831 -0.4236 -0.8871 -0.9217
  263MOL   H11137315   6.971   3.385   0.850  1.8336 -1.3578 -1.9746
  263MOL   H11237316   6.876   3.541   0.827 -1.3944  0.3459 -2.6741
  263MOL   H11337317   6.886   3.313   0.628 -0.0665  0.9706 -0.7626
  263MOL   C11437318   6.741   3.484   0.606  0.7239 -0.2916  0.4391
  263MOL   C11537319   6.643   3.437   0.495  0.2446 -0.0957  0.3113
  263MOL   C11637320   6.689   3.324   0.410 -0.9619  0.5525  0.3379
  263MOL   N11737321   6.725   3.235   0.344  0.2956  0.4693 -0.3235
  263MOL   H11837322   6.700   3.551   0.682  1.3947  2.5653 -1.6455
  263MOL   H11937323   6.819   3.543   0.559  2.5848 -2.5431  0.5859
  263MOL   H12037324   6.628   3.517   0.423  1.6996 -0.5084 -0.4849
  263MOL   C12137325   6.503   3.402   0.550 -0.3317 -0.2182 -0.3430
  263MOL   C12237326   6.391   3.368   0.439  0.0630 -0.3659  0.8264
  263MOL   C12337327   6.399   3.232   0.380 -0.0224  0.0091 -0.1383
  263MOL   N12437328   6.409   3.124   0.329 -0.3275 -0.1825 -0.2048
  263MOL   H12537329   6.516   3.319   0.620 -2.5040  0.6211  1.1318
  263MOL   H12637330   6.462   3.491   0.599  0.3795  0.3968 -0.8595
  263MOL   H12737331   6.398   3.436   0.354 -0.0443  1.2054  2.0435
  263MOL   C12837332   6.244   3.387   0.498 -0.4007 -0.0440  0.4615
  263MOL   C12937333   6.180   3.525   0.530 -0.3837  0.1394 -0.2670
  263MOL   C13037334   6.223   3.625   0.430  0.8275 -0.1965  0.2456
  263MOL   N13137335   6.265   3.708   0.356 -0.2276  0.0203 -0.0838
  263MOL   H13237336   6.183   3.333   0.425  1.6862 -1.0164 -0.6137
  263MOL   H13337337   6.249   3.311   0.576 -1.5571 -2.6734 -1.9160
  263MOL   H13437338   6.194   3.567   0.630  0.7513  0.7963 -0.6943
  263MOL   C13537339   6.031   3.510   0.523  0.8964  0.6787 -0.1592
  263MOL   C13637340   5.941   3.638   0.553 -0.0517 -0.2486  0.2246
  263MOL   C13737341   5.940   3.742   0.454 -0.0586  0.5279  0.1347
  263MOL   N13837342   5.945   3.827   0.378 -0.3959 -0.0668 -0.1774
  263MOL   H13937343   5.990   3.477   0.427 -1.7848 -0.4188  1.2838
  263MOL   H14037344   6.006   3.444   0.607 -0.9302  2.5036  0.7757
  263MOL   H14137345   5.963   3.687   0.648 -1.7236  0.4762  0.2449
  263MOL   H14237346   5.833   3.626   0.559 -0.3909  1.7116 -1.5059
  264MOL     C137347   6.488   6.655   4.325 -0.1206 -0.0323 -0.3196
  264MOL     C237348   6.535   6.783   4.386  0.5674 -0.0703 -0.3778
  264MOL     C337349   6.541   6.755   4.534  0.6093 -0.2594 -0.7062
  264MOL     N437350   6.553   6.728   4.647  0.9162 -0.2856  0.4384
  264MOL     H537351   6.467   6.672   4.219 -1.6662 -2.5849 -0.4647
  264MOL     H637352   6.395   6.611   4.360  0.5241 -0.1629  1.2732
  264MOL     H737353   6.469   6.868   4.370  2.1127  1.2961  0.3356
  264MOL     H837354   6.569   6.582   4.326 -0.2907 -0.2323 -0.9465
  264MOL     C937355   6.667   6.844   4.319  0.4326  0.2946  0.0541
  264MOL    C1037356   6.711   6.973   4.386  0.5812 -0.5431 -0.2144
  264MOL    C1137357   6.843   7.010   4.335 -0.4506 -0.6506 -0.0566
  264MOL    N1237358   6.947   7.042   4.307  0.2045  0.1235 -0.2897
  264MOL    H1337359   6.739   6.762   4.314 -0.7208 -0.8804  2.0069
  264MOL    H1437360   6.647   6.863   4.214  1.7581 -0.2781 -0.3101
  264MOL    H1537361   6.747   6.955   4.488 -2.0369 -0.1848  0.8122
  264MOL    C1637362   6.610   7.090   4.388 -0.1118  0.2985  0.4267
  264MOL    C1737363   6.606   7.166   4.257  0.1954 -0.0214  0.6712
  264MOL    C1837364   6.587   7.094   4.128 -0.0276  1.2542  0.6165
  264MOL    N1937365   6.584   7.035   4.027 -0.8691  0.3225  0.3889
  264MOL    H2037366   6.511   7.055   4.417  0.0763 -1.4486 -0.9858
  264MOL    H2137367   6.640   7.161   4.465 -0.5307  1.2943 -0.3204
  264MOL    H2237368   6.696   7.227   4.249 -0.3971  0.7489 -0.2270
  264MOL    C2337369   6.498   7.276   4.257 -0.2264 -0.3206  0.2104
  264MOL    C2437370   6.485   7.365   4.123 -0.4118  0.4195  0.2788
  264MOL    C2537371   6.377   7.454   4.145 -0.0629 -0.4619 -0.3734
  264MOL    N2637372   6.293   7.534   4.164 -0.6585 -0.4313  0.3807
  264MOL    H2737373   6.401   7.228   4.271 -0.8243  0.9834  0.6038
  264MOL    H2837374   6.513   7.334   4.348  1.4660 -1.4715  0.7007
  264MOL    H2937375   6.464   7.313   4.030  0.6458  1.4629 -0.5553
  264MOL    C3037376   6.614   7.441   4.100  0.1055  0.4397  0.1515
  264MOL    C3137377   6.622   7.513   3.967 -0.3198 -0.0204  0.1775
  264MOL    C3237378   6.729   7.609   3.990 -0.0855  0.2045  0.0575
  264MOL    N3337379   6.811   7.691   4.007 -0.2710  0.1727 -0.5604
  264MOL    H3437380   6.612   7.522   4.172  0.9671  0.1087  0.5532
  264MOL    H3537381   6.697   7.377   4.129 -0.7113 -1.7236 -2.0889
  264MOL    H3637382   6.533   7.571   3.940 -1.9502 -2.8023 -0.6606
  264MOL    C3737383   6.645   7.432   3.838 -0.5560 -0.3078 -1.0803
  264MOL    C3837384   6.673   7.520   3.716 -0.4500  0.1989 -0.2239
  264MOL    C3937385   6.788   7.462   3.644  0.4377  0.3099 -0.6434
  264MOL    N4037386   6.875   7.412   3.585 -0.8809 -0.1441  0.5242
  264MOL    H4137387   6.720   7.357   3.862 -0.3485  0.3461  0.3674
  264MOL    H4237388   6.555   7.372   3.821 -0.8439  0.2458 -1.5131
  264MOL    H4337389   6.699   7.618   3.756 -1.1541 -0.0228  0.7895
  264MOL    C4437390   6.540   7.535   3.632  0.0515 -0.2616  0.0508
  264MOL    C4537391   6.532   7.657   3.540 -0.0476  0.4127 -0.3331
  264MOL    C4637392   6.654   7.706   3.478 -0.0483  0.7167 -0.0791
  264MOL    N4737393   6.758   7.736   3.426  0.5280  0.2450  0.2381
  264MOL    H4837394   6.519   7.443   3.577 -3.5413 -0.0512  0.9452
  264MOL    H4937395   6.458   7.526   3.703  0.1797  0.0709  0.2420
  264MOL    H5037396   6.514   7.743   3.605  0.7834 -0.0775  0.5657
  264MOL    C5137397   6.408   7.639   3.441 -0.1165 -0.4377  0.3029
  264MOL    C5237398   6.268   7.635   3.507  0.0201 -0.0641  0.3222
  264MOL    C5337399   6.235   7.762   3.582  0.5499 -0.5048  0.3184
  264MOL    N5437400   6.215   7.856   3.638 -0.2825  0.5525 -0.6652
  264MOL    H5537401   6.408   7.722   3.370 -1.9741  0.2790  1.1029
  264MOL    H5637402   6.430   7.552   3.379 -0.5666  0.2234 -0.7959
  264MOL    H5737403   6.258   7.551   3.575  1.1022  0.9954  1.8204
  264MOL    C5837404   6.163   7.615   3.393  0.4929  0.6636 -0.1778
  264MOL    C5937405   6.012   7.590   3.429  0.1686 -0.3161 -0.3266
  264MOL    C6037406   5.944   7.664   3.534 -0.8166  0.1428 -0.5124
  264MOL    N6137407   5.893   7.722   3.619  0.0945 -0.9261  0.3283
  264MOL    H6237408   6.173   7.702   3.328  1.8219 -1.6788 -3.2876
  264MOL    H6337409   6.199   7.526   3.340  0.0376 -0.5361  1.4921
  264MOL    H6437410   6.000   7.488   3.464  0.8427  0.3967  2.0984
  264MOL    C6537411   5.930   7.589   3.297  0.5853 -0.1559  0.0569
  264MOL    C6637412   5.838   7.711   3.287 -0.0207 -0.5054  0.4731
  264MOL    C6737413   5.908   7.833   3.333 -0.3353 -0.0564 -0.3280
  264MOL    N6837414   5.961   7.930   3.368  0.7464  0.6464 -0.3944
  264MOL    H6937415   5.997   7.579   3.211 -0.3166  1.0986 -0.8152
  264MOL    H7037416   5.870   7.499   3.289 -0.3484  0.3343  1.4986
  264MOL    H7137417   5.758   7.696   3.360  0.2451 -0.0264  0.8663
  264MOL    C7237418   5.785   7.730   3.141 -0.7521  0.1810 -0.0529
  264MOL    C7337419   5.894   7.758   3.036 -0.3625  0.2733 -0.2910
  264MOL    C7437420   5.937   7.635   2.962  0.1379  0.5655 -0.3922
  264MOL    N7537421   5.976   7.538   2.904 -0.5329 -0.3420  0.2361
  264MOL    H7637422   5.711   7.652   3.120 -2.5507  0.9574  2.9955
  264MOL    H7737423   5.722   7.819   3.140 -1.2771 -0.1226  2.2107
  264MOL    H7837424   5.977   7.805   3.087  0.5858  0.4153 -1.9207
  264MOL    C7937425   5.847   7.868   2.942  0.4690 -0.4705 -0.2462
  264MOL    C8037426   5.953   7.928   2.849 -0.2033 -0.0693 -0.0761
  264MOL    C8137427   5.894   7.970   2.721 -0.1850 -0.8195  0.1876
  264MOL    N8237428   5.850   8.008   2.621  0.6996 -0.2240 -0.5410
  264MOL    H8337429   5.765   7.827   2.883 -0.6781 -0.5055  1.3303
  264MOL    H8437430   5.800   7.959   2.979 -1.7139 -0.8833 -1.8982
  264MOL    H8537431   6.019   7.845   2.822 -2.2450 -1.3256 -1.3210
  264MOL    C8637432   6.050   8.025   2.930 -0.2418  0.1870  1.1487
  264MOL    C8737433   6.126   8.120   2.838  0.5739 -0.7871  0.4977
  264MOL    C8837434   6.046   8.237   2.799  0.2412 -0.5235 -0.8348
  264MOL    N8937435   5.983   0.018   2.772  0.5358 -0.5039 -0.5990
  264MOL    H9037436   6.003   8.068   3.018  0.5937  1.6655  0.8792
  264MOL    H9137437   6.121   7.955   2.975  0.5058  1.3690  1.8452
  264MOL    H9237438   6.158   8.063   2.751 -1.1912 -1.4101  0.2447
  264MOL    C9337439   6.247   8.192   2.900  0.3217  0.7494  0.0449
  264MOL    C9437440   6.358   8.098   2.949 -0.1914  0.4207 -0.4434
  264MOL    C9537441   6.367   7.974   2.875 -0.1284 -0.0211 -0.4993
  264MOL    N9637442   6.370   7.876   2.813  0.5127  0.8843  0.4035
  264MOL    H9737443   6.285   8.269   2.833  1.1762  0.9881  0.7983
  264MOL    H9837444   6.215   8.247   2.989 -0.8184 -0.3418  0.3323
  264MOL    H9937445   6.324   8.051   3.041 -0.7409 -0.9339 -1.3228
  264MOL   C10037446   6.495   8.162   2.972  0.0736  0.4019  0.1876
  264MOL   C10137447   6.563   8.227   2.850 -0.0679 -0.3874  0.1597
  264MOL   C10237448   6.508   0.050   2.834  0.2393 -0.1235  0.0332
  264MOL   N10337449   6.461   0.159   2.823 -0.3053  0.0564  0.3496
  264MOL   H10437450   6.506   8.220   3.064  2.6534  2.3954 -1.3075
  264MOL   H10537451   6.559   8.075   2.985 -0.7336 -0.0434  1.2570
  264MOL   H10637452   6.520   8.171   2.767 -0.0324  0.1207 -0.2080
  264MOL   C10737453   6.719   8.219   2.864  0.5018  0.0815 -0.1775
  264MOL   C10837454   6.789   8.268   2.730 -0.3992  0.1305 -0.8216
  264MOL   C10937455   6.788   0.106   2.711  0.0228 -0.8372  0.7177
  264MOL   N11037456   6.787   0.218   2.686 -0.0605  0.4028  0.0331
  264MOL   H11137457   6.756   8.281   2.946  1.0022 -0.1841 -0.1958
  264MOL   H11237458   6.757   8.117   2.870  0.0663  0.0170  1.9164
  264MOL   H11337459   6.725   8.230   2.651 -0.9807  0.4373 -0.5045
  264MOL   C11437460   6.936   8.212   2.716  0.4641  0.7895  0.5666
  264MOL   C11537461   7.035   8.264   2.612 -0.5156  0.4362 -0.0580
  264MOL   C11637462   7.178   8.226   2.640 -1.0599  1.0769  0.7577
  264MOL   N11737463   7.290   8.202   2.664  0.3727  0.4906 -0.3658
  264MOL   H11837464   6.976   8.248   2.810 -0.9985 -0.7016  1.8078
  264MOL   H11937465   6.937   8.103   2.723  0.7434  0.6325 -1.4922
  264MOL   H12037466   7.032   0.061   2.618  0.0410  0.3498  2.1073
  264MOL   C12137467   6.983   8.231   2.474 -0.3606 -0.4012  0.3592
  264MOL   C12237468   7.076   8.245   2.355 -0.0853  0.4395  0.0859
  264MOL   C12337469   7.175   8.130   2.343  0.2572 -0.0334 -0.0224
  264MOL   N12437470   7.239   8.036   2.330 -0.2668 -0.1205 -0.1143
  264MOL   H12537471   6.944   8.130   2.480  1.4409 -1.1392 -0.0119
  264MOL   H12637472   6.899   8.299   2.462 -0.3971 -0.1152  2.1010
  264MOL   H12737473   7.124   0.027   2.381 -0.2718  0.2561  1.1413
  264MOL   C12837474   7.011   8.289   2.219  0.4344 -0.3262 -0.3746
  264MOL   C12937475   6.950   8.172   2.145  0.3648 -0.4183 -0.1855
  264MOL   C13037476   6.875   8.072   2.220  0.2809  0.3391  0.0144
  264MOL   N13137477   6.809   7.996   2.276 -0.0169 -0.0521  0.0886
  264MOL   H13237478   6.941   0.058   2.233  1.5332  0.2727  2.0286
  264MOL   H13337479   7.100   0.014   2.168  0.2626 -0.2565 -0.6189
  264MOL   H13437480   7.037   8.121   2.104 -1.0868 -3.8089  0.7069
  264MOL   C13537481   6.868   8.232   2.029  0.1308  0.3150 -0.2301
  264MOL   C13637482   6.833   8.126   1.925 -0.2418 -0.2355 -0.2358
  264MOL   C13737483   6.778   8.178   1.798 -0.1922 -0.5878 -0.8011
  264MOL   N13837484   6.729   8.218   1.700  0.0276  0.1747 -0.1473
  264MOL   H13937485   6.779   8.275   2.076  1.1289 -0.3219  2.3414
  264MOL   H14037486   6.925   8.312   1.982 -1.4711  2.6141  1.6059
  264MOL   H14137487   6.747   8.071   1.963  0.1416  0.0443  1.0633
  264MOL   H14237488   6.900   8.048   1.891  0.3541  0.3787 -0.4799
  265MOL     C137489   5.060   5.544   3.190  0.0804  0.1123  0.1393
  265MOL     C237490   4.949   5.623   3.247  0.2536 -0.4334  0.6783
  265MOL     C337491   4.826   5.542   3.263  0.4568  0.1715 -0.5105
  265MOL     N437492   4.719   5.485   3.271 -0.6916 -0.8782 -0.6407
  265MOL     H537493   5.019   5.456   3.139 -1.2996  0.9344 -0.1899
  265MOL     H637494   5.134   5.506   3.261 -1.7809 -0.2035  1.9425
  265MOL     H737495   4.920   5.698   3.173  2.4213  1.3111  1.5152
  265MOL     H837496   5.121   5.590   3.113  1.5314  1.2622  1.9499
  265MOL     C937497   4.992   5.686   3.384 -0.2670 -0.1621 -0.3136
  265MOL    C1037498   4.898   5.780   3.453 -0.2410  0.4286  0.1457
  265MOL    C1137499   4.800   5.831   3.357  0.1659 -0.2925 -0.6392
  265MOL    N1237500   4.719   5.863   3.278  0.2722  0.3241 -0.4272
  265MOL    H1337501   5.034   5.606   3.445 -0.2165 -0.6474 -0.9703
  265MOL    H1437502   5.082   5.742   3.356  1.2831 -2.0087  0.8392
  265MOL    H1537503   4.942   5.873   3.487  0.5367  0.5520 -1.1862
  265MOL    C1637504   4.827   5.703   3.570 -0.4484  0.2483 -0.3972
  265MOL    C1737505   4.905   5.667   3.690  0.6855  0.8824 -0.1871
  265MOL    C1837506   5.001   5.771   3.721 -0.2567 -0.0197 -0.3095
  265MOL    N1937507   5.077   5.855   3.752  0.3782  1.0702  0.4920
  265MOL    H2037508   4.752   5.776   3.599 -0.9574 -0.5171  0.2198
  265MOL    H2137509   4.767   5.618   3.538  1.3186 -1.5816  1.0609
  265MOL    H2237510   4.972   5.586   3.662  0.9797  0.4737  1.6466
  265MOL    C2337511   4.820   5.618   3.810  0.5572 -1.3603 -0.0382
  265MOL    C2437512   4.900   5.569   3.932  0.0021  0.0300  0.0512
  265MOL    C2537513   5.021   5.489   3.892  0.7054 -1.1024 -0.3224
  265MOL    N2637514   5.112   5.422   3.870 -0.5455 -0.4606  0.4157
  265MOL    H2737515   4.736   5.686   3.829  0.4102 -0.6893 -2.7474
  265MOL    H2837516   4.769   5.529   3.772 -0.6883 -0.9172  0.5468
  265MOL    H2937517   4.843   5.486   3.973  1.0572 -0.9677 -0.4652
  265MOL    C3037518   4.932   5.680   4.037  0.1444 -0.1947  0.2487
  265MOL    C3137519   5.034   5.636   4.151 -0.0726  0.1190 -0.8037
  265MOL    C3237520   5.094   5.761   4.207 -0.2177  0.0372 -0.0313
  265MOL    N3337521   5.144   5.856   4.253 -0.4987  0.0621  0.7913
  265MOL    H3437522   4.990   5.751   3.977  0.7348  0.7035  1.8317
  265MOL    H3537523   4.842   5.730   4.073 -0.0065 -0.9577  0.9409
  265MOL    H3637524   5.121   5.590   4.105  0.6983 -0.4631  1.1740
  265MOL    C3737525   4.964   5.537   4.250 -0.0216 -0.4090  0.8484
  265MOL    C3837526   5.043   5.443   4.341 -0.0195  0.0412  0.0611
  265MOL    C3937527   5.128   5.347   4.273  0.3614  0.0152 -0.7088
  265MOL    N4037528   5.192   5.270   4.221 -0.0424 -0.5970 -0.1143
  265MOL    H4137529   4.894   5.604   4.301 -1.3211 -1.4511  0.4419
  265MOL    H4237530   4.903   5.470   4.191 -0.6982  0.3197  0.7080
  265MOL    H4337531   4.964   5.376   4.376  0.3051 -0.4097 -0.0606
  265MOL    C4437532   5.102   5.497   4.471  0.2274  0.2524  0.3218
  265MOL    C4537533   4.995   5.542   4.577 -0.1924 -0.3381  0.4154
  265MOL    C4637534   4.869   5.468   4.570 -0.1322 -0.1036  0.1389
  265MOL    N4737535   4.766   5.414   4.565 -0.7305  0.0498 -0.2649
  265MOL    H4837536   5.178   5.429   4.509  2.1233  1.7369 -0.7423
  265MOL    H4937537   5.157   5.587   4.441  2.2286 -0.1645  2.5594
  265MOL    H5037538   4.954   5.635   4.535  1.0577 -0.6310 -1.5490
  265MOL    C5137539   5.046   5.573   4.712 -0.0614 -0.1951  0.4768
  265MOL    C5237540   4.954   5.642   4.808 -0.3899  0.3609 -0.1883
  265MOL    C5337541   4.840   5.553   4.841  0.1746 -0.3724  0.6651
  265MOL    N5437542   4.746   5.487   4.875 -0.2822 -0.1807  0.1650
  265MOL    H5537543   5.083   5.486   4.766 -0.9903 -1.1781 -0.4445
  265MOL    H5637544   5.130   5.643   4.704 -0.0542 -0.4190 -1.7018
  265MOL    H5737545   4.910   5.733   4.765 -0.9473 -0.6288 -1.7756
  265MOL    C5837546   5.028   5.694   4.931 -0.0337 -0.5672 -0.7548
  265MOL    C5937547   4.943   5.767   5.045 -0.0654  0.3428  0.4102
  265MOL    C6037548   4.897   5.657   5.137 -0.2133  0.4781 -0.1289
  265MOL    N6137549   4.855   5.575   5.209  0.4237 -0.2728 -0.6748
  265MOL    H6237550   5.084   5.609   4.971 -0.1757 -0.4722 -0.3520
  265MOL    H6337551   5.101   5.763   4.889  1.9623 -3.0987 -1.6049
  265MOL    H6437552   4.851   5.818   5.017 -1.4823 -1.8934  0.8010
  265MOL    C6537553   5.025   5.870   5.133  0.8573 -0.0421 -0.3305
  265MOL    C6637554   4.983   5.894   5.278  0.3641  0.6729  0.7035
  265MOL    C6737555   5.074   5.997   5.327  0.1239 -0.1598 -0.4037
  265MOL    N6837556   5.150   6.075   5.361  0.1700  0.0288  0.2961
  265MOL    H6937557   5.131   5.848   5.140  1.3587  2.1479 -0.7073
  265MOL    H7037558   5.017   5.964   5.079  2.1185  0.2550 -0.0192
  265MOL    H7137559   5.027   5.813   5.336  0.6184  0.7272  0.5860
  265MOL    C7237560   4.837   5.933   5.308 -0.2131 -0.1164  0.5165
  265MOL    C7337561   4.805   5.928   5.460 -0.2954 -0.4842  0.1572
  265MOL    C7437562   4.867   6.023   5.554 -0.3150 -0.9473 -0.5089
  265MOL    N7537563   4.917   6.101   5.622  0.2187  0.2603 -0.4311
  265MOL    H7637564   4.821   6.038   5.282  0.2170  0.3032  1.9478
  265MOL    H7737565   4.767   5.870   5.253 -0.1369  0.0334  0.2444
  265MOL    H7837566   4.838   5.829   5.491  0.1591 -1.4021 -3.0515
  265MOL    C7937567   4.660   5.944   5.480  1.1231  0.8542  0.0459
  265MOL    C8037568   4.571   5.826   5.436 -0.0268  0.4664  0.4150
  265MOL    C8137569   4.626   5.702   5.497  0.0781 -0.2033 -0.1867
  265MOL    N8237570   4.659   5.599   5.540  0.0648  0.1599 -0.0840
  265MOL    H8337571   4.643   5.950   5.587  1.8933 -1.6254  0.3223
  265MOL    H8437572   4.652   6.045   5.439 -1.3010 -0.0558 -1.8134
  265MOL    H8537573   4.585   5.797   5.332  3.8760  0.9034  0.7558
  265MOL    C8637574   4.421   5.841   5.456 -0.0311 -0.4496 -0.4846
  265MOL    C8737575   4.366   5.966   5.391  0.5796 -0.3043  1.0432
  265MOL    C8837576   4.390   6.079   5.486  0.1781  0.2910  0.4502
  265MOL    N8937577   4.414   6.167   5.559 -0.2363  0.1535 -0.6339
  265MOL    H9037578   4.384   5.757   5.397 -0.3532 -0.1901 -0.6487
  265MOL    H9137579   4.391   5.827   5.560 -0.0394  0.9496 -0.2992
  265MOL    H9237580   4.259   5.942   5.388  0.0277  1.5292  4.0616
  265MOL    C9337581   4.412   6.006   5.250 -0.1199 -0.0634 -0.5212
  265MOL    C9437582   4.348   6.131   5.196 -0.3469 -0.6862 -0.5037
  265MOL    C9537583   4.417   6.178   5.073 -0.0556 -0.0539 -0.0550
  265MOL    N9637584   4.470   6.214   4.977 -0.3839 -0.4811  0.2167
  265MOL    H9737585   4.520   6.017   5.250 -0.2400  1.2169 -2.2541
  265MOL    H9837586   4.377   5.923   5.189 -2.1219 -0.8167  1.5975
  265MOL    H9937587   4.367   6.220   5.257 -1.7245 -0.1469 -0.8369
  265MOL   C10037588   4.198   6.109   5.167  0.1586  0.0649 -0.4849
  265MOL   C10137589   4.120   6.233   5.124 -0.0747 -0.1809 -0.2592
  265MOL   C10237590   4.167   6.302   5.002  0.6954  0.5704 -0.3776
  265MOL   N10337591   4.203   6.363   4.913 -0.1885 -0.9005  0.1080
  265MOL   H10437592   4.197   6.043   5.080 -1.6308 -1.4059  0.6167
  265MOL   H10537593   4.148   6.047   5.241  1.2217 -0.7151 -0.4044
  265MOL   H10637594   4.119   6.307   5.205 -0.6928 -1.1875  0.6739
  265MOL   C10737595   3.965   6.202   5.106  0.0120  0.1967  0.3961
  265MOL   C10837596   3.862   6.324   5.099  0.2314  0.0411 -0.2291
  265MOL   C10937597   3.916   6.458   5.052 -0.1900 -0.1658 -0.5569
  265MOL   N11037598   3.948   6.562   5.018 -0.1547  0.0079  0.0185
  265MOL   H11137599   3.963   6.143   5.014 -0.3544  0.7438  0.0473
  265MOL   H11237600   3.931   6.127   5.177 -1.2090 -0.5291 -0.9289
  265MOL   H11337601   3.836   6.351   5.201 -0.0260  1.9073 -0.7629
  265MOL   C11437602   3.731   6.279   5.040  0.6465  0.3976 -0.7733
  265MOL   C11537603   3.622   6.386   5.026  0.1314 -0.0954  0.7087
  265MOL   C11637604   3.517   6.336   4.947  0.5476 -0.4327 -0.5292
  265MOL   N11737605   3.429   6.300   4.879 -0.0456  0.4909  0.1584
  265MOL   H11837606   3.764   6.271   4.936 -3.7258 -3.2889 -2.0344
  265MOL   H11937607   3.705   6.175   5.059 -1.0995  0.8973 -0.2972
  265MOL   H12037608   3.653   6.475   4.971 -2.0004  1.2623  1.5984
  265MOL   C12137609   3.558   6.452   5.154 -0.5445 -0.1191  0.2839
  265MOL   C12237610   3.511   6.598   5.134 -0.4876 -0.0440 -0.9134
  265MOL   C12337611   3.401   6.613   5.037  0.3588 -0.4332  0.3490
  265MOL   N12437612   3.309   6.632   4.964  0.2485  0.2431 -0.3531
  265MOL   H12537613   3.476   6.390   5.192  0.6387 -0.3715  2.5241
  265MOL   H12637614   3.637   6.450   5.229  0.9700  0.3521 -1.2758
  265MOL   H12737615   3.587   6.657   5.082 -0.1293 -0.3669 -0.7650
  265MOL   C12837616   3.477   6.664   5.267  0.3943  0.1497 -0.2111
  265MOL   C12937617   3.471   6.818   5.253  0.1073 -0.4795 -0.0277
  265MOL   C13037618   3.419   6.868   5.384 -0.4599 -0.0633 -0.0650
  265MOL   N13137619   3.376   6.914   5.479  0.2197  0.0744 -0.9316
  265MOL   H13237620   3.386   6.626   5.315  1.0862 -0.3219  0.7516
  265MOL   H13337621   3.548   6.635   5.345 -2.2784  0.5658  2.4775
  265MOL   H13437622   3.390   6.858   5.191  1.2895  2.7662  0.3984
  265MOL   C13537623   3.602   6.885   5.204  0.0885  0.2255 -0.2394
  265MOL   C13637624   3.740   6.833   5.257 -0.3019 -0.4466 -0.3078
  265MOL   C13737625   3.751   6.822   5.402  0.3328  0.4046  0.2505
  265MOL   N13837626   3.755   6.807   5.514 -0.0838  0.2299 -0.2982
  265MOL   H13937627   3.613   6.867   5.097 -0.7388  1.8324 -0.6212
  265MOL   H14037628   3.597   6.994   5.217 -0.4310  0.2506 -0.6383
  265MOL   H14137629   3.805   6.915   5.230  0.7794 -1.1626  0.1052
  265MOL   H14237630   3.784   6.742   5.216 -0.7183 -1.2081  0.8734
  266MOL     C137631   4.574   7.141   1.575 -0.3575 -0.0931  0.1927
  266MOL     C237632   4.697   7.163   1.486  0.7954 -0.5343 -0.2479
  266MOL     C337633   4.809   7.077   1.536  0.6962  0.3236 -0.0791
  266MOL     N437634   4.898   7.014   1.573  0.0317 -0.3095  0.1996
  266MOL     H537635   4.541   7.037   1.573  2.8085 -1.1774 -3.5290
  266MOL     H637636   4.493   7.208   1.547  0.4677  1.1668  0.7892
  266MOL     H737637   4.726   7.266   1.505 -0.3789 -0.5599  1.8290
  266MOL     H837638   4.589   7.164   1.680 -1.0499 -0.5954  0.4043
  266MOL     C937639   4.661   7.138   1.333  1.0835 -0.0836 -0.2176
  266MOL    C1037640   4.767   7.164   1.226 -0.4333 -0.1771 -0.0541
  266MOL    C1137641   4.877   7.252   1.268  0.1185 -0.5220 -0.7383
  266MOL    N1237642   4.962   7.315   1.306 -0.0263  0.2020 -0.4642
  266MOL    H1337643   4.630   7.034   1.324 -0.0926 -0.0223  2.6549
  266MOL    H1437644   4.567   7.188   1.309  0.3602 -1.8285 -1.1146
  266MOL    H1537645   4.719   7.223   1.148 -0.5452 -0.2543 -0.0439
  266MOL    C1637646   4.816   7.046   1.149  0.3570 -0.3865  0.0724
  266MOL    C1737647   4.718   6.938   1.090  0.3987 -0.4415  0.0986
  266MOL    C1837648   4.604   7.000   1.023 -0.0570 -0.3695  0.0687
  266MOL    N1937649   4.513   7.048   0.969  0.3482  0.2933  0.9144
  266MOL    H2037650   4.874   7.083   1.065 -1.2125  0.4303 -0.6614
  266MOL    H2137651   4.890   6.999   1.215  1.1371 -0.7734 -1.0482
  266MOL    H2237652   4.682   6.889   1.181  0.9642 -0.2323  0.4389
  266MOL    C2337653   4.790   6.836   0.996 -0.1669 -0.0736 -0.6116
  266MOL    C2437654   4.916   6.760   1.051  0.1241 -0.2038  0.3317
  266MOL    C2537655   4.887   6.697   1.179 -0.6194 -0.2765 -0.0777
  266MOL    N2637656   4.861   6.650   1.279 -0.3220 -0.3444 -0.2671
  266MOL    H2737657   4.713   6.770   0.956 -1.9353  1.0845  0.7871
  266MOL    H2837658   4.821   6.886   0.904  0.0312 -1.6018 -1.3954
  266MOL    H2937659   4.993   6.834   1.072  0.1913  0.0134 -0.6564
  266MOL    C3037660   4.968   6.667   0.944 -0.0007  0.2752  0.3461
  266MOL    C3137661   5.109   6.616   0.963 -0.8773 -0.6298  0.2872
  266MOL    C3237662   5.140   6.543   1.082  0.1287 -0.5690  0.3881
  266MOL    N3337663   5.164   6.480   1.177 -0.0570  0.2997 -0.0121
  266MOL    H3437664   4.903   6.580   0.949 -0.5605  0.6668 -0.1269
  266MOL    H3537665   4.949   6.708   0.845 -2.0180 -1.3554  0.0243
  266MOL    H3637666   5.163   6.710   0.974  1.7669 -1.9369 -1.1314
  266MOL    C3737667   5.153   6.553   0.824  0.5378  0.8018 -0.0994
  266MOL    C3837668   5.279   6.461   0.831  0.0482  0.8369 -0.0740
  266MOL    C3937669   5.303   6.403   0.699 -0.1378 -0.2653  0.6211
  266MOL    N4037670   5.323   6.352   0.597  0.3279 -0.1399 -0.6319
  266MOL    H4137671   5.068   6.497   0.786  0.8781  0.5733 -0.5264
  266MOL    H4237672   5.164   6.634   0.752  0.6783  0.0683 -0.9113
  266MOL    H4337673   5.253   6.374   0.891  1.5184  0.7132  0.4071
  266MOL    C4437674   5.399   6.521   0.913 -0.5141  0.1055 -0.0387
  266MOL    C4537675   5.540   6.465   0.890 -0.7108 -0.0738  0.1763
  266MOL    C4637676   5.580   6.472   0.748  0.0269  0.0330 -0.5650
  266MOL    N4737677   5.609   6.472   0.636 -0.0922  0.5179 -0.2558
  266MOL    H4837678   5.398   6.627   0.889  0.6182 -0.2343 -1.7071
  266MOL    H4937679   5.383   6.506   1.019  1.8558 -0.7494  0.2280
  266MOL    H5037680   5.536   6.357   0.909  2.3104 -0.3858 -0.6990
  266MOL    C5137681   5.645   6.511   0.992  0.6945  0.0922  0.0210
  266MOL    C5237682   5.637   6.435   1.125 -0.0131 -0.2729 -0.6622
  266MOL    C5337683   5.690   6.296   1.128  1.1256 -0.2290 -0.7820
  266MOL    N5437684   5.731   6.186   1.134 -0.0985 -0.0262 -0.4062
  266MOL    H5537685   5.742   6.488   0.950 -0.3548 -0.6310 -2.0678
  266MOL    H5637686   5.636   6.619   1.002  0.6792  0.0538  0.4355
  266MOL    H5737687   5.531   6.421   1.147 -0.0717  0.8577 -0.2351
  266MOL    C5837688   5.691   6.528   1.232  0.1154 -0.3275  0.3697
  266MOL    C5937689   5.685   6.466   1.371  0.0502 -0.1056  0.0333
  266MOL    C6037690   5.767   6.543   1.467 -0.1564  0.1253 -0.2938
  266MOL    N6137691   5.834   6.595   1.549 -0.1164 -0.4071 -0.3092
  266MOL    H6237692   5.792   6.563   1.215  1.1358 -2.6881  1.3792
  266MOL    H6337693   5.628   6.617   1.235  2.6962  1.7075 -2.3368
  266MOL    H6437694   5.740   6.372   1.370  1.4034  0.6759 -0.1564
  266MOL    C6537695   5.538   6.450   1.421  1.1033 -0.5223  0.0696
  266MOL    C6637696   5.510   6.307   1.462  0.3108 -0.1701  1.0822
  266MOL    C6737697   5.560   6.280   1.597 -0.4363 -0.1610  0.6032
  266MOL    N6837698   5.608   6.260   1.701 -0.6306 -0.4141 -0.6493
  266MOL    H6937699   5.515   6.519   1.503  2.2423  1.8139 -1.5144
  266MOL    H7037700   5.471   6.473   1.338  1.2470  1.1625  0.4113
  266MOL    H7137701   5.565   6.238   1.399 -0.0628 -0.8373  1.4810
  266MOL    C7237702   5.359   6.264   1.449 -0.1558 -0.3045 -0.1576
  266MOL    C7337703   5.347   6.108   1.418  0.4911  0.0608 -0.9815
  266MOL    C7437704   5.407   6.014   1.516 -0.2758 -0.7533  0.0443
  266MOL    N7537705   5.448   5.943   1.596 -0.4976  0.4931  0.2132
  266MOL    H7637706   5.315   6.284   1.547 -0.6321 -0.7523 -0.2762
  266MOL    H7737707   5.311   6.331   1.378  1.0135 -1.0382 -1.6500
  266MOL    H7837708   5.397   6.074   1.327 -0.9185 -2.2918 -0.9331
  266MOL    C7937709   5.200   6.066   1.400 -0.1210  0.8093 -0.1800
  266MOL    C8037710   5.126   6.147   1.289 -0.9590 -0.4988 -0.9347
  266MOL    C8137711   5.196   6.127   1.160 -0.0311 -0.3831  0.0432
  266MOL    N8237712   5.245   6.102   1.061  0.1902  0.0894 -0.5337
  266MOL    H8337713   5.215   5.967   1.358  0.2502  0.3725  0.9741
  266MOL    H8437714   5.137   6.042   1.485 -0.5318 -0.9560 -0.9645
  266MOL    H8537715   5.127   6.255   1.308 -0.5689 -1.0934  2.6790
  266MOL    C8637716   4.982   6.110   1.270 -0.0404 -0.2109  0.2909
  266MOL    C8737717   4.888   6.191   1.376  0.7198 -0.2309  0.5869
  266MOL    C8837718   4.954   6.239   1.500  0.7048 -0.5276 -0.6465
  266MOL    N8937719   5.001   6.278   1.599  0.6842 -0.3560 -0.1773
  266MOL    H9037720   4.957   6.136   1.168 -1.4727 -0.4206  0.5800
  266MOL    H9137721   4.962   6.002   1.268  0.3875 -0.2778 -2.6872
  266MOL    H9237722   4.817   6.119   1.416  2.4709 -2.8127 -0.8596
  266MOL    C9337723   4.813   6.303   1.308  0.1287  0.1053 -0.2041
  266MOL    C9437724   4.682   6.256   1.247 -0.5263 -0.4436 -1.5964
  266MOL    C9537725   4.600   6.177   1.339 -0.3209  0.0817 -0.9924
  266MOL    N9637726   4.541   6.113   1.413 -0.8422  0.0435  0.0234
  266MOL    H9737727   4.801   6.381   1.384 -0.7192 -1.6066  1.4915
  266MOL    H9837728   4.879   6.355   1.239 -0.1038  1.1224  0.3237
  266MOL    H9937729   4.706   6.196   1.159  1.2235  0.4274 -1.7334
  266MOL   C10037730   4.601   6.381   1.201  0.6435 -0.3406  0.2015
  266MOL   C10137731   4.526   6.469   1.308 -0.3805  0.1227  0.3480
  266MOL   C10237732   4.497   6.607   1.268  0.5533 -0.2622  0.2347
  266MOL   N10337733   4.474   6.715   1.230  0.1214 -0.4405  0.0628
  266MOL   H10437734   4.660   6.444   1.135  0.2725 -0.6406 -0.4211
  266MOL   H10537735   4.529   6.349   1.126  1.0052 -2.3584  0.6739
  266MOL   H10637736   4.598   6.486   1.388 -0.0456  1.6812 -0.2541
  266MOL   C10737737   4.393   6.403   1.374 -0.2359 -0.3873 -0.2830
  266MOL   C10837738   4.290   6.483   1.441 -0.6543  0.3352 -0.1237
  266MOL   C10937739   4.346   6.564   1.551 -0.2994 -1.0143  0.4212
  266MOL   N11037740   4.379   6.640   1.635  0.5676  0.6210 -0.4496
  266MOL   H11137741   4.345   6.332   1.307  1.0278 -0.8216 -0.7521
  266MOL   H11237742   4.419   6.321   1.442 -1.2034 -1.3707 -1.0727
  266MOL   H11337743   4.215   6.416   1.484 -0.3820  0.1060 -0.0026
  266MOL   C11437744   4.214   6.582   1.354 -0.3837 -0.0796  0.0166
  266MOL   C11537745   4.160   6.528   1.214  0.2933 -0.2278  0.4389
  266MOL   C11637746   4.085   6.406   1.233 -0.1093  0.6573 -0.2438
  266MOL   N11737747   4.023   6.309   1.254 -0.3654 -0.7121 -0.2948
  266MOL   H11837748   4.128   6.617   1.411 -0.2894  2.2905 -1.2176
  266MOL   H11937749   4.260   6.680   1.345 -0.6083 -0.0186 -0.5136
  266MOL   H12037750   4.246   6.502   1.153  0.6871  0.3265  0.7505
  266MOL   C12137751   4.076   6.645   1.152 -0.3390 -0.1376  0.1944
  266MOL   C12237752   4.153   6.766   1.104 -0.4167 -0.1181 -0.2590
  266MOL   C12337753   4.238   6.731   0.985 -0.3629  0.2966 -0.0544
  266MOL   N12437754   4.306   6.700   0.893 -0.0389  0.2551  0.1353
  266MOL   H12537755   4.022   6.610   1.064 -1.7292 -2.5852  1.9408
  266MOL   H12637756   3.999   6.682   1.218  2.5356  2.3061  2.3129
  266MOL   H12737757   4.224   6.810   1.174  1.8309 -3.7874 -0.1324
  266MOL   C12837758   4.053   6.887   1.073 -0.4163  0.1217  0.1614
  266MOL   C12937759   3.939   6.861   0.974  0.7531  0.3289  0.0432
  266MOL   C13037760   3.851   6.980   0.959 -0.5027  0.6053 -0.2828
  266MOL   N13137761   3.789   7.077   0.947 -0.2325  0.4882 -0.1107
  266MOL   H13237762   4.006   6.920   1.166  2.2677 -0.7890  1.8908
  266MOL   H13337763   4.100   6.971   1.023 -0.3803  0.7797  1.2987
  266MOL   H13437764   3.876   6.786   1.022  0.8247  0.5704  0.5172
  266MOL   C13537765   3.986   6.817   0.833 -1.1212 -0.0506  0.5438
  266MOL   C13637766   3.866   6.814   0.729  0.0687  0.1052 -0.2987
  266MOL   C13737767   3.745   6.744   0.774  0.3981 -0.5045 -0.2630
  266MOL   N13837768   3.655   6.682   0.808 -0.0163  0.1426 -0.3678
  266MOL   H13937769   4.062   6.885   0.794 -1.1781 -0.9445 -1.1849
  266MOL   H14037770   4.040   6.723   0.836 -1.3393 -0.2307 -1.1093
  266MOL   H14137771   3.904   6.768   0.638  1.9663  0.5067  0.2720
  266MOL   H14237772   3.837   6.917   0.708 -0.8840  0.1838  1.3193
  267MOL     C137773   0.505   2.516   7.574  0.3221 -0.6237  0.4001
  267MOL     C237774   0.598   2.512   7.452 -0.7014  0.1810 -0.3492
  267MOL     C337775   0.536   2.551   7.325  0.3550  0.4932  0.4024
  267MOL     N437776   0.484   2.585   7.226 -0.1929  0.2028 -0.4691
  267MOL     H537777   0.543   2.434   7.636  0.0093 -1.2484 -0.2337
  267MOL     H637778   0.399   2.511   7.551  0.4460 -0.7448 -0.1572
  267MOL     H737779   0.623   2.406   7.446  1.2352  0.3971  2.8811
  267MOL     H837780   0.520   2.607   7.632 -0.5507 -1.0665  1.3350
  267MOL     C937781   0.725   2.594   7.473 -0.6666 -0.5021 -0.6271
  267MOL    C1037782   0.839   2.572   7.370 -0.1455  0.0955 -0.0302
  267MOL    C1137783   0.922   2.692   7.353  0.0497 -0.2247  0.3131
  267MOL    N1237784   0.982   2.789   7.332 -0.4585 -0.0898  0.0402
  267MOL    H1337785   0.694   2.699   7.468 -0.8099 -0.5331 -0.3703
  267MOL    H1437786   0.759   2.572   7.574 -0.7945  1.5823 -0.1151
  267MOL    H1537787   0.804   2.557   7.268  2.0107 -1.9711 -0.5132
  267MOL    C1637788   0.911   2.438   7.423  0.1443 -0.7698 -0.4846
  267MOL    C1737789   1.041   2.408   7.352  0.4788 -0.2044 -0.0972
  267MOL    C1837790   1.137   2.331   7.435 -0.2168 -0.2796  0.6844
  267MOL    N1937791   1.211   2.270   7.495 -0.5856  0.3473  0.0270
  267MOL    H2037792   0.947   2.470   7.522  0.0070 -2.3667  0.0922
  267MOL    H2137793   0.848   2.351   7.435 -1.7569  0.7124  0.6205
  267MOL    H2237794   1.095   2.501   7.334  1.0825  0.0619  2.8390
  267MOL    C2337795   1.016   2.348   7.212  0.6401 -0.1532  0.3037
  267MOL    C2437796   1.129   2.371   7.110 -0.5922  0.2162  0.0419
  267MOL    C2537797   1.246   2.288   7.146 -0.2645 -0.3419 -0.0130
  267MOL    N2637798   1.337   2.223   7.170 -0.0354  0.2854 -0.2254
  267MOL    H2737799   1.014   2.240   7.221 -2.3723 -0.0834  1.3504
  267MOL    H2837800   0.929   2.389   7.160  0.6836  0.5463  0.7705
  267MOL    H2937801   1.164   2.474   7.108  1.3459 -0.4243 -0.4961
  267MOL    C3037802   1.074   2.352   6.963 -0.3664 -0.1898  0.1050
  267MOL    C3137803   1.175   2.393   6.847  0.4147  0.3043 -0.5937
  267MOL    C3237804   1.190   2.539   6.830 -0.5837  0.5277 -0.1394
  267MOL    N3337805   1.197   2.652   6.816 -0.3955 -0.0681  0.2184
  267MOL    H3437806   1.043   2.248   6.960 -1.6220  0.1574  0.8311
  267MOL    H3537807   0.984   2.413   6.956 -0.4784 -0.3513  0.1414
  267MOL    H3637808   1.115   2.382   6.757 -0.4715  0.7939 -0.0791
  267MOL    C3737809   1.316   2.318   6.829  0.3263  0.6850  0.1846
  267MOL    C3837810   1.297   2.166   6.799 -0.0960 -0.7011 -0.2746
  267MOL    C3937811   1.182   2.147   6.702  0.0210  0.5330 -0.7774
  267MOL    N4037812   1.095   2.150   6.625  0.6781 -0.3848 -0.3408
  267MOL    H4137813   1.350   2.355   6.732 -1.7591 -0.5196 -1.0612
  267MOL    H4237814   1.376   2.347   6.915  1.1653  1.5381 -0.6750
  267MOL    H4337815   1.272   2.106   6.887  0.9450  1.2112  1.3674
  267MOL    C4437816   1.411   2.081   6.757  0.2215  0.7689 -0.4671
  267MOL    C4537817   1.501   2.058   6.879 -0.1322  0.7021  0.7167
  267MOL    C4637818   1.451   1.948   6.966  0.4193  0.6749 -0.2665
  267MOL    N4737819   1.422   1.863   7.039 -0.4398  0.3649 -0.3015
  267MOL    H4837820   1.375   1.983   6.725  2.4473 -0.2064 -0.1021
  267MOL    H4937821   1.468   2.132   6.680  1.9449 -0.7187 -0.2109
  267MOL    H5037822   1.504   2.153   6.932  0.7015  1.5507 -0.7956
  267MOL    C5137823   1.648   2.024   6.837 -0.0835  0.2574 -0.4561
  267MOL    C5237824   1.676   1.876   6.809 -0.0040  0.0319 -0.0049
  267MOL    C5337825   1.583   1.813   6.708 -0.0853 -0.3201  0.1142
  267MOL    N5437826   1.515   1.766   6.627 -0.2313  0.2596 -0.4512
  267MOL    H5537827   1.682   2.095   6.762 -1.0624  1.3625  0.1307
  267MOL    H5637828   1.703   2.046   6.929 -0.4240 -0.0304 -0.1830
  267MOL    H5737829   1.673   1.824   6.904 -0.2346  0.1638  0.0613
  267MOL    C5837830   1.825   1.852   6.768  0.1924  0.2470 -0.1097
  267MOL    C5937831   1.853   1.703   6.728  0.3491 -1.0439  0.2901
  267MOL    C6037832   1.792   1.675   6.596 -0.5487 -0.0080 -0.9417
  267MOL    N6137833   1.748   1.642   6.495 -0.0901 -0.1955 -0.2178
  267MOL    H6237834   1.861   1.911   6.683  0.3463 -1.2167 -1.0724
  267MOL    H6337835   1.892   1.885   6.847  0.1334 -0.9073  0.4229
  267MOL    H6437836   1.799   1.645   6.802  0.3203  0.6571  1.6339
  267MOL    C6537837   2.002   1.666   6.752  0.4730 -0.0341  0.2944
  267MOL    C6637838   2.035   1.519   6.752 -0.9559  0.1476  0.8543
  267MOL    C6737839   1.979   1.435   6.863 -0.5389 -0.4346 -0.0197
  267MOL    N6837840   1.942   1.373   6.950 -0.0940 -0.3410 -0.0506
  267MOL    H6937841   2.051   1.719   6.670 -3.2478 -1.1675 -2.8147
  267MOL    H7037842   2.033   1.709   6.848  1.4037 -0.2802  0.1022
  267MOL    H7137843   2.144   1.513   6.759 -0.9014 -2.4027 -1.2848
  267MOL    C7237844   2.022   1.440   6.622  0.3238 -0.1489  0.2513
  267MOL    C7337845   2.122   1.472   6.499 -0.2990  0.2993  0.3980
  267MOL    C7437846   2.107   1.608   6.445  0.5794 -0.2442 -0.3070
  267MOL    N7537847   2.093   1.714   6.403 -0.3367  0.3087 -0.5732
  267MOL    H7637848   2.044   1.337   6.652 -0.6752 -0.2169  0.7689
  267MOL    H7737849   1.920   1.449   6.585  0.2747 -1.1827  0.1130
  267MOL    H7837850   2.082   1.425   6.409 -1.6520 -0.1673  1.2322
  267MOL    C7937851   2.267   1.428   6.511 -0.4678  0.1279  0.1712
  267MOL    C8037852   2.299   1.274   6.502  0.6209 -0.1028 -0.2809
  267MOL    C8137853   2.277   1.222   6.364  0.4660  0.1275 -0.5855
  267MOL    N8237854   2.262   1.186   6.253  0.1175 -0.2640 -0.6040
  267MOL    H8337855   2.310   1.486   6.430  0.1816  0.6521  0.8741
  267MOL    H8437856   2.319   1.464   6.600 -1.7144  1.9981  0.1452
  267MOL    H8537857   2.231   1.219   6.567  2.4668 -1.6949  0.3177
  267MOL    C8637858   2.433   1.234   6.543 -0.4703  0.1561 -0.0428
  267MOL    C8737859   2.541   1.287   6.455  0.9325 -0.4364 -0.5939
  267MOL    C8837860   2.645   1.352   6.539 -0.2628  0.5639 -0.0733
  267MOL    N8937861   2.734   1.405   6.599  0.7050 -0.4520  0.9735
  267MOL    H9037862   2.464   1.253   6.646  0.0560 -1.5091  0.1201
  267MOL    H9137863   2.447   1.126   6.534 -0.0225  0.2944 -1.1892
  267MOL    H9237864   2.504   1.368   6.392  0.9719  0.4876  0.5561
  267MOL    C9337865   2.606   1.185   6.351  0.4518 -0.6794 -0.7754
  267MOL    C9437866   2.666   1.263   6.226  0.3250 -0.2652  0.4188
  267MOL    C9537867   2.564   1.354   6.170  0.1990 -0.3981  0.7170
  267MOL    N9637868   2.488   1.422   6.112  0.4398  0.6143  0.1406
  267MOL    H9737869   2.669   1.113   6.403  2.2974 -0.2488 -2.3789
  267MOL    H9837870   2.532   1.114   6.312  0.1545 -1.8193  1.8017
  267MOL    H9937871   2.674   1.183   6.152 -0.7072 -0.6149  0.6672
  267MOL   C10037872   2.802   1.338   6.256  0.3141  0.0531  0.0323
  267MOL   C10137873   2.864   1.405   6.135  0.0559 -0.4131  0.2026
  267MOL   C10237874   2.840   1.329   6.011 -0.4180  0.6479 -0.4169
  267MOL   N10337875   2.821   1.276   5.914 -0.1094  0.1971 -0.6852
  267MOL   H10437876   2.776   1.411   6.333 -0.1650 -0.2883  0.2014
  267MOL   H10537877   2.874   1.270   6.302 -0.5866  0.6804  2.4538
  267MOL   H10637878   2.971   1.395   6.155  0.7063  0.4791 -2.5937
  267MOL   C10737879   2.827   1.554   6.115 -0.3243 -0.3217  0.0312
  267MOL   C10837880   2.941   1.640   6.054  0.1545  0.0595 -0.0605
  267MOL   C10937881   3.006   1.582   5.934  0.5209 -0.5785 -0.5020
  267MOL   N11037882   3.059   1.542   5.842 -0.1755  0.0617  0.3240
  267MOL   H11137883   2.740   1.552   6.050 -0.4076  2.1217  0.0224
  267MOL   H11237884   2.806   1.595   6.214  2.3791  1.9101 -0.2399
  267MOL   H11337885   3.022   1.643   6.127  0.3787  2.3216 -0.3556
  267MOL   C11437886   2.887   1.778   6.030 -0.0794  0.3734 -0.1489
  267MOL   C11537887   2.980   1.897   6.070  0.1873 -0.0063 -0.5765
  267MOL   C11637888   3.007   1.888   6.211 -0.5812 -0.7717  0.3497
  267MOL   N11737889   3.030   1.874   6.326 -0.5376 -0.8511 -0.3032
  267MOL   H11837890   2.851   1.792   5.928 -1.2036  1.5230  0.3897
  267MOL   H11937891   2.790   1.792   6.077 -1.6316 -1.4476 -2.6809
  267MOL   H12037892   2.928   1.992   6.059 -1.7813 -1.2149 -2.0472
  267MOL   C12137893   3.114   1.893   5.989 -0.2001 -0.0819 -0.2514
  267MOL   C12237894   3.202   2.012   5.991  0.1047  0.0180  0.4520
  267MOL   C12337895   3.151   2.121   6.076  0.7360 -0.2965 -0.0130
  267MOL   N12437896   3.110   2.196   6.146  0.0144 -1.2209  0.0207
  267MOL   H12537897   3.172   1.804   6.014 -1.7199 -0.9588  0.2154
  267MOL   H12637898   3.085   1.872   5.887  0.8356  0.2585 -0.6208
  267MOL   H12737899   3.171   2.064   5.901  0.4051 -1.2181 -0.3686
  267MOL   C12837900   3.350   1.979   5.987 -0.8369  0.2220 -0.6153
  267MOL   C12937901   3.443   2.108   5.981  0.3007  0.5907  0.2925
  267MOL   C13037902   3.431   2.206   6.088 -0.2999 -0.7843 -0.0961
  267MOL   N13137903   3.431   2.291   6.166 -0.2368  0.7131 -0.4415
  267MOL   H13237904   3.380   1.920   6.074 -1.9009 -1.1249 -1.1535
  267MOL   H13337905   3.363   1.916   5.899 -2.2207 -2.4295  1.0013
  267MOL   H13437906   3.399   2.164   5.898 -1.0883  0.7505  1.1218
  267MOL   C13537907   3.584   2.068   5.936 -0.4221  0.0611  1.3968
  267MOL   C13637908   3.693   2.176   5.943 -0.1578 -0.2748  0.1338
  267MOL   C13737909   3.824   2.132   5.889 -0.0197 -0.3733 -0.0556
  267MOL   N13837910   3.928   2.094   5.847  0.0839  0.8798  0.3765
  267MOL   H13937911   3.628   1.993   6.002  0.3756 -0.9139 -0.2079
  267MOL   H14037912   3.578   2.021   5.837 -0.9902 -0.5911  1.7365
  267MOL   H14137913   3.713   2.218   6.041 -1.8272  2.2884 -0.5533
  267MOL   H14237914   3.667   2.267   5.889 -0.6476 -0.7371 -0.4266
  268MOL     C137915   4.671   2.346   6.214  0.6370  0.1160  0.1915
  268MOL     C237916   4.633   2.197   6.242 -0.0391 -0.4488 -0.3151
  268MOL     C337917   4.674   2.120   6.128  0.3875  0.5647  0.4241
  268MOL     N437918   4.712   2.053   6.038  0.4953 -0.0333 -0.5136
  268MOL     H537919   4.637   2.409   6.296  0.7782  0.5857 -0.1086
  268MOL     H637920   4.623   2.387   6.125 -0.0511 -1.0787  0.0011
  268MOL     H737921   4.525   2.190   6.253  0.1893 -2.5195  0.8246
  268MOL     H837922   4.779   2.357   6.206  0.3956  1.1839 -2.1003
  268MOL     C937923   4.679   2.144   6.382 -0.3920  0.1182  0.2821
  268MOL    C1037924   4.835   2.124   6.389  0.4624  0.4521 -0.3091
  268MOL    C1137925   4.904   2.249   6.416  0.0591  0.0099 -0.5322
  268MOL    N1237926   4.951   2.354   6.435  0.4075 -0.3331 -0.5416
  268MOL    H1337927   4.649   2.206   6.467  1.5526  0.5823  0.6543
  268MOL    H1437928   4.634   2.045   6.379  1.4996 -0.7567  0.5437
  268MOL    H1537929   4.870   2.094   6.290  0.7839  0.1454 -0.1020
  268MOL    C1637930   4.882   2.006   6.475 -0.5431  0.4076  0.1971
  268MOL    C1737931   4.853   2.007   6.624  0.2293  0.5972 -0.3130
  268MOL    C1837932   4.711   2.010   6.665  0.6020  0.1218 -0.1794
  268MOL    N1937933   4.603   2.011   6.691  0.5269 -0.6076  0.7555
  268MOL    H2037934   4.864   1.910   6.427 -0.1976 -1.1870  3.1208
  268MOL    H2137935   4.991   2.010   6.469 -0.2801 -0.6265  3.2012
  268MOL    H2237936   4.895   2.099   6.664 -0.5431  1.1731 -0.8045
  268MOL    C2337937   4.909   1.884   6.701  0.5989  0.0069 -0.4235
  268MOL    C2437938   5.063   1.863   6.699  0.0360  0.0347  0.1312
  268MOL    C2537939   5.117   1.818   6.572  0.3136  0.1192  0.1008
  268MOL    N2637940   5.154   1.787   6.465 -0.4121 -0.1948 -0.0688
  268MOL    H2737941   4.865   1.895   6.800 -0.6920  0.6370 -1.0632
  268MOL    H2837942   4.870   1.788   6.668 -1.1736  1.4882 -2.7426
  268MOL    H2937943   5.093   1.784   6.768  1.2496  0.1675 -0.2251
  268MOL    C3037944   5.146   1.990   6.756 -0.1715 -0.4741 -1.2718
  268MOL    C3137945   5.293   1.967   6.769 -0.3639 -0.3915  0.1264
  268MOL    C3237946   5.352   2.014   6.638 -0.4185 -0.6020  0.1357
  268MOL    N3337947   5.391   2.051   6.539  0.0122 -0.1125  0.4179
  268MOL    H3437948   5.115   2.088   6.721 -0.7902 -0.1965  0.0376
  268MOL    H3537949   5.102   2.000   6.855  0.0717  0.9751 -1.3069
  268MOL    H3637950   5.306   1.859   6.775 -0.9259 -0.3884  1.4436
  268MOL    C3737951   5.357   2.038   6.887 -0.6199 -0.7679 -0.8923
  268MOL    C3837952   5.509   2.052   6.885 -0.0104  0.0815 -0.2036
  268MOL    C3937953   5.552   2.153   6.982  1.1400  0.7783  0.3787
  268MOL    N4037954   5.591   2.231   7.061  0.7713  0.0967  0.6348
  268MOL    H4137955   5.316   2.138   6.895  1.3349  0.0007 -0.3308
  268MOL    H4237956   5.336   1.979   6.976 -1.6657  1.5935  0.4594
  268MOL    H4337957   5.534   2.092   6.787 -0.8572 -0.1942 -0.5348
  268MOL    C4437958   5.576   1.914   6.910  0.1147 -0.2767 -0.5443
  268MOL    C4537959   5.594   1.826   6.787 -0.2085 -0.1724 -0.3657
  268MOL    C4637960   5.649   1.881   6.664 -0.0638 -0.2759  0.3922
  268MOL    N4737961   5.693   1.925   6.570 -0.0940  0.1576  0.2537
  268MOL    H4837962   5.674   1.947   6.946 -0.1011 -0.1206 -0.0807
  268MOL    H4937963   5.536   1.854   6.992 -0.5272 -0.6027 -1.1015
  268MOL    H5037964   5.500   1.790   6.746 -0.3915 -0.4409  0.2945
  268MOL    C5137965   5.667   1.695   6.825 -0.8219  0.2554  0.3027
  268MOL    C5237966   5.819   1.691   6.827 -0.1312 -0.1838  0.1043
  268MOL    C5337967   5.871   1.751   6.950  0.3749  0.6857 -0.8562
  268MOL    N5437968   5.907   1.800   7.045 -1.0422 -0.4396  0.3267
  268MOL    H5537969   5.638   1.662   6.925 -1.0966  0.8017  0.4028
  268MOL    H5637970   5.632   1.618   6.756 -2.4211  2.4499 -1.3780
  268MOL    H5737971   5.858   1.735   6.735  0.8761 -1.0489  0.1104
  268MOL    C5837972   5.855   1.540   6.823  0.5125 -0.0596 -0.2693
  268MOL    C5937973   6.007   1.511   6.832 -1.1258  1.1587 -0.3060
  268MOL    C6037974   6.026   1.381   6.897 -0.2165 -0.5785 -0.5273
  268MOL    N6137975   6.039   1.273   6.944 -0.4342 -0.3686 -0.3704
  268MOL    H6237976   5.797   1.487   6.899 -1.4927 -0.2270 -1.8420
  268MOL    H6337977   5.814   1.500   6.730 -1.6440 -1.8898  1.4028
  268MOL    H6437978   6.053   1.579   6.904  1.4802 -1.1753  0.2979
  268MOL    C6537979   6.080   1.525   6.703  0.1426 -0.0674  0.1394
  268MOL    C6637980   6.219   1.449   6.689 -0.1755  1.0388  0.0692
  268MOL    C6737981   6.191   1.327   6.612  0.1923  0.3386 -0.3666
  268MOL    N6837982   6.169   1.229   6.555 -0.1050  0.7788 -0.0157
  268MOL    H6937983   6.020   1.494   6.617  0.4340  1.2601 -0.5631
  268MOL    H7037984   6.095   1.630   6.677  0.3917 -0.5782 -1.9156
  268MOL    H7137985   6.257   1.410   6.783 -1.4902 -0.5984 -0.0536
  268MOL    C7237986   6.317   1.534   6.610 -0.3888  0.3961 -0.1424
  268MOL    C7337987   6.383   1.641   6.696 -0.4351  0.3010 -0.7873
  268MOL    C7437988   6.346   1.639   6.840  0.3725  0.3482 -1.3684
  268MOL    N7537989   6.315   1.642   6.954 -0.0086 -0.1114 -0.3920
  268MOL    H7637990   6.395   1.466   6.574  0.2648  0.9599  0.1863
  268MOL    H7737991   6.267   1.582   6.526  2.5745  1.3035 -1.4906
  268MOL    H7837992   6.353   1.738   6.656 -0.2571  0.2589 -1.0182
  268MOL    C7937993   6.531   1.657   6.677 -0.4307 -0.1593 -0.5567
  268MOL    C8037994   6.576   1.683   6.528 -0.1463  0.2342 -0.2916
  268MOL    C8137995   6.505   1.805   6.483 -0.5967 -0.2815  0.1372
  268MOL    N8237996   6.455   1.908   6.447 -0.3475 -0.1894  0.6641
  268MOL    H8337997   6.560   1.737   6.746 -1.9234 -1.1826  1.2902
  268MOL    H8437998   6.582   1.568   6.712  0.2540 -1.3395 -4.3136
  268MOL    H8537999   6.542   1.610   6.455 -0.6324 -0.3165  0.4780
  268MOL    C8638000   6.731   1.678   6.522 -0.6664 -0.8727  0.2347
  268MOL    C8738001   6.795   1.710   6.394  0.3444 -0.1357  0.0929
  268MOL    C8838002   6.828   1.851   6.384  0.7037  0.4544 -0.1940
  268MOL    N8938003   6.855   1.961   6.372 -0.5275  0.1466 -0.1164
  268MOL    H9038004   6.776   1.737   6.603 -0.5440  0.6920 -0.9465
  268MOL    H9138005   6.761   1.576   6.546 -0.5498 -0.3152  2.5586
  268MOL    H9238006   6.715   1.715   6.320  0.4311  3.4063  0.1452
  268MOL    C9338007   6.911   1.616   6.343 -0.4982 -0.2782 -0.3059
  268MOL    C9438008   7.030   1.605   6.433  0.1582  0.5654  0.0056
  268MOL    C9538009   7.019   1.507   6.542  0.0675 -0.5014 -0.3862
  268MOL    N9638010   7.010   1.436   6.635  0.0292  0.7495  0.3894
  268MOL    H9738011   6.874   1.514   6.334  1.9148 -1.2115 -0.1414
  268MOL    H9838012   6.932   1.645   6.240 -3.1968  2.7375 -0.0905
  268MOL    H9938013   7.035   1.697   6.490  0.7970  0.1517  0.6279
  268MOL   C10038014   7.160   1.585   6.354  0.7128 -0.2620 -0.9064
  268MOL   C10138015   7.183   1.452   6.286  0.0776 -0.6854  0.2891
  268MOL   C10238016   7.084   1.401   6.192 -0.3554 -0.5509 -0.1728
  268MOL   N10338017   7.001   1.358   6.120  0.3956  0.2412  0.1024
  268MOL   H10438018   7.163   1.666   6.282  0.2420 -1.3376 -2.1523
  268MOL   H10538019   7.244   1.613   6.418 -1.5558  0.1429  2.0222
  268MOL   H10638020   7.190   1.377   6.364  0.3268 -0.0888  0.8515
  268MOL   C10738021   7.323   1.453   6.217  0.4546 -0.6027 -0.3613
  268MOL   C10838022   7.357   1.567   6.111  0.0598  0.2383 -0.7522
  268MOL   C10938023   7.238   1.621   6.048 -0.1424  0.3899 -0.8788
  268MOL   N11038024   7.140   1.651   6.005 -0.1502 -0.4026  0.5079
  268MOL   H11138025   7.402   1.437   6.290  0.0651  0.0273  0.2052
  268MOL   H11238026   7.326   1.357   6.165  1.0833 -0.0718 -1.3007
  268MOL   H11338027   7.399   1.514   6.025  0.7124  0.5824 -0.6433
  268MOL   C11438028   7.456   1.672   6.164  0.0390 -0.3613 -0.3860
  268MOL   C11538029   7.592   1.615   6.219  0.6288  0.5038 -0.1481
  268MOL   C11638030   7.705   1.663   6.144  0.4711  0.4924 -0.1865
  268MOL   N11738031   7.792   1.695   6.075  0.2173  0.6465  0.1064
  268MOL   H11838032   7.476   1.737   6.079 -0.0544 -0.8744 -0.8052
  268MOL   H11938033   7.400   1.733   6.235 -1.3296  1.1567 -2.6790
  268MOL   H12038034   7.597   1.508   6.202  0.0648  0.5239 -0.4343
  268MOL   C12138035   7.596   1.634   6.371 -0.2925 -0.9952 -0.2202
  268MOL   C12238036   7.723   1.579   6.439  0.1151  0.2943  0.4855
  268MOL   C12338037   7.745   1.444   6.394 -0.3607  0.5859 -0.5161
  268MOL   N12438038   7.761   1.332   6.358  0.3424 -0.2937  0.2554
  268MOL   H12538039   7.593   1.742   6.390 -1.5441  0.0885 -5.8520
  268MOL   H12638040   7.512   1.593   6.427  0.3993 -3.0571 -0.6659
  268MOL   H12738041   7.699   1.566   6.545 -0.2933  0.0855  0.3672
  268MOL   C12838042   7.844   1.659   6.445  0.1506 -0.2020 -0.2814
  268MOL   C12938043   7.960   1.607   6.522 -0.2823 -0.8817 -0.4810
  268MOL   C13038044   8.042   1.546   6.421  0.1320 -0.0972  0.4394
  268MOL   N13138045   8.106   1.501   6.338  0.1269 -0.5099  0.1126
  268MOL   H13238046   7.874   1.684   6.343  0.8532 -2.2473 -0.5892
  268MOL   H13338047   7.824   1.759   6.483 -1.0742 -0.4254 -0.3284
  268MOL   H13438048   7.921   1.538   6.597  1.0826  0.2950  1.3642
  268MOL   C13538049   8.041   1.718   6.591 -0.3100 -0.3178 -0.6869
  268MOL   C13638050   7.981   1.766   6.721  0.4219 -0.6232  0.1363
  268MOL   C13738051   7.983   1.652   6.814 -0.0619  0.5161  0.5080
  268MOL   N13838052   7.990   1.560   6.885 -0.1437 -0.7879  0.1146
  268MOL   H13938053   8.142   1.684   6.610 -0.8370 -1.5869 -0.1145
  268MOL   H14038054   8.041   1.809   6.531 -0.8674  1.9681  2.6652
  268MOL   H14138055   7.877   1.798   6.714  1.1846  1.2515 -4.2336
  268MOL   H14238056   8.049   1.839   6.767  2.0891 -1.2221 -1.3020
  269MOL     C138057   0.467   6.740   5.149  0.0289 -0.7638  0.0125
  269MOL     C238058   0.525   6.831   5.031 -0.3447  0.1092 -0.3979
  269MOL     C338059   0.453   6.798   4.907 -0.3260 -0.0235  0.1383
  269MOL     N438060   0.400   6.771   4.808 -0.3972 -0.1939  1.3180
  269MOL     H538061   0.505   6.765   5.248  0.4085  0.6048 -0.4662
  269MOL     H638062   0.491   6.636   5.128 -0.2685 -1.2040  1.7332
  269MOL     H738063   0.624   6.788   5.021 -0.4967 -0.3711  0.1650
  269MOL     H838064   0.358   6.744   5.154  0.0759  2.0123 -0.2881
  269MOL     C938065   0.517   6.984   5.067 -0.6171 -0.1766 -0.1705
  269MOL    C1038066   0.617   7.037   5.166 -0.4037 -0.3788  0.1912
  269MOL    C1138067   0.755   7.003   5.128  0.3991  0.0378 -0.0648
  269MOL    N1238068   0.865   6.982   5.095 -1.3081 -0.0218 -0.4787
  269MOL    H1338069   0.546   7.039   4.977  1.5907  0.9575  1.1989
  269MOL    H1438070   0.415   7.010   5.095 -0.3006 -1.5170  2.3511
  269MOL    H1538071   0.610   6.998   5.268  3.3474  0.4115  0.8395
  269MOL    C1638072   0.600   7.197   5.167  0.7272  0.3193  0.4192
  269MOL    C1738073   0.474   7.259   5.232 -0.9236 -0.2545  0.6894
  269MOL    C1838074   0.410   7.172   5.334 -0.6425 -0.4097 -0.3187
  269MOL    N1938075   0.362   7.101   5.415 -0.0068 -0.5628  0.2679
  269MOL    H2038076   0.686   7.237   5.220  1.1394 -1.8179  1.4382
  269MOL    H2138077   0.608   7.227   5.063 -1.1926 -3.2805 -0.8665
  269MOL    H2238078   0.402   7.258   5.151 -0.3070 -3.3513  0.1084
  269MOL    C2338079   0.483   7.403   5.266 -0.3424 -0.1630  0.9604
  269MOL    C2438080   0.552   7.442   5.398  0.0518 -0.5292  0.2730
  269MOL    C2538081   0.702   7.443   5.380  0.2590  0.4424 -0.9130
  269MOL    N2638082   0.813   7.445   5.369  0.1465 -0.6102  0.7421
  269MOL    H2738083   0.520   7.460   5.180  0.7939 -0.5281  1.1991
  269MOL    H2838084   0.381   7.442   5.270 -0.5808 -0.4106 -1.6316
  269MOL    H2938085   0.531   7.366   5.474  1.7370  0.8677  2.1868
  269MOL    C3038086   0.498   7.573   5.461  0.0862  0.8082  0.1249
  269MOL    C3138087   0.499   7.572   5.614 -0.1140 -0.0127 -0.3191
  269MOL    C3238088   0.629   7.550   5.674  0.8220 -0.1313  0.2508
  269MOL    N3338089   0.729   7.538   5.728 -0.3090 -0.3113 -0.5569
  269MOL    H3438090   0.546   7.659   5.414 -0.4889 -0.9419 -3.8884
  269MOL    H3538091   0.396   7.591   5.429  0.4757  0.3370 -1.4030
  269MOL    H3638092   0.450   7.486   5.659 -0.5228  0.6313  0.4789
  269MOL    C3738093   0.429   7.695   5.680 -0.0990  0.4400  0.2028
  269MOL    C3838094   0.508   7.832   5.663 -0.3852  0.3177  0.4987
  269MOL    C3938095   0.517   7.882   5.520 -0.4535 -0.7680 -0.1472
  269MOL    N4038096   0.522   7.926   5.411  0.4142 -0.9998 -0.0137
  269MOL    H4138097   0.327   7.710   5.645 -0.1995  0.7009  0.6113
  269MOL    H4238098   0.427   7.669   5.785  0.0621  0.4894  0.2200
  269MOL    H4338099   0.609   7.802   5.689 -0.5238  1.1303  2.0849
  269MOL    C4438100   0.485   7.945   5.760  0.6741 -0.1936 -0.1034
  269MOL    C4538101   0.371   8.046   5.717 -0.3016  0.4921 -0.4292
  269MOL    C4638102   0.251   7.981   5.674 -0.5348 -0.5768  0.8835
  269MOL    N4738103   0.162   7.922   5.639  0.1842 -0.2689 -0.0315
  269MOL    H4838104   0.459   7.892   5.851  0.0938 -0.9457 -0.7011
  269MOL    H4938105   0.578   8.002   5.760  1.8161 -1.9685 -1.7756
  269MOL    H5038106   0.399   8.101   5.627 -0.5699 -0.1216 -0.8859
  269MOL    C5138107   0.333   8.139   5.834 -0.2512 -0.5840 -0.3009
  269MOL    C5238108   0.452   8.225   5.886  0.5435  0.0594 -0.1827
  269MOL    C5338109   0.478   0.019   5.794  0.1940 -0.0048  0.7376
  269MOL    N5438110   0.501   0.099   5.710  0.4532 -0.0051 -0.8213
  269MOL    H5538111   0.259   8.203   5.787 -0.5493 -0.1095  0.7974
  269MOL    H5638112   0.278   8.077   5.905 -0.1379 -0.0267  0.2795
  269MOL    H5738113   0.540   8.162   5.875 -1.2303 -2.1791 -2.0585
  269MOL    C5838114   0.432   8.274   6.030  0.2255  0.2152 -0.2410
  269MOL    C5938115   0.521   0.074   6.095  0.6374  0.7453 -0.0665
  269MOL    C6038116   0.458   0.122   6.217  0.0626 -0.0203  0.3334
  269MOL    N6138117   0.411   0.162   6.313 -0.1164  0.8270 -0.4218
  269MOL    H6238118   0.328   8.306   6.036  0.2877  0.1619  1.6697
  269MOL    H6338119   0.442   8.186   6.094 -3.0776  0.1113  0.2336
  269MOL    H6438120   0.518   0.157   6.025 -0.2460 -0.2711 -1.2411
  269MOL    C6538121   0.668   0.031   6.102  0.1775 -0.4769  0.5650
  269MOL    C6638122   0.704   8.281   6.238 -0.4780 -0.0373  0.4253
  269MOL    C6738123   0.640   8.153   6.252 -0.5433 -0.0024 -0.3960
  269MOL    N6838124   0.590   8.050   6.263 -0.0228  0.5747  0.2425
  269MOL    H6938125   0.699   8.276   6.022  2.0117 -0.0675  0.9062
  269MOL    H7038126   0.729   0.121   6.089  0.6855 -0.8327  0.4771
  269MOL    H7138127   0.651   0.025   6.315  1.7977  4.0772 -0.8661
  269MOL    C7238128   0.855   8.259   6.261 -0.2526  0.3466 -0.9213
  269MOL    C7338129   0.927   0.061   6.341  0.3124 -0.2021 -0.4912
  269MOL    C7438130   0.837   0.146   6.419 -0.0294  0.0969  0.4840
  269MOL    N7538131   0.771   0.212   6.480 -0.2809  0.0931 -0.1038
  269MOL    H7638132   0.863   8.171   6.325 -0.6205  2.5449  2.2800
  269MOL    H7738133   0.903   8.217   6.173  0.5210  1.8161 -1.2079
  269MOL    H7838134   0.962   0.132   6.266  1.5825 -0.2328  0.0632
  269MOL    C7938135   1.052   0.011   6.420 -0.6257  0.0837  0.1137
  269MOL    C8038136   1.155   8.245   6.341 -0.2011 -0.3668  0.3967
  269MOL    C8138137   1.216   0.014   6.236  0.0261  0.6373  0.4279
  269MOL    N8238138   1.259   0.080   6.151 -0.1630  0.5243  0.1597
  269MOL    H8338139   1.107   0.086   6.478 -2.3756  0.6172  1.1134
  269MOL    H8438140   1.028   8.252   6.499 -2.3570  0.2634 -0.2314
  269MOL    H8538141   1.104   8.168   6.285  0.2929 -1.0765  0.9212
  269MOL    C8638142   1.264   8.184   6.428 -0.4571  0.3268 -0.6025
  269MOL    C8738143   1.376   8.122   6.349 -0.0162  0.2957 -0.3726
  269MOL    C8838144   1.487   8.091   6.434 -0.5711  0.2330  0.2868
  269MOL    N8938145   1.579   8.060   6.504  0.6502  0.2196 -0.6995
  269MOL    H9038146   1.306   8.261   6.492  0.0918 -2.3870  2.4460
  269MOL    H9138147   1.216   8.116   6.499 -1.0048  1.5589  0.2193
  269MOL    H9238148   1.419   8.199   6.284  1.0352  2.3969  2.6781
  269MOL    C9338149   1.333   8.003   6.273  0.0901 -0.4061  0.1100
  269MOL    C9438150   1.430   7.963   6.164 -0.0116 -0.4072  0.0496
  269MOL    C9538151   1.530   7.870   6.224 -0.4709  0.2878 -0.0368
  269MOL    N9638152   1.599   7.795   6.272 -0.5790  0.1345 -0.4539
  269MOL    H9738153   1.298   7.918   6.332  1.4084 -0.4375  0.8512
  269MOL    H9838154   1.253   8.041   6.210  2.6511  1.1155 -2.3586
  269MOL    H9938155   1.490   8.050   6.134 -3.2045  1.0186 -2.5467
  269MOL   C10038156   1.368   7.887   6.046  0.1597  0.2992 -0.0107
  269MOL   C10138157   1.318   7.983   5.933 -0.1252 -0.2634  0.5549
  269MOL   C10238158   1.369   7.917   5.812  0.5636 -0.8378 -0.3397
  269MOL   N10338159   1.407   7.866   5.715 -0.5595  0.3368 -0.0956
  269MOL   H10438160   1.436   7.814   6.004  0.3389  1.7093 -2.2516
  269MOL   H10538161   1.285   7.829   6.087  0.6961 -1.3605 -1.2268
  269MOL   H10638162   1.379   8.071   5.951  2.3734 -1.8300 -0.0456
  269MOL   C10738163   1.167   8.019   5.933  0.1270  0.2078 -0.0830
  269MOL   C10838164   1.117   8.095   5.812 -0.1866 -1.0206 -0.1707
  269MOL   C10938165   0.968   8.111   5.824  1.0829  0.0817 -0.2316
  269MOL   N11038166   0.848   8.124   5.827  0.9002  0.1833 -0.3215
  269MOL   H11138167   1.111   7.925   5.927 -2.3488  1.6502 -0.0079
  269MOL   H11238168   1.147   8.071   6.026 -1.0059  3.4258 -2.0515
  269MOL   H11338169   1.135   8.031   5.725 -1.1450  0.4650 -1.5044
  269MOL   C11438170   1.197   8.232   5.789 -0.5652  0.3890  0.7180
  269MOL   C11538171   1.162   8.304   5.660  0.1179  1.1177  0.0431
  269MOL   C11638172   1.023   0.054   5.660 -0.0371  0.1661 -0.6078
  269MOL   N11738173   0.918   0.093   5.658  0.2469 -0.3366  0.5031
  269MOL   H11838174   1.177   8.302   5.871 -3.6204  0.7511 -0.2812
  269MOL   H11938175   1.303   8.206   5.790 -0.9877 -1.3722  2.1192
  269MOL   H12038176   1.164   8.228   5.582 -1.2587  0.9033  0.2179
  269MOL   C12138177   1.261   0.103   5.623 -0.3455 -0.6669 -0.6643
  269MOL   C12238178   1.291   0.124   5.471 -0.6100  0.3472 -0.5375
  269MOL   C12338179   1.173   0.133   5.381 -0.0587  0.3457  0.3164
  269MOL   N12438180   1.082   0.144   5.312  0.5384 -0.2833  0.5015
  269MOL   H12538181   1.216   0.197   5.655  0.1647 -1.0184  1.1979
  269MOL   H12638182   1.364   0.091   5.657 -0.2979  0.5502 -0.3572
  269MOL   H12738183   1.343   0.038   5.428 -0.7238  0.0250 -0.0280
  269MOL   C12838184   1.380   0.251   5.446  0.1942  0.0715 -0.0925
  269MOL   C12938185   1.431   0.280   5.303 -0.6755  0.4047  0.0576
  269MOL   C13038186   1.322   0.336   5.228 -0.6010 -0.2206  0.3746
  269MOL   N13138187   1.233   0.385   5.169  0.2406  0.8688  0.1986
  269MOL   H13238188   1.322   0.337   5.478 -1.5085 -0.8209 -0.7019
  269MOL   H13338189   1.472   0.239   5.503  1.2389  1.1050 -1.5406
  269MOL   H13438190   1.452   0.185   5.253  3.3183  1.1155  0.1727
  269MOL   C13538191   1.564   0.368   5.285 -0.5401 -0.2205 -0.5444
  269MOL   C13638192   1.689   0.341   5.362  0.1067  0.1415  0.5520
  269MOL   C13738193   1.734   0.196   5.358 -0.8684 -0.1136  0.5729
  269MOL   N13838194   1.775   0.088   5.356  0.2004  0.3806  0.0276
  269MOL   H13938195   1.582   0.349   5.179 -0.5299  1.6558 -0.8958
  269MOL   H14038196   1.549   0.475   5.294 -0.4156 -0.2739  0.2815
  269MOL   H14138197   1.672   0.353   5.469  0.6363  2.8359  0.3547
  269MOL   H14238198   1.779   0.394   5.330 -0.7047  0.7182 -0.8053
  270MOL     C138199   5.873   7.228   1.466 -0.4553 -0.5622 -0.7236
  270MOL     C238200   5.780   7.320   1.549  0.1161  0.4922  0.3983
  270MOL     C338201   5.858   7.358   1.667 -0.1584 -0.5594 -0.1507
  270MOL     N438202   5.917   7.389   1.763  0.7543  0.0728  0.3390
  270MOL     H538203   5.887   7.143   1.533  0.1251  1.3328  1.6426
  270MOL     H638204   5.969   7.272   1.438 -0.4168 -1.6502 -2.3915
  270MOL     H738205   5.693   7.262   1.580 -0.3542  0.3341 -1.1671
  270MOL     H838206   5.826   7.203   1.371 -1.9482 -0.1963 -0.0938
  270MOL     C938207   5.735   7.442   1.470  0.1172  0.5795 -0.3049
  270MOL    C1038208   5.669   7.553   1.552  0.2264 -0.1315  0.8143
  270MOL    C1138209   5.585   7.509   1.665 -0.3040 -0.2002  0.4798
  270MOL    N1238210   5.525   7.480   1.757 -0.1578 -0.3863  0.5667
  270MOL    H1338211   5.819   7.481   1.412  2.0121  0.4832  2.2679
  270MOL    H1438212   5.657   7.409   1.402  1.1058  0.4276 -1.3715
  270MOL    H1538213   5.601   7.615   1.493  1.7285  1.0043  0.2678
  270MOL    C1638214   5.770   7.661   1.588  0.1115 -0.0640 -0.0445
  270MOL    C1738215   5.722   7.802   1.614 -0.5911  0.0471  0.3153
  270MOL    C1838216   5.614   7.809   1.717 -0.6133  0.3953 -0.0366
  270MOL    N1938217   5.531   7.820   1.802  0.1188  0.5950 -0.3706
  270MOL    H2038218   5.822   7.631   1.679 -3.7050 -2.6265  1.4549
  270MOL    H2138219   5.843   7.677   1.510  1.0573  0.7508  0.9951
  270MOL    H2238220   5.671   7.835   1.523 -0.4641 -0.2298  0.1396
  270MOL    C2338221   5.825   7.919   1.627  0.4314  0.4820 -0.1566
  270MOL    C2438222   5.940   7.921   1.518 -0.6923 -0.6428  0.4675
  270MOL    C2538223   5.875   7.924   1.385  0.2608  0.2314  0.0425
  270MOL    N2638224   5.820   7.934   1.286 -0.8488 -0.3392 -0.1898
  270MOL    H2738225   5.770   8.013   1.620 -0.1527  0.2907  1.7643
  270MOL    H2838226   5.861   7.912   1.729 -1.8123 -4.9212  0.3969
  270MOL    H2938227   5.995   7.828   1.528  0.3565  0.0195  0.9617
  270MOL    C3038228   6.033   8.042   1.538  0.2576  0.1528  0.3301
  270MOL    C3138229   6.144   8.072   1.425 -0.0929  0.5355 -0.2541
  270MOL    C3238230   6.099   8.101   1.285  0.4709 -0.4533 -0.5401
  270MOL    N3338231   6.055   8.127   1.179 -0.2275 -1.1079 -0.5802
  270MOL    H3438232   5.970   8.129   1.552 -2.7107 -1.8493  0.0063
  270MOL    H3538233   6.078   8.032   1.637  1.3195 -0.0844 -0.1690
  270MOL    H3638234   6.217   7.990   1.424  0.2716  0.8534  0.3586
  270MOL    C3738235   6.247   8.182   1.477  0.1525 -0.3784 -0.0296
  270MOL    C3838236   6.327   8.173   1.611  0.2439 -0.6207 -0.3779
  270MOL    C3938237   6.396   8.043   1.623 -0.0362 -1.0914  0.2312
  270MOL    N4038238   6.438   7.937   1.633 -0.1909 -0.0726 -1.1586
  270MOL    H4138239   6.323   8.195   1.399  0.5875 -2.8456 -0.0588
  270MOL    H4238240   6.191   8.276   1.479  1.0561  0.1945 -0.9446
  270MOL    H4338241   6.240   8.181   1.675 -0.1369 -2.3450 -0.6597
  270MOL    C4438242   6.434   8.287   1.634  0.8221  0.4113  0.8306
  270MOL    C4538243   6.383   0.114   1.628 -0.8525 -0.5993 -0.4880
  270MOL    C4638244   6.265   0.124   1.720  0.6838  0.2142 -0.4676
  270MOL    N4738245   6.176   0.130   1.793 -0.2581 -0.3497  0.1369
  270MOL    H4838246   6.482   8.279   1.732  0.9769  1.2199  0.8240
  270MOL    H4938247   6.515   8.279   1.562  0.5775 -0.5437  0.6667
  270MOL    H5038248   6.348   0.142   1.528 -0.6886 -0.9212 -0.6365
  270MOL    C5138249   6.482   0.224   1.670 -0.3008 -0.5007 -0.0819
  270MOL    C5238250   6.613   0.233   1.580  0.8040  0.0273 -0.1037
  270MOL    C5338251   6.572   0.205   1.438 -0.1234  0.0059 -0.7636
  270MOL    N5438252   6.540   0.184   1.329  0.3548 -0.1662 -0.0604
  270MOL    H5538253   6.427   0.317   1.664  1.1391  0.2881 -1.5302
  270MOL    H5638254   6.521   0.208   1.770  1.2850 -0.7926 -0.7320
  270MOL    H5738255   6.669   0.148   1.618  1.1680 -0.6490 -2.1239
  270MOL    C5838256   6.690   0.366   1.608  0.3202  0.7997 -0.4107
  270MOL    C5938257   6.819   0.387   1.516  0.4747 -0.1782 -0.5387
  270MOL    C6038258   6.774   0.419   1.380  0.5783  0.3000 -0.1642
  270MOL    N6138259   6.735   0.442   1.272 -0.7744  0.4430  0.3378
  270MOL    H6238260   6.631   0.458   1.602  0.0609  0.5776 -1.4416
  270MOL    H6338261   6.725   0.365   1.711  0.5171  0.1615 -0.4859
  270MOL    H6438262   6.876   0.295   1.511 -1.9895 -1.9238  1.8288
  270MOL    C6538263   6.920   0.497   1.575  0.8179  1.2961  0.3278
  270MOL    C6638264   6.983   0.466   1.715 -0.2675  0.2935 -0.1291
  270MOL    C6738265   7.004   0.327   1.742 -0.5391  0.1984 -0.0035
  270MOL    N6838266   7.026   0.210   1.765 -0.0576  0.0168  0.1162
  270MOL    H6938267   7.001   0.488   1.503  0.4273 -0.5695  0.0971
  270MOL    H7038268   6.880   0.598   1.565  2.6544  2.2921  2.5710
  270MOL    H7138269   6.911   0.493   1.793  1.0204  0.4660  1.0222
  270MOL    C7238270   7.114   0.548   1.734  0.3014 -0.2664 -0.4172
  270MOL    C7338271   7.099   0.706   1.743 -0.0035  0.1385 -0.3798
  270MOL    C7438272   7.016   0.756   1.851 -0.2101  0.4344 -0.4148
  270MOL    N7538273   6.956   0.791   1.940  0.3399 -0.3009 -0.8142
  270MOL    H7638274   7.177   0.520   1.818 -1.4969 -2.4356  0.2536
  270MOL    H7738275   7.184   0.524   1.654  1.2376  1.2225 -0.0671
  270MOL    H7838276   7.041   0.737   1.656  1.3747 -0.8511 -1.6805
  270MOL    C7938277   7.234   0.774   1.740  0.4578  0.0978 -0.6832
  270MOL    C8038278   7.313   0.754   1.609  0.3084 -0.3103  0.5375
  270MOL    C8138279   7.223   0.791   1.495 -0.4157  0.3830  0.0019
  270MOL    N8238280   7.166   0.822   1.402  0.0047  0.2786  0.0086
  270MOL    H8338281   7.227   0.882   1.754 -1.9913  0.2252 -2.6196
  270MOL    H8438282   7.295   0.735   1.822  0.0477  2.4937  0.8066
  270MOL    H8538283   7.334   0.647   1.598  1.1136 -0.0709 -0.2891
  270MOL    C8638284   7.446   0.824   1.603  0.1729  0.3699  0.5660
  270MOL    C8738285   7.512   0.825   1.462  0.1454 -0.3522  0.2759
  270MOL    C8838286   7.642   0.908   1.465  0.6670  0.3876  0.2838
  270MOL    N8938287   7.740   0.965   1.461  0.0740 -0.4294  0.4142
  270MOL    H9038288   7.426   0.929   1.628  1.0625  0.6653  0.0831
  270MOL    H9138289   7.496   0.780   1.689 -1.7641 -0.1948  1.4342
  270MOL    H9238290   7.457   0.882   1.387  1.5881 -2.1551 -2.1913
  270MOL    C9338291   7.539   0.683   1.412  0.4279  0.2047  0.3528
  270MOL    C9438292   7.505   0.662   1.262  0.0975 -0.5121  0.1365
  270MOL    C9538293   7.572   0.761   1.180 -0.6710  0.4292 -0.1847
  270MOL    N9638294   7.634   0.842   1.118 -0.5272  0.4103 -0.0270
  270MOL    H9738295   7.646   0.663   1.419  0.6406  0.4008 -1.9927
  270MOL    H9838296   7.495   0.604   1.473 -2.0206  1.1926 -0.0847
  270MOL    H9938297   7.401   0.694   1.260  0.6160  1.5075  2.6311
  270MOL   C10038298   7.530   0.522   1.198  0.1361  0.5378 -0.4376
  270MOL   C10138299   7.451   0.404   1.263 -0.4619  0.6034  0.6532
  270MOL   C10238300   7.308   0.437   1.264  0.1171 -0.5348  0.7682
  270MOL   N10338301   7.194   0.463   1.262 -0.3038  0.0879  0.0895
  270MOL   H10438302   7.513   0.514   1.091 -0.9072  0.3751 -0.2691
  270MOL   H10538303   7.636   0.498   1.196  0.3518  1.3793  0.4468
  270MOL   H10638304   7.482   0.390   1.367  1.8557  0.6163 -0.0173
  270MOL   C10738305   7.481   0.267   1.194 -0.3704  0.3168  0.7641
  270MOL   C10838306   7.629   0.218   1.197  0.5491 -0.0975  0.3643
  270MOL   C10938307   7.665   0.228   1.339 -0.0024  1.2853 -0.0696
  270MOL   N11038308   7.683   0.240   1.452  0.4714 -0.0792  0.0559
  270MOL   H11138309   7.422   0.195   1.251  1.1951 -1.3188  0.3766
  270MOL   H11238310   7.438   0.276   1.094 -1.3488 -2.7939  0.8287
  270MOL   H11338311   7.692   0.296   1.154 -0.9851  1.8645  1.6073
  270MOL   C11438312   7.662   0.082   1.140 -0.4715  0.2491 -0.5075
  270MOL   C11538313   7.817   0.062   1.141 -0.7555  0.0525  0.0303
  270MOL   C11638314   7.832   8.230   1.110 -0.0472 -0.1090 -0.2386
  270MOL   N11738315   7.842   8.115   1.084 -0.0678 -0.1235 -0.1037
  270MOL   H11838316   7.606   0.014   1.204  0.5591  1.2401  1.4958
  270MOL   H11938317   7.618   0.074   1.040  0.3892  2.9614 -1.1503
  270MOL   H12038318   7.857   0.064   1.243 -0.0640  1.9471 -0.2748
  270MOL   C12138319   7.888   0.166   1.056  0.1792  0.5368 -0.0141
  270MOL   C12238320   7.995   0.108   0.967  0.0323  0.0731  0.0634
  270MOL   C12338321   7.938   0.025   0.859 -0.3168  0.2035 -0.0076
  270MOL   N12438322   7.894   8.279   0.763 -0.4163 -0.5478  0.0651
  270MOL   H12538323   7.820   0.198   0.978  1.0050 -1.4530 -1.5730
  270MOL   H12638324   7.925   0.252   1.113  0.7153 -0.2346  0.8301
  270MOL   H12738325   8.060   0.047   1.030 -1.0905 -2.1167 -0.8571
  270MOL   C12838326   8.100   0.206   0.914 -0.1796  0.0060 -0.3388
  270MOL   C12938327   8.043   0.309   0.815  0.3040  0.2584 -0.7417
  270MOL   C13038328   7.950   0.408   0.881 -0.1487 -0.1498  0.4076
  270MOL   N13138329   7.879   0.486   0.931 -0.3458  0.1327 -0.1119
  270MOL   H13238330   8.157   0.261   0.989 -2.3505 -0.3373  1.6387
  270MOL   H13338331   8.176   0.146   0.864  0.0664 -0.3682  0.4595
  270MOL   H13438332   7.982   0.261   0.739  1.3703 -1.0252 -0.7919
  270MOL   C13538333   8.160   0.388   0.747  0.4821 -0.5543 -0.7218
  270MOL   C13638334   8.236   0.301   0.644 -0.5185 -0.8237 -0.4016
  270MOL   C13738335   8.160   0.283   0.521  0.1425  0.0495  0.1627
  270MOL   N13838336   8.093   0.275   0.425  0.3422  0.1026 -0.8030
  270MOL   H13938337   8.113   0.476   0.702 -0.0677  0.2125  1.2594
  270MOL   H14038338   8.228   0.428   0.823  1.8794 -1.1115 -1.6749
  270MOL   H14138339   8.258   0.205   0.692 -0.5220  0.3314  1.9790
  270MOL   H14238340   0.016   0.350   0.613 -0.3269 -0.2955  0.9775
  271MOL     C138341   2.747   1.474   2.078  0.3208 -0.8348  0.0458
  271MOL     C238342   2.770   1.554   2.208  0.1402  0.8100 -0.2058
  271MOL     C338343   2.696   1.681   2.213 -0.0476 -0.4977 -0.3870
  271MOL     N438344   2.628   1.777   2.212 -1.2170  0.2865 -0.2222
  271MOL     H538345   2.798   1.521   1.993  2.4730 -3.5321 -0.2149
  271MOL     H638346   2.640   1.458   2.064  0.5460 -1.4051 -1.0883
  271MOL     H738347   2.875   1.584   2.211  1.4074 -3.5515  3.0985
  271MOL     H838348   2.798   1.379   2.095  2.0128  0.3351  1.7685
  271MOL     C938349   2.753   1.473   2.333 -0.2699 -0.4431 -0.2264
  271MOL    C1038350   2.609   1.464   2.388  0.4952  0.4174  0.1313
  271MOL    C1138351   2.501   1.418   2.303  0.1781  0.0342  0.4910
  271MOL    N1238352   2.419   1.379   2.234 -0.0486  0.8898  0.2165
  271MOL    H1338353   2.808   1.380   2.320 -0.6084 -1.0568  2.3200
  271MOL    H1438354   2.801   1.535   2.409 -0.0125  0.3368 -1.0128
  271MOL    H1538355   2.577   1.564   2.418 -1.4839 -0.2022  0.0836
  271MOL    C1638356   2.609   1.391   2.526 -0.5360 -0.0550 -0.3871
  271MOL    C1738357   2.477   1.355   2.584 -0.2162  0.1378 -0.9360
  271MOL    C1838358   2.440   1.224   2.538 -0.4100 -1.0989  0.7164
  271MOL    N1938359   2.409   1.120   2.504 -0.4372 -0.5076 -0.6512
  271MOL    H2038360   2.659   1.294   2.516  0.0130  0.3793 -1.9857
  271MOL    H2138361   2.665   1.452   2.598  1.2445  0.2634 -2.0048
  271MOL    H2238362   2.406   1.422   2.535 -1.0494 -0.2471 -0.2595
  271MOL    C2338363   2.454   1.375   2.739  0.3721  0.0702  0.3188
  271MOL    C2438364   2.313   1.346   2.789  0.1127 -0.1273  0.7232
  271MOL    C2538365   2.289   1.202   2.811  0.4289  0.9796  0.7077
  271MOL    N2638366   2.268   1.090   2.833 -0.3412  0.0687  0.1269
  271MOL    H2738367   2.517   1.299   2.783 -0.1997  0.0184  1.0491
  271MOL    H2838368   2.488   1.470   2.781 -0.6512 -0.0451  1.4225
  271MOL    H2938369   2.243   1.380   2.713  1.4486  2.6008  0.6678
  271MOL    C3038370   2.270   1.426   2.912  0.7723  0.8067  0.0188
  271MOL    C3138371   2.371   1.426   3.028  0.3515  0.2169 -0.3735
  271MOL    C3238372   2.337   1.539   3.115 -0.3894  0.9069 -0.1771
  271MOL    N3338373   2.307   1.633   3.171  0.4927  0.1412 -0.4347
  271MOL    H3438374   2.257   1.529   2.879 -2.3569  1.0751  1.9244
  271MOL    H3538375   2.172   1.383   2.932  1.3622  0.0721  1.4033
  271MOL    H3638376   2.469   1.453   2.986 -0.8169  2.1435 -1.9504
  271MOL    C3738377   2.385   1.287   3.102  0.1000 -0.2200  0.4945
  271MOL    C3838378   2.519   1.260   3.182 -0.0983 -0.9425 -0.5859
  271MOL    C3938379   2.643   1.252   3.104  0.6953 -0.2308 -0.0299
  271MOL    N4038380   2.738   1.239   3.043  0.1552 -0.3261 -0.5808
  271MOL    H4138381   2.297   1.271   3.163 -1.1728  1.4028 -0.8604
  271MOL    H4238382   2.372   1.208   3.028 -0.0376  0.7485 -0.5460
  271MOL    H4338383   2.524   1.157   3.217 -0.8999  0.1061  2.7990
  271MOL    C4438384   2.537   1.361   3.293 -0.1702  0.1551 -0.2161
  271MOL    C4538385   2.642   1.321   3.402  1.1967  0.0848 -0.5682
  271MOL    C4638386   2.774   1.355   3.358 -0.0848  0.7713  0.2297
  271MOL    N4738387   2.882   1.381   3.322  0.0248 -0.3487 -0.0921
  271MOL    H4838388   2.556   1.459   3.249 -4.0001  0.5343 -1.2070
  271MOL    H4938389   2.442   1.374   3.344  1.1513 -1.8642  2.9314
  271MOL    H5038390   2.653   1.212   3.407 -0.5445 -0.1177 -0.8459
  271MOL    C5138391   2.602   1.387   3.539  0.1877  0.1328  0.1523
  271MOL    C5238392   2.623   1.541   3.559 -0.2079 -0.7416  0.2869
  271MOL    C5338393   2.594   1.627   3.446  1.2778 -0.5576  1.0273
  271MOL    N5438394   2.576   1.693   3.354 -0.4433  0.1689  0.0552
  271MOL    H5538395   2.496   1.364   3.546  0.7492 -2.2274  1.6908
  271MOL    H5638396   2.651   1.329   3.617  1.5786  0.7378 -0.2593
  271MOL    H5738397   2.728   1.563   3.578 -0.4115  0.9089 -0.4255
  271MOL    C5838398   2.549   1.577   3.689  0.2828 -0.1918 -0.2211
  271MOL    C5938399   2.560   1.722   3.749  0.4413  0.3153  0.1469
  271MOL    C6038400   2.453   1.732   3.850  0.3393 -0.0921 -0.1341
  271MOL    N6138401   2.376   1.738   3.937  0.1446  0.0200  0.0666
  271MOL    H6238402   2.445   1.554   3.667 -0.2344 -0.4829  2.3053
  271MOL    H6338403   2.593   1.506   3.760  0.2508  0.3641  0.3605
  271MOL    H6438404   2.527   1.800   3.680  1.5569  2.0624  1.5881
  271MOL    C6538405   2.703   1.747   3.817 -0.3675 -0.2828  0.2329
  271MOL    C6638406   2.711   1.873   3.914  0.4718  0.2301 -0.8886
  271MOL    C6738407   2.845   1.873   3.978  0.0601 -0.1398 -0.1145
  271MOL    N6838408   2.954   1.875   4.025 -0.4322 -0.0643  0.5121
  271MOL    H6938409   2.727   1.657   3.873  0.7723  0.2829  0.6640
  271MOL    H7038410   2.779   1.761   3.740 -1.0924  1.9743 -0.1205
  271MOL    H7138411   2.638   1.847   3.990  0.8778  2.0869  0.1592
  271MOL    C7238412   2.674   2.006   3.848 -0.6202 -0.0256  0.4594
  271MOL    C7338413   2.794   2.081   3.779 -0.1568  0.0203  0.4496
  271MOL    C7438414   2.881   1.992   3.700  0.6206 -0.2195 -0.8182
  271MOL    N7538415   2.954   1.925   3.637  0.3260 -0.4071 -0.6887
  271MOL    H7638416   2.591   2.002   3.778 -0.6015 -0.7372  0.4767
  271MOL    H7738417   2.629   2.069   3.925 -1.1305 -0.6277  0.6601
  271MOL    H7838418   2.857   2.099   3.866 -0.7003  2.3306  0.4077
  271MOL    C7938419   2.773   2.221   3.717 -0.1541 -0.6896  0.0928
  271MOL    C8038420   2.907   2.288   3.692 -0.2485 -0.1010 -0.3124
  271MOL    C8138421   2.903   2.360   3.568 -0.3230 -0.3370  0.0961
  271MOL    N8238422   2.899   2.421   3.471  0.1484  0.1232  0.6677
  271MOL    H8338423   2.718   2.213   3.623  1.9476 -0.7095 -1.1717
  271MOL    H8438424   2.713   2.280   3.787  0.6531  0.6195 -0.3090
  271MOL    H8538425   2.982   2.210   3.675  0.7721  1.0755 -1.2978
  271MOL    C8638426   2.945   2.375   3.822  0.1448  0.1886  0.7372
  271MOL    C8738427   3.082   2.453   3.813 -0.3308 -0.5056  0.0072
  271MOL    C8838428   3.073   2.576   3.730  0.3871 -0.3847  0.3861
  271MOL    N8938429   3.064   2.669   3.662 -0.4773 -0.4849 -0.1638
  271MOL    H9038430   2.870   2.451   3.844  0.9341  0.9759  0.6959
  271MOL    H9138431   2.936   2.305   3.906  0.0474 -0.3594  0.2725
  271MOL    H9238432   3.160   2.387   3.775  0.2817 -1.5831  2.9821
  271MOL    C9338433   3.129   2.503   3.947  0.1583  0.5959 -0.3900
  271MOL    C9438434   3.269   2.563   3.963 -0.2937 -0.2744 -0.2365
  271MOL    C9538435   3.275   2.708   3.930  1.2791 -0.2384 -0.3298
  271MOL    N9638436   3.272   2.820   3.912  0.4192  0.6397  0.4558
  271MOL    H9738437   3.060   2.582   3.979  1.7031  1.0646  1.9147
  271MOL    H9838438   3.112   2.420   4.016 -0.1326  1.3707  0.4802
  271MOL    H9938439   3.327   2.507   3.890 -0.1824  0.7370 -0.9263
  271MOL   C10038440   3.330   2.554   4.105  0.2758 -0.1619  0.0006
  271MOL   C10138441   3.353   2.416   4.161  0.0994  0.1822  0.3886
  271MOL   C10238442   3.417   2.326   4.060 -0.4087  0.2997  0.1455
  271MOL   N10338443   3.474   2.253   3.990 -0.5847  0.4332  0.4953
  271MOL   H10438444   3.432   2.590   4.094 -0.1667  0.6223 -1.7521
  271MOL   H10538445   3.274   2.618   4.173  0.3610 -1.0789  0.9485
  271MOL   H10638446   3.251   2.378   4.173 -0.1688  0.2079 -1.6003
  271MOL   C10738447   3.428   2.391   4.290  0.1366  0.6299 -0.2128
  271MOL   C10838448   3.396   2.487   4.407 -0.3731  0.4914  1.3326
  271MOL   C10938449   3.257   2.463   4.455  0.8934  0.4145  0.8283
  271MOL   N11038450   3.150   2.442   4.497 -0.6546 -0.0606  0.0610
  271MOL   H11138451   3.423   2.287   4.324  1.2821  0.0871 -1.5951
  271MOL   H11238452   3.536   2.398   4.272  0.5532 -1.3176  1.2465
  271MOL   H11338453   3.414   2.584   4.361  1.3065 -1.1361 -1.6183
  271MOL   C11438454   3.484   2.479   4.536 -0.3162  0.4256  0.9523
  271MOL   C11538455   3.639   2.481   4.505 -0.1890  0.5299  0.4638
  271MOL   C11638456   3.677   2.580   4.404 -0.2751 -0.1707 -0.2636
  271MOL   N11738457   3.709   2.661   4.328 -0.3191 -0.0855 -0.1859
  271MOL   H11838458   3.456   2.569   4.592  0.2017  1.2913 -0.1576
  271MOL   H11938459   3.459   2.385   4.584 -1.9539  0.1415 -0.3952
  271MOL   H12038460   3.663   2.384   4.461 -0.9797  0.3281  0.4720
  271MOL   C12138461   3.714   2.487   4.637 -0.5240  0.0421  0.7652
  271MOL   C12238462   3.677   2.387   4.750  0.0692 -0.1530 -0.4092
  271MOL   C12338463   3.676   2.247   4.707  0.0391 -0.0638  0.1887
  271MOL   N12438464   3.676   2.134   4.675 -0.1220 -0.0347 -0.3897
  271MOL   H12538465   3.820   2.471   4.620 -1.0916 -3.0052 -0.1895
  271MOL   H12638466   3.707   2.588   4.676 -1.6862  0.2916 -0.0676
  271MOL   H12738467   3.577   2.411   4.786  0.1489 -0.7845  0.2337
  271MOL   C12838468   3.766   2.401   4.878 -0.1082  0.4451  0.1376
  271MOL   C12938469   3.699   2.380   5.018 -0.3602 -0.2630  0.2652
  271MOL   C13038470   3.596   2.277   5.025  0.0223 -0.1463  0.5470
  271MOL   N13138471   3.518   2.192   5.032 -0.8287 -0.2930 -0.1173
  271MOL   H13238472   3.832   2.315   4.872  2.1468  2.1992 -0.7118
  271MOL   H13338473   3.833   2.486   4.869 -0.6014  0.7727 -0.4522
  271MOL   H13438474   3.627   2.461   5.030  1.7314  1.6384  0.6257
  271MOL   C13538475   3.791   2.367   5.136 -0.3264 -0.0865  0.5436
  271MOL   C13638476   3.878   2.492   5.167 -0.2208  0.2938  0.1683
  271MOL   C13738477   3.799   2.615   5.148 -0.5286  0.6797  0.2575
  271MOL   N13838478   3.735   2.712   5.136  0.3059  0.3322  0.0435
  271MOL   H13938479   3.732   2.347   5.226  0.2089  1.2490  1.2056
  271MOL   H14038480   3.844   2.273   5.122 -1.5272 -0.9600  1.8025
  271MOL   H14138481   3.953   2.504   5.088 -0.4478  1.4366  0.1149
  271MOL   H14238482   3.918   2.494   5.268 -1.0691 -0.4386  0.5264
  272MOL     C138483   4.978   4.494   6.123 -0.1478 -0.3997 -0.6208
  272MOL     C238484   4.902   4.387   6.043  0.1328  0.0507  0.7256
  272MOL     C338485   4.835   4.438   5.924 -0.1629  0.1408  0.3156
  272MOL     N438486   4.784   4.481   5.824  0.3735 -0.3846 -0.6316
  272MOL     H538487   5.037   4.561   6.060  1.3097 -0.7014  0.3982
  272MOL     H638488   5.039   4.443   6.197 -0.4174 -0.9428 -0.7737
  272MOL     H738489   4.821   4.347   6.105  0.2046 -1.3588 -0.0597
  272MOL     H838490   4.908   4.559   6.176 -0.0116  0.3136 -1.3047
  272MOL     C938491   4.984   4.260   6.007  0.1670 -0.4771  0.3637
  272MOL    C1038492   5.078   4.286   5.884 -0.0807 -0.8123 -0.4243
  272MOL    C1138493   5.168   4.403   5.899  0.2041 -0.4699 -0.5893
  272MOL    N1238494   5.234   4.491   5.919  1.1462 -0.2138 -0.4149
  272MOL    H1338495   5.040   4.239   6.099  0.2750 -2.0003 -0.0476
  272MOL    H1438496   4.922   4.174   5.985 -0.0463  0.5476 -3.2885
  272MOL    H1538497   5.004   4.323   5.813 -0.5752 -1.7181 -0.3824
  272MOL    C1638498   5.131   4.148   5.838 -0.1958  0.3130 -0.3182
  272MOL    C1738499   5.274   4.109   5.893  0.1223 -0.4251 -0.4133
  272MOL    C1838500   5.286   4.135   6.036 -0.4198  0.0719  0.7250
  272MOL    N1938501   5.305   4.158   6.147  0.2760  0.6913 -0.3327
  272MOL    H2038502   5.063   4.064   5.856  0.2657 -0.0505 -0.2579
  272MOL    H2138503   5.125   4.135   5.730 -0.6775 -2.3600  0.0073
  272MOL    H2238504   5.350   4.177   5.853 -0.3698 -0.0155 -0.6678
  272MOL    C2338505   5.315   3.967   5.857  0.0832 -0.3576 -0.3712
  272MOL    C2438506   5.322   3.939   5.705 -1.2163 -0.4307  0.0707
  272MOL    C2538507   5.409   4.045   5.647 -0.9888  0.2912 -0.1104
  272MOL    N2638508   5.474   4.134   5.601  0.5358 -0.0059  0.8897
  272MOL    H2738509   5.414   3.961   5.902  0.4643  1.6919 -0.8867
  272MOL    H2838510   5.248   3.895   5.903  2.8675 -1.4247  2.1672
  272MOL    H2938511   5.225   3.947   5.657 -0.9998 -1.8170 -0.6278
  272MOL    C3038512   5.378   3.797   5.681 -0.1286  0.0123  0.2708
  272MOL    C3138513   5.379   3.743   5.529 -0.0078 -0.1553 -0.2150
  272MOL    C3238514   5.451   3.838   5.444 -0.7845  0.3474 -0.9756
  272MOL    N3338515   5.519   3.907   5.384  0.0948 -0.0726 -0.6156
  272MOL    H3438516   5.482   3.802   5.712  0.1316 -0.9051 -0.4185
  272MOL    H3538517   5.336   3.718   5.744 -1.0109 -2.1476 -2.8380
  272MOL    H3638518   5.283   3.755   5.479  0.3107  1.3154 -0.4729
  272MOL    C3738519   5.448   3.604   5.512  0.5686  0.0977  0.1985
  272MOL    C3838520   5.601   3.598   5.513  0.2824 -0.4950  0.0643
  272MOL    C3938521   5.652   3.492   5.597 -0.3286  0.4398  0.2201
  272MOL    N4038522   5.691   3.405   5.658 -0.2469 -0.1009 -0.0142
  272MOL    H4138523   5.407   3.529   5.578 -0.8839 -0.3505 -1.1811
  272MOL    H4238524   5.418   3.566   5.414  1.0285  0.1984  0.0161
  272MOL    H4338525   5.634   3.691   5.559  1.6374 -0.2056 -1.4648
  272MOL    C4438526   5.659   3.600   5.365 -0.7194  0.0260  0.2705
  272MOL    C4538527   5.706   3.462   5.301  0.8048  0.9328  0.2798
  272MOL    C4638528   5.611   3.347   5.326  0.4065 -0.0939 -0.2748
  272MOL    N4738529   5.542   3.255   5.348 -0.1552 -0.3060 -0.0058
  272MOL    H4838530   5.602   3.652   5.288  0.7688  0.9907 -0.1977
  272MOL    H4938531   5.743   3.669   5.368 -0.8782  0.1969  0.9653
  272MOL    H5038532   5.790   3.419   5.354  0.3964 -1.8619 -1.2293
  272MOL    C5138533   5.738   3.465   5.148 -0.7251 -0.3204 -0.0557
  272MOL    C5238534   5.858   3.556   5.110  1.2282  0.4984 -0.2690
  272MOL    C5338535   5.928   3.489   4.999  0.5455  0.1011 -0.3003
  272MOL    N5438536   5.982   3.438   4.909 -0.0668 -0.0077 -0.3119
  272MOL    H5538537   5.776   3.367   5.120 -1.3760 -0.8803  1.0230
  272MOL    H5638538   5.650   3.491   5.089  0.5880 -0.9382 -2.3452
  272MOL    H5738539   5.932   3.543   5.189  0.3322  0.8677  0.6418
  272MOL    C5838540   5.825   3.707   5.080 -0.0368  0.5020 -0.3375
  272MOL    C5938541   5.759   3.741   4.953  1.1866 -0.2444 -0.3043
  272MOL    C6038542   5.611   3.770   4.969 -0.8654 -0.7897 -0.5089
  272MOL    N6138543   5.499   3.798   4.978  0.5200 -0.1295 -0.2234
  272MOL    H6238544   5.771   3.760   5.158 -0.4787 -0.2021 -0.1635
  272MOL    H6338545   5.921   3.758   5.089 -0.0358  0.4566 -0.1048
  272MOL    H6438546   5.756   3.651   4.891 -0.1640 -1.0665  0.9141
  272MOL    C6538547   5.842   3.842   4.862  0.0813 -0.1747 -0.5743
  272MOL    C6638548   5.812   3.819   4.711 -0.1287  0.1242  0.5052
  272MOL    C6738549   5.672   3.815   4.670  0.2150 -0.7737  0.1705
  272MOL    N6838550   5.563   3.815   4.634  0.3513 -0.2175 -0.3311
  272MOL    H6938551   5.824   3.940   4.906 -1.9458  0.6099 -3.0250
  272MOL    H7038552   5.943   3.810   4.887  0.4078  0.1340 -1.4963
  272MOL    H7138553   5.851   3.718   4.694 -1.3756 -0.1445 -0.8993
  272MOL    C7238554   5.899   3.907   4.620 -0.2669 -0.5635  0.2609
  272MOL    C7338555   5.896   4.062   4.631  0.5124  0.1375  0.2663
  272MOL    C7438556   5.921   4.130   4.758 -0.2852  0.1174 -0.5411
  272MOL    N7538557   5.948   4.187   4.857  0.4457 -0.0080  0.0461
  272MOL    H7638558   5.999   3.870   4.643  0.9792  2.1107 -0.7170
  272MOL    H7738559   5.900   3.881   4.514 -0.3387  0.0828  0.1012
  272MOL    H7838560   5.795   4.099   4.616 -0.6974 -3.0924  0.1092
  272MOL    C7938561   5.998   4.122   4.520  0.1522  1.2001 -0.2649
  272MOL    C8038562   5.968   4.264   4.468  0.2700  0.3357  0.5053
  272MOL    C8138563   6.089   4.350   4.492 -0.0938 -0.3717  1.0501
  272MOL    N8238564   6.184   4.411   4.510 -0.0500 -0.0419  0.1115
  272MOL    H8338565   6.089   4.129   4.580  1.0567  0.8059 -1.5585
  272MOL    H8438566   6.010   4.058   4.432 -2.0064 -0.6184  0.7431
  272MOL    H8538567   5.891   4.311   4.529 -0.9289  0.7041 -1.2463
  272MOL    C8638568   5.941   4.263   4.317 -0.3265  0.1375  0.1340
  272MOL    C8738569   5.824   4.179   4.267  0.2708 -0.3971  0.0621
  272MOL    C8838570   5.699   4.201   4.340  0.6023  0.1754  0.0791
  272MOL    N8938571   5.594   4.214   4.392  0.0725 -0.1871 -0.0103
  272MOL    H9038572   5.920   4.362   4.276 -1.0262 -0.3888 -0.7797
  272MOL    H9138573   6.041   4.243   4.277 -0.9906 -2.3830 -0.3235
  272MOL    H9238574   5.853   4.074   4.271 -1.6412 -1.0274 -1.4615
  272MOL    C9338575   5.803   4.205   4.115 -0.5390  0.0974 -0.0238
  272MOL    C9438576   5.662   4.170   4.061 -0.8264  0.8393 -0.1138
  272MOL    C9538577   5.643   4.218   3.927  0.2634  0.0200  0.0396
  272MOL    N9638578   5.621   4.252   3.818 -0.1799 -0.3712 -0.0524
  272MOL    H9738579   5.827   4.308   4.089  1.2318 -0.9540 -2.8064
  272MOL    H9838580   5.880   4.150   4.061 -0.8579 -2.0512  1.6466
  272MOL    H9938581   5.605   4.235   4.127 -0.2580  0.4713  0.7561
  272MOL   C10038582   5.623   4.025   4.075  0.1672 -0.1680 -0.0496
  272MOL   C10138583   5.479   3.988   4.036  0.0622  0.3445 -0.0329
  272MOL   C10238584   5.463   3.841   4.045 -0.2368 -0.3933  0.0909
  272MOL   N10338585   5.446   3.728   4.048 -1.5187  0.1979  0.9231
  272MOL   H10438586   5.692   3.965   4.015  0.0845  1.0893 -1.4312
  272MOL   H10538587   5.639   3.992   4.178 -0.6723 -1.4054 -0.3037
  272MOL   H10638588   5.474   4.015   3.931  0.8003  1.4204  0.1984
  272MOL   C10738589   5.378   4.053   4.131  0.7703  0.1370 -0.5827
  272MOL   C10838590   5.229   4.016   4.117 -0.0277  0.2817 -0.1603
  272MOL   C10938591   5.156   4.058   4.236 -0.2163 -1.2966  0.2705
  272MOL   N11038592   5.097   4.092   4.329 -0.4366 -0.1682 -0.9955
  272MOL   H11138593   5.402   4.032   4.236 -1.4217 -0.7842 -0.2437
  272MOL   H11238594   5.383   4.162   4.135 -0.8117  0.1702  1.4326
  272MOL   H11338595   5.224   3.908   4.129  2.1211  0.3828  1.9440
  272MOL   C11438596   5.163   4.070   3.995  0.3436  0.6176 -0.8034
  272MOL   C11538597   5.192   4.014   3.851  0.3966 -0.6308  0.1594
  272MOL   C11638598   5.172   3.873   3.849  0.1034  0.3826  0.4092
  272MOL   N11738599   5.158   3.758   3.840 -0.7240  0.1033 -0.3466
  272MOL   H11838600   5.056   4.054   4.002  0.6929 -2.1487 -0.9725
  272MOL   H11938601   5.175   4.178   4.002 -1.5491  0.9418 -2.1395
  272MOL   H12038602   5.296   4.038   3.829  0.7369 -0.5861  1.7062
  272MOL   C12138603   5.110   4.078   3.731  0.0297 -0.4272  0.5220
  272MOL   C12238604   5.171   4.199   3.660 -0.2483 -0.0364 -0.1708
  272MOL   C12338605   5.283   4.156   3.573 -0.7934 -0.4658 -0.2256
  272MOL   N12438606   5.371   4.133   3.498 -0.0261  0.3917  0.0134
  272MOL   H12538607   5.083   4.003   3.658 -0.4524 -2.0442  2.3411
  272MOL   H12638608   5.014   4.117   3.765 -0.6102 -0.3456 -1.3425
  272MOL   H12738609   5.204   4.273   3.733 -2.5108  1.6575 -0.8189
  272MOL   C12838610   5.067   4.262   3.558  0.4223  0.1157  0.6241
  272MOL   C12938611   5.086   4.416   3.549 -0.0617 -0.0010 -0.5399
  272MOL   C13038612   5.223   4.474   3.562 -0.3292 -0.6760  0.5597
  272MOL   N13138613   5.328   4.517   3.581 -0.0628  0.2493  0.0886
  272MOL   H13238614   5.090   4.220   3.460  1.8547  2.0369  0.1166
  272MOL   H13338615   4.967   4.226   3.584  1.2896 -2.0012  1.1642
  272MOL   H13438616   5.037   4.463   3.635  0.3748 -1.7680  0.6855
  272MOL   C13538617   5.022   4.465   3.418 -0.0983 -0.6382 -0.2599
  272MOL   C13638618   5.044   4.609   3.385 -0.0891  0.7372  0.0156
  272MOL   C13738619   4.963   4.644   3.270  0.0486  0.1118  0.6273
  272MOL   N13838620   4.904   4.671   3.174  0.0026 -0.4093 -0.2267
  272MOL   H13938621   5.067   4.407   3.338 -0.9782 -0.6475 -0.7448
  272MOL   H14038622   4.918   4.436   3.424 -0.2691 -0.1419 -0.8069
  272MOL   H14138623   5.148   4.633   3.362  0.1656  2.1320  2.4454
  272MOL   H14238624   5.018   4.674   3.468 -1.2191  0.0751  0.1939
  273MOL     C138625   6.055   6.148   7.117 -0.0029  0.1199 -0.3763
  273MOL     C238626   6.139   6.263   7.161 -0.2047  1.0259 -0.3400
  273MOL     C338627   6.248   6.291   7.071  0.9651 -0.3125  0.2252
  273MOL     N438628   6.336   6.316   6.998  0.3353 -0.3056 -0.3769
  273MOL     H538629   5.963   6.137   7.174  0.0925 -1.3518 -0.4712
  273MOL     H638630   6.123   6.063   7.129  1.3107  1.2770  0.5137
  273MOL     H738631   6.191   6.234   7.253  0.7266 -0.3206 -1.2707
  273MOL     H838632   6.035   6.154   7.010  0.5478 -0.9413 -0.5552
  273MOL     C938633   6.055   6.387   7.203 -0.0344  0.6608  0.7910
  273MOL    C1038634   6.058   6.503   7.108  0.3669 -0.4956 -0.6095
  273MOL    C1138635   6.018   6.468   6.969  0.2371  0.4490  0.6654
  273MOL    N1238636   5.985   6.438   6.861 -0.2002 -1.1657  0.5634
  273MOL    H1338637   5.953   6.351   7.211 -0.8478  2.9460  0.9033
  273MOL    H1438638   6.085   6.439   7.294  0.0910  2.1054 -0.0528
  273MOL    H1538639   6.162   6.536   7.105  0.6957 -1.5543 -1.0876
  273MOL    C1638640   5.978   6.615   7.173 -0.3325 -0.5074 -0.1439
  273MOL    C1738641   5.957   6.749   7.099 -0.4298  0.3464 -0.0105
  273MOL    C1838642   6.080   6.799   7.052  0.1941 -0.2081  0.4342
  273MOL    N1938643   6.183   6.836   7.016 -0.0652 -0.3892  0.4729
  273MOL    H2038644   5.884   6.567   7.199  0.2380 -1.2153  0.6054
  273MOL    H2138645   6.021   6.632   7.271 -1.6077 -2.9824  0.8921
  273MOL    H2238646   5.922   6.818   7.175 -0.1332 -1.5505  1.8797
  273MOL    C2338647   5.850   6.736   6.987  0.1375  0.3023  0.0255
  273MOL    C2438648   5.713   6.725   7.043  0.5438 -0.3064  0.3494
  273MOL    C2538649   5.662   6.856   7.084  0.0572 -0.3566  0.6607
  273MOL    N2638650   5.619   6.959   7.114  0.3077  0.6922  0.1543
  273MOL    H2738651   5.864   6.840   6.956 -1.0024  0.1393 -1.0396
  273MOL    H2838652   5.873   6.668   6.905 -0.3221  0.1128  0.0524
  273MOL    H2938653   5.705   6.668   7.136  0.4632 -1.8526 -0.5810
  273MOL    C3038654   5.617   6.659   6.937 -0.7613 -0.1232 -0.4622
  273MOL    C3138655   5.466   6.632   6.955 -0.4590  0.5767  0.6654
  273MOL    C3238656   5.407   6.537   6.855  0.0090  0.3438  0.9535
  273MOL    N3338657   5.367   6.467   6.772  0.8499 -0.1989 -0.2947
  273MOL    H3438658   5.621   6.717   6.845 -1.2745  0.0152 -0.3983
  273MOL    H3538659   5.650   6.559   6.909  1.2973  0.3575  0.1843
  273MOL    H3638660   5.402   6.720   6.946 -1.3193  0.1029  2.0086
  273MOL    C3738661   5.440   6.575   7.101 -0.5657  1.0399  0.5331
  273MOL    C3838662   5.462   6.423   7.131  0.5548  0.0465  0.7421
  273MOL    C3938663   5.594   6.373   7.091  0.2572 -0.2441 -0.2508
  273MOL    N4038664   5.700   6.335   7.070  0.4333  0.6111  0.5271
  273MOL    H4138665   5.478   6.636   7.183 -2.6271  2.1743  0.6709
  273MOL    H4238666   5.337   6.606   7.117 -0.7683  1.0066 -0.6092
  273MOL    H4338667   5.379   6.378   7.076  0.7779  0.8843 -0.3246
  273MOL    C4438668   5.427   6.383   7.274 -0.0941 -0.2444 -0.4230
  273MOL    C4538669   5.529   6.397   7.391  0.1989 -0.3070 -0.1608
  273MOL    C4638670   5.608   6.520   7.388 -0.4698  0.1709 -0.4379
  273MOL    N4738671   5.665   6.620   7.384 -0.1492 -0.1848 -0.1447
  273MOL    H4838672   5.339   6.441   7.302 -1.7856 -2.0997 -1.7842
  273MOL    H4938673   5.406   6.276   7.271  2.6713 -0.7673 -2.9094
  273MOL    H5038674   5.600   6.314   7.396  0.6400  0.1471  1.7356
  273MOL    C5138675   5.451   6.406   7.530  0.0920  0.2047 -0.3837
  273MOL    C5238676   5.365   6.289   7.565  0.6181  0.7251 -0.1134
  273MOL    C5338677   5.431   6.159   7.547 -0.0544  0.3287 -0.0824
  273MOL    N5438678   5.488   6.060   7.538  0.2163  0.2134  0.3859
  273MOL    H5538679   5.528   6.418   7.606  0.2096  0.2905 -0.5178
  273MOL    H5638680   5.397   6.500   7.538  0.1509  0.2307 -0.3013
  273MOL    H5738681   5.285   6.291   7.492  1.0062  0.0573 -0.5620
  273MOL    C5838682   5.311   6.306   7.706 -0.0827  0.8071  0.6099
  273MOL    C5938683   5.225   6.185   7.761  0.3299  0.4537 -0.1142
  273MOL    C6038684   5.114   6.143   7.670 -0.1168 -0.4658 -0.0632
  273MOL    N6138685   5.030   6.111   7.600  0.6882  0.0177  0.1025
  273MOL    H6238686   5.395   6.316   7.774 -0.4521 -0.8657  1.3369
  273MOL    H6338687   5.249   6.395   7.717  0.0978  1.2259 -1.5670
  273MOL    H6438688   5.164   6.221   7.844  2.5490  0.6861  1.4687
  273MOL    C6538689   5.298   6.064   7.813 -0.0325  0.3343  0.5697
  273MOL    C6638690   5.229   5.967   7.914 -0.0363  0.0790  0.4043
  273MOL    C6738691   5.109   5.899   7.864  0.3188  0.6062 -0.0683
  273MOL    N6838692   5.013   5.840   7.821 -0.3112  0.0469 -0.3575
  273MOL    H6938693   5.327   5.999   7.731  2.3102  1.9657  0.0594
  273MOL    H7038694   5.383   6.110   7.863  0.6127  0.6664 -0.8240
  273MOL    H7138695   5.179   6.025   7.992  0.0035 -1.5367  1.6680
  273MOL    C7238696   5.324   5.871   7.983  0.1900 -0.5029 -0.0752
  273MOL    C7338697   5.259   5.763   8.066  0.2151 -0.5472 -0.1245
  273MOL    C7438698   5.132   5.787   8.131  0.5821 -0.3135 -0.4768
  273MOL    N7538699   5.032   5.809   8.186 -0.4702 -0.0431  0.0350
  273MOL    H7638700   5.388   5.827   7.905  1.1713 -2.3586  1.7238
  273MOL    H7738701   5.383   5.938   8.045 -0.3017  0.4157 -0.5838
  273MOL    H7838702   5.314   5.743   8.157 -0.9974 -3.3196  0.0528
  273MOL    C7938703   5.247   5.634   7.991 -0.1263 -0.5739  0.6256
  273MOL    C8038704   5.193   5.515   8.065 -0.1879 -0.6763  0.2516
  273MOL    C8138705   5.185   5.395   7.983  0.3081 -0.4931 -0.4360
  273MOL    N8238706   5.168   5.302   7.918 -0.0003  0.2657  1.0826
  273MOL    H8338707   5.202   5.665   7.897  0.3285  1.4526  1.0354
  273MOL    H8438708   5.349   5.606   7.965 -0.3937 -1.4617  0.5101
  273MOL    H8538709   5.085   5.532   8.065  0.2093  2.0964 -1.0058
  273MOL    C8638710   5.250   5.479   8.196 -0.2744 -0.2967 -0.5007
  273MOL    C8738711   5.208   5.352   8.279 -0.2233 -0.4835 -1.0901
  273MOL    C8838712   5.289   5.309   0.080 -0.0871  0.0962  0.0428
  273MOL    N8938713   5.350   5.277   0.173  0.1673 -0.3721  0.4100
  273MOL    H9038714   5.358   5.470   8.195 -0.2352  0.1779 -0.6519
  273MOL    H9138715   5.230   5.564   8.262  0.7669  0.9957 -1.8066
  273MOL    H9238716   5.215   5.264   8.214  2.3156  0.2769 -1.8796
  273MOL    C9338717   5.057   5.366   0.011 -0.1219  0.9832 -0.6231
  273MOL    C9438718   4.998   5.254   0.098  0.1233  0.2709  0.2850
  273MOL    C9538719   5.053   5.127   0.052  0.4836 -0.7530  0.2216
  273MOL    N9638720   5.082   5.027   0.012 -0.2339  0.5139  0.5706
  273MOL    H9738721   5.040   5.459   0.066  0.9325  0.0028  1.4423
  273MOL    H9838722   4.983   5.368   8.244 -1.1650  0.2232  0.3055
  273MOL    H9938723   4.892   5.245   0.075  0.3312 -1.6938  0.0240
  273MOL   C10038724   5.009   5.271   0.252 -0.0054 -0.1900 -0.4647
  273MOL   C10138725   4.894   5.361   0.316 -0.4856 -0.3627  0.1816
  273MOL   C10238726   4.761   5.299   0.289 -0.5842 -0.5358  0.2018
  273MOL   N10338727   4.662   5.250   0.257  0.0400  0.4253 -0.7599
  273MOL   H10438728   5.012   5.174   0.302  2.3439 -0.5459 -1.2373
  273MOL   H10538729   5.108   5.310   0.275  0.2741  1.0852 -3.5969
  273MOL   H10638730   4.891   5.453   0.258 -0.3902 -1.4674 -1.5959
  273MOL   C10738731   4.924   5.386   0.466 -0.1824  0.0104  0.2594
  273MOL   C10838732   4.836   5.495   0.521 -0.1390 -0.4029  0.1033
  273MOL   C10938733   4.811   5.479   0.665  0.2458 -0.7289 -0.1836
  273MOL   N11038734   4.791   5.467   0.778  0.0995  0.6048 -0.6440
  273MOL   H11138735   4.893   5.294   0.515  1.4071 -1.0375 -0.6594
  273MOL   H11238736   5.031   5.393   0.487 -0.1753  0.5727  0.0596
  273MOL   H11338737   4.739   5.487   0.473 -0.5162 -2.1579  1.1254
  273MOL   C11438738   4.891   5.633   0.478 -0.0015  0.2176 -0.4867
  273MOL   C11538739   4.810   5.754   0.522  0.0154  0.0616  0.8197
  273MOL   C11638740   4.892   5.882   0.521 -0.6234 -0.1757 -0.2661
  273MOL   N11738741   4.958   5.981   0.526  0.3259 -0.2850 -0.1557
  273MOL   H11838742   4.990   5.657   0.516 -0.6229 -0.0817  1.3928
  273MOL   H11938743   4.897   5.632   0.369  0.3710  1.1406 -0.4759
  273MOL   H12038744   4.796   5.732   0.628  0.1717  0.4688  0.9243
  273MOL   C12138745   4.668   5.772   0.455 -0.2272 -0.5957  0.0788
  273MOL   C12238746   4.670   5.806   0.308 -0.3289 -0.1836 -1.0410
  273MOL   C12338747   4.689   5.691   0.219  0.2625 -0.0598  0.5298
  273MOL   N12438748   4.706   5.603   0.148  0.2443 -0.0701 -0.6242
  273MOL   H12538749   4.607   5.682   0.470 -1.8037  0.8592  2.7653
  273MOL   H12638750   4.619   5.847   0.518 -1.6745 -0.8987 -0.6498
  273MOL   H12738751   4.762   5.862   0.289 -0.6483  0.2610 -1.2686
  273MOL   C12838752   4.550   5.898   0.269 -0.6538  0.1706 -0.0770
  273MOL   C12938753   4.587   6.035   0.205  0.0575  0.5161 -0.1899
  273MOL   C13038754   4.690   6.047   0.101  1.0545  0.3849 -0.4545
  273MOL   N13138755   4.773   6.059   0.026 -0.3263  0.1022  0.2777
  273MOL   H13238756   4.487   5.850   0.194 -0.2687 -1.6243  0.7126
  273MOL   H13338757   4.488   5.915   0.358  0.7751  0.3951  0.8967
  273MOL   H13438758   4.635   6.091   0.285  0.0118  0.2811  0.0001
  273MOL   C13538759   4.467   6.122   0.165  0.2357  0.0567 -0.5328
  273MOL   C13638760   4.498   6.257   0.111  0.4232  0.7687 -0.5829
  273MOL   C13738761   4.374   6.343   0.116  0.3716  0.9458 -0.4729
  273MOL   N13838762   4.278   6.412   0.126 -0.1204 -0.0517 -0.6652
  273MOL   H13938763   4.396   6.066   0.104 -1.0432 -1.3950  2.1995
  273MOL   H14038764   4.414   6.153   0.254  0.5342  2.0781 -1.0368
  273MOL   H14138765   4.530   6.244   0.008 -1.2137  3.2343 -1.4565
  273MOL   H14238766   4.581   6.305   0.162  0.1137  1.3572 -0.6273
  274MOL     C138767   1.262   7.302   7.740 -0.4504  0.6591 -0.0292
  274MOL     C238768   1.146   7.319   7.832 -0.1245  0.1431 -0.6834
  274MOL     C338769   1.195   7.357   7.965 -0.5531  0.2742  0.4161
  274MOL     N438770   1.235   7.385   8.069 -0.4829  0.0813 -0.3011
  274MOL     H538771   1.344   7.248   7.788 -2.1023  1.0617  3.3561
  274MOL     H638772   1.297   7.403   7.719  1.1311  0.6929  2.6114
  274MOL     H738773   1.096   7.222   7.839  0.2293  0.0976  1.6810
  274MOL     H838774   1.234   7.263   7.642 -1.5610  3.2211 -0.7764
  274MOL     C938775   1.051   7.425   7.766 -0.1225 -0.3944  0.8880
  274MOL    C1038776   0.930   7.461   7.848 -0.4514 -0.0191  0.8467
  274MOL    C1138777   0.871   7.587   7.805  0.0989 -0.6578 -0.0943
  274MOL    N1238778   0.825   7.683   7.764 -0.3652 -0.5975  0.2593
  274MOL    H1338779   1.111   7.515   7.768 -0.4670 -0.1007 -1.2342
  274MOL    H1438780   1.023   7.390   7.667 -0.5251  0.7825  0.5895
  274MOL    H1538781   0.967   7.487   7.948  1.1490 -1.5665  0.6891
  274MOL    C1638782   0.830   7.345   7.876  0.3435 -0.4298 -0.5650
  274MOL    C1738783   0.695   7.394   7.941 -1.0495 -0.2988 -0.0388
  274MOL    C1838784   0.601   7.292   7.913  0.7499  0.2147  0.6331
  274MOL    N1938785   0.526   7.208   7.884  0.5994  0.1849 -0.7342
  274MOL    H2038786   0.822   7.296   7.779  2.5003  0.1123 -1.0327
  274MOL    H2138787   0.862   7.266   7.944 -1.1759 -1.7013 -1.3105
  274MOL    H2238788   0.662   7.482   7.886  2.0755  0.8158 -0.2609
  274MOL    C2338789   0.712   7.415   8.094 -0.3049 -0.3288  0.2009
  274MOL    C2438790   0.603   7.498   8.173 -0.0887 -1.3359  0.5417
  274MOL    C2538791   0.496   7.406   8.191  0.0948 -0.5563 -0.0458
  274MOL    N2638792   0.410   7.334   8.208  0.0326 -0.0098  0.1924
  274MOL    H2738793   0.735   7.318   8.138 -0.2047  0.5214  2.0375
  274MOL    H2838794   0.799   7.480   8.107 -0.6241  0.0716  0.3334
  274MOL    H2938795   0.584   7.588   8.114 -0.2019 -0.3860  1.9861
  274MOL    C3038796   0.665   7.545   8.303 -0.1447 -0.0812 -0.0149
  274MOL    C3138797   0.567   7.591   0.107 -0.3262 -0.4089 -0.3426
  274MOL    C3238798   0.459   7.682   0.067  0.2539 -0.4853  0.2548
  274MOL    N3338799   0.380   7.760   0.030  0.6943  0.4194 -0.0917
  274MOL    H3438800   0.707   7.459   0.041  0.6980  0.5098  0.3009
  274MOL    H3538801   0.743   7.617   8.279 -0.1506 -0.1183 -0.1495
  274MOL    H3638802   0.631   7.655   0.168 -0.8451  2.6809 -2.9256
  274MOL    C3738803   0.508   7.487   0.207  0.3367  0.7526  0.4260
  274MOL    C3838804   0.610   7.385   0.258  0.1665 -0.4066  0.3085
  274MOL    C3938805   0.736   7.450   0.309  0.6578 -0.0136  0.5136
  274MOL    N4038806   0.829   7.504   0.352  0.4439  0.1863  0.1066
  274MOL    H4138807   0.462   7.537   0.293 -0.6464 -0.1658  0.4418
  274MOL    H4238808   0.429   7.436   0.152  1.2306  0.7519 -0.8578
  274MOL    H4338809   0.653   7.328   0.176  0.5802  4.3562 -2.9544
  274MOL    C4438810   0.548   7.303   0.363 -0.6334  0.0389 -0.0647
  274MOL    C4538811   0.457   7.196   0.315  0.5498  0.3776 -0.1684
  274MOL    C4638812   0.529   7.126   0.209  0.4677 -0.3772  0.1198
  274MOL    N4738813   0.595   7.075   0.126 -0.1698  0.5973 -0.1362
  274MOL    H4838814   0.633   7.256   0.413 -0.6898  1.1330  1.0939
  274MOL    H4938815   0.500   7.371   0.434 -1.4857 -1.8948  1.2435
  274MOL    H5038816   0.363   7.235   0.276  0.4247  1.2894  1.0386
  274MOL    C5138817   0.420   7.110   0.442 -0.0917 -0.5968  0.3868
  274MOL    C5238818   0.293   7.033   0.413 -0.1806 -0.3573  0.5559
  274MOL    C5338819   0.318   6.942   0.299  0.9843 -0.3453 -0.0806
  274MOL    N5438820   0.345   6.873   0.213  1.4938  0.1586 -0.6728
  274MOL    H5538821   0.497   7.036   0.464  1.0404  0.8285  1.4078
  274MOL    H5638822   0.406   7.173   0.531  0.8227  0.6901 -0.3547
  274MOL    H5738823   0.213   7.100   0.382 -1.4606 -2.4198 -0.7164
  274MOL    C5838824   0.251   6.970   0.551 -0.3408  0.0973 -0.9807
  274MOL    C5938825   0.116   6.889   0.542 -0.3819 -0.4610  0.1467
  274MOL    C6038826   0.127   6.764   0.456 -0.4577 -0.2622  0.8300
  274MOL    N6138827   0.137   6.661   0.398 -0.4045 -0.5933 -0.3097
  274MOL    H6238828   0.320   6.890   0.576 -3.3299 -2.0337  0.7564
  274MOL    H6338829   0.250   7.038   0.635  0.9572  0.2351 -1.0706
  274MOL    H6438830   0.042   6.955   0.495  0.8924  0.7816 -0.1551
  274MOL    C6538831   0.063   6.852   0.677 -0.1994  0.3987  0.0106
  274MOL    C6638832   8.243   6.772   0.682 -0.5243  0.8469 -0.6174
  274MOL    C6738833   8.133   6.825   0.603  0.3821  0.1601 -0.4552
  274MOL    N6838834   8.039   6.867   0.546  0.4833  0.6932  0.3318
  274MOL    H6938835   0.140   6.810   0.743 -1.9147  0.2286  1.9709
  274MOL    H7038836   0.031   6.948   0.718 -1.3564  0.8364 -1.8747
  274MOL    H7138837   8.213   6.787   0.786  0.7792 -0.9372  0.0448
  274MOL    C7238838   8.261   6.618   0.683  0.5572  0.1303 -0.2048
  274MOL    C7338839   8.157   6.535   0.754 -0.1206  0.9144  0.3472
  274MOL    C7438840   8.175   6.527   0.901  0.0466  0.4020 -0.0680
  274MOL    N7538841   8.194   6.522   1.015 -0.1074  0.2160 -0.2281
  274MOL    H7638842   8.292   6.578   0.587  1.5107  0.0938  0.1092
  274MOL    H7738843   0.035   6.595   0.746  0.4168 -0.3057 -0.1692
  274MOL    H7838844   8.183   6.434   0.722  0.7356  0.7847  1.4351
  274MOL    C7938845   8.014   6.568   0.711  0.1947 -0.3732  0.1568
  274MOL    C8038846   7.910   6.469   0.754  0.4198 -0.3205 -0.9192
  274MOL    C8138847   7.769   6.509   0.752  0.1122  0.1546 -0.2994
  274MOL    N8238848   7.660   6.541   0.747  0.0542  0.5175  0.1924
  274MOL    H8338849   7.980   6.660   0.758 -0.2341 -1.5067  2.1037
  274MOL    H8438850   7.995   6.595   0.607 -1.8213 -0.4759  0.4701
  274MOL    H8538851   7.930   6.453   0.860 -0.2796  0.1260 -0.7142
  274MOL    C8638852   7.918   6.336   0.676 -0.1899  1.0354  0.3466
  274MOL    C8738853   7.816   6.235   0.734  0.2019 -0.4381 -0.3867
  274MOL    C8838854   7.798   6.128   0.637 -0.0668  0.1959 -0.0529
  274MOL    N8938855   7.783   6.043   0.559 -0.3488  0.3807 -0.0835
  274MOL    H9038856   7.888   6.354   0.573 -1.7504 -0.2849  0.5641
  274MOL    H9138857   8.018   6.291   0.678 -1.2959 -1.5928 -1.6696
  274MOL    H9238858   7.713   6.270   0.732 -0.4295 -2.1586  0.5217
  274MOL    C9338859   7.831   6.190   0.882  0.4323 -0.1210 -0.5188
  274MOL    C9438860   7.963   6.124   0.916  0.0801 -0.1527 -0.2330
  274MOL    C9538861   8.003   6.157   1.056 -0.4339  0.4460 -0.4175
  274MOL    N9638862   8.022   6.183   1.166 -0.1021  0.0639 -0.1286
  274MOL    H9738863   7.822   6.274   0.952 -0.1315  1.4199 -2.4117
  274MOL    H9838864   7.754   6.121   0.913  1.1089 -1.4699 -1.7866
  274MOL    H9938865   8.042   6.176   0.862 -1.5278  0.7936 -1.7328
  274MOL   C10038866   7.978   5.974   0.882  0.3452  0.4809  0.7426
  274MOL   C10138867   8.117   5.912   0.879  0.2733 -0.1117 -0.2743
  274MOL   C10238868   8.157   5.866   1.014  0.2457  0.2917  0.0732
  274MOL   N10338869   8.188   5.830   1.123 -1.1995 -0.4722 -0.3027
  274MOL   H10438870   7.917   5.923   0.957 -0.5912  0.7522  0.1839
  274MOL   H10538871   7.927   5.943   0.791  0.0548 -0.2349  1.1460
  274MOL   H10638872   8.194   5.986   0.859 -1.8851  2.0268 -1.0383
  274MOL   C10738873   8.133   5.802   0.768  0.2726  0.5153  0.0898
  274MOL   C10838874   8.284   5.764   0.754  0.1581 -0.1853 -0.4739
  274MOL   C10938875   0.066   5.870   0.702 -1.1240  0.0132 -0.8390
  274MOL   N11038876   0.139   5.950   0.663 -0.3757  0.5816  0.4313
  274MOL   H11138877   8.071   5.716   0.792  2.2602 -1.2101 -0.7591
  274MOL   H11238878   8.087   5.834   0.674 -0.3558  1.1715  0.6134
  274MOL   H11338879   8.265   5.690   0.676 -2.8401  0.7162 -0.6626
  274MOL   C11438880   0.025   5.677   0.871 -0.4099  0.9707 -0.1562
  274MOL   C11538881   0.130   5.572   0.835 -0.1369  0.1767  0.8601
  274MOL   C11638882   0.253   5.634   0.797 -0.1474 -0.5296  0.2608
  274MOL   N11738883   0.353   5.681   0.762 -0.1536  0.1524 -0.3534
  274MOL   H11838884   0.074   5.744   0.942  0.6167  0.5404 -0.4614
  274MOL   H11938885   8.253   5.634   0.926  0.0845 -0.9758 -0.8801
  274MOL   H12038886   0.096   5.532   0.739  1.5328  1.4923 -0.3129
  274MOL   C12138887   0.146   5.459   0.945 -0.8484 -0.0653  0.0957
  274MOL   C12238888   0.048   5.348   0.924  0.2517 -0.4405 -1.0905
  274MOL   C12338889   0.080   5.280   0.790  0.6729 -0.3863 -0.3743
  274MOL   N12438890   0.102   5.233   0.687  0.5380 -0.4754 -0.0699
  274MOL   H12538891   0.248   5.420   0.940 -0.6477  0.3589  0.8529
  274MOL   H12638892   0.130   5.511   1.040 -0.4242 -0.4177  0.3589
  274MOL   H12738893   8.256   5.378   0.915  1.5784  4.7491 -0.5641
  274MOL   C12838894   0.053   5.252   1.043 -0.0046 -0.5678 -0.1536
  274MOL   C12938895   8.242   5.164   1.059  0.1001  0.0136  0.2721
  274MOL   C13038896   8.129   5.248   1.112 -0.6312 -0.1036  0.0568
  274MOL   N13138897   8.045   5.319   1.154 -0.7376  0.2623  0.3744
  274MOL   H13238898   0.139   5.186   1.042 -0.4667 -1.2234  1.3554
  274MOL   H13338899   0.069   5.301   1.139  0.0783  0.4012 -0.6590
  274MOL   H13438900   8.270   5.107   1.147 -1.6608 -1.9392 -0.3947
  274MOL   C13538901   8.226   5.067   0.940 -0.0676  0.4351 -0.0466
  274MOL   C13638902   8.143   4.943   0.976 -0.1883 -0.5821  0.3597
  274MOL   C13738903   8.005   4.979   1.017  0.1897 -0.8183  0.2355
  274MOL   N13838904   7.898   5.012   1.047  0.5122  0.0696  0.4176
  274MOL   H13938905   8.175   5.116   0.857  0.3880  0.2485 -0.4362
  274MOL   H14038906   0.010   5.029   0.906 -0.0828 -0.6709  1.1277
  274MOL   H14138907   8.189   4.889   1.059 -0.0993  2.2010  2.1871
  274MOL   H14238908   8.130   4.875   0.892  0.8766 -0.2221 -0.1030
  275MOL     C138909   4.968   7.261   5.855  1.0714  0.3396 -0.6953
  275MOL     C238910   5.035   7.369   5.782  0.5123 -0.1239 -0.2933
  275MOL     C338911   5.135   7.312   5.688  0.3699 -0.3056 -0.1573
  275MOL     N438912   5.212   7.267   5.618  0.3458 -0.2224  0.1554
  275MOL     H538913   5.037   7.220   5.929 -1.0011 -1.5256  0.2365
  275MOL     H638914   4.931   7.181   5.790 -0.7092  1.2960 -0.8945
  275MOL     H738915   5.087   7.422   5.863  1.4996 -0.6017 -0.6051
  275MOL     H838916   4.898   7.315   5.918  1.3836  0.2643 -0.2829
  275MOL     C938917   4.936   7.472   5.721  0.1046  0.4148  1.3392
  275MOL    C1038918   4.980   7.616   5.717 -0.7568  0.1393 -0.1592
  275MOL    C1138919   5.124   7.646   5.711  0.3727  0.4626  0.1162
  275MOL    N1238920   5.238   7.670   5.707 -0.2115  0.1870 -0.7494
  275MOL    H1338921   4.921   7.432   5.621 -0.1001 -0.8907  1.8696
  275MOL    H1438922   4.847   7.471   5.785  1.3764  0.4239  3.1532
  275MOL    H1538923   4.961   7.660   5.814 -0.5613  1.6305 -0.7817
  275MOL    C1638924   4.909   7.694   5.612  0.3280 -0.4147  0.1201
  275MOL    C1738925   4.753   7.716   5.644  1.1471 -0.2208  0.4792
  275MOL    C1838926   4.719   7.839   5.716 -0.6935 -0.3862  0.1951
  275MOL    N1938927   4.690   7.934   5.771 -0.4050  0.0644  0.6215
  275MOL    H2038928   4.961   7.788   5.595  0.6592 -0.8646 -1.4353
  275MOL    H2138929   4.927   7.624   5.530  1.1804 -0.3075  0.2154
  275MOL    H2238930   4.709   7.628   5.693 -1.1005  0.7858  0.3296
  275MOL    C2338931   4.684   7.715   5.503  0.0049  0.5489 -0.7762
  275MOL    C2438932   4.533   7.706   5.522  0.2143 -0.8804 -0.0865
  275MOL    C2538933   4.468   7.836   5.548  0.4226  0.0739  0.5887
  275MOL    N2638934   4.426   7.935   5.575 -0.0811  0.1503  0.2031
  275MOL    H2738935   4.718   7.805   5.452 -2.1703  2.2185  0.6142
  275MOL    H2838936   4.720   7.627   5.451 -3.1593 -0.3777 -1.5203
  275MOL    H2938937   4.519   7.649   5.614  0.3025 -2.4790 -1.0428
  275MOL    C3038938   4.464   7.628   5.405  0.1347 -0.1470  0.4611
  275MOL    C3138939   4.489   7.651   5.256  0.5659 -0.5878 -0.3219
  275MOL    C3238940   4.385   7.574   5.184 -0.7861  0.1847  0.1146
  275MOL    N3338941   4.303   7.514   5.133  0.9479  0.0799  0.0851
  275MOL    H3438942   4.498   7.528   5.429  3.2073  0.8301  0.4095
  275MOL    H3538943   4.356   7.632   5.420 -0.1778 -1.8843 -1.2379
  275MOL    H3638944   4.583   7.607   5.222  0.3374 -0.6576 -0.8761
  275MOL    C3738945   4.474   7.795   5.208  0.0460 -0.4496  0.6686
  275MOL    C3838946   4.490   7.828   5.053 -0.0780  0.4827  0.4556
  275MOL    C3938947   4.363   7.824   4.982 -0.7181 -0.8605  0.2310
  275MOL    N4038948   4.264   7.818   4.925 -0.3162 -0.1393  0.2899
  275MOL    H4138949   4.370   7.820   5.232  0.3652  1.4919  0.1093
  275MOL    H4238950   4.535   7.867   5.262  0.0613 -0.5352  0.7644
  275MOL    H4338951   4.548   7.746   5.011  0.9454  0.3117  2.1831
  275MOL    C4438952   4.579   7.952   5.019 -0.3561 -0.7092  0.2322
  275MOL    C4538953   4.513   8.093   5.025  0.2068  0.0137  1.0001
  275MOL    C4638954   4.484   8.119   5.161 -0.4319 -0.0382 -0.1317
  275MOL    N4738955   4.468   8.138   5.276 -0.1954 -0.6232 -0.8433
  275MOL    H4838956   4.656   7.968   5.095 -0.3914  0.6615 -0.0094
  275MOL    H4938957   4.616   7.932   4.919  1.7713  0.2198  0.7899
  275MOL    H5038958   4.419   8.095   4.970  0.8498 -0.9852 -0.1711
  275MOL    C5138959   4.601   8.211   4.962  0.8679  0.0090 -0.3418
  275MOL    C5238960   4.539   0.039   4.947 -0.4207  0.7224  0.0737
  275MOL    C5338961   4.506   0.093   5.079 -0.4249 -0.2050 -0.0243
  275MOL    N5438962   4.474   0.141   5.174 -1.1476  0.1737 -0.1347
  275MOL    H5538963   4.696   8.213   5.014 -0.2719  2.4905  1.7383
  275MOL    H5638964   4.621   8.188   4.857 -1.7334  0.2462 -0.9371
  275MOL    H5738965   4.446   0.023   4.893 -0.7744 -0.1487  0.9287
  275MOL    C5838966   4.639   0.123   4.863 -0.5610 -0.0227  0.3395
  275MOL    C5938967   4.593   0.259   4.817 -0.4416 -0.6378  0.0864
  275MOL    C6038968   4.716   0.322   4.760  0.0681  0.6223 -0.1189
  275MOL    N6138969   4.812   0.374   4.725 -0.1608 -0.6325  0.4426
  275MOL    H6238970   4.725   0.132   4.930 -0.1717  0.1969 -0.1922
  275MOL    H6338971   4.663   0.074   4.768  1.4274  1.7158 -0.0892
  275MOL    H6438972   4.578   0.317   4.909  1.1654  0.7881 -0.5359
  275MOL    C6538973   4.465   0.262   4.722 -0.2292 -0.4479  0.5603
  275MOL    C6638974   4.424   0.401   4.691 -0.8418  0.0115  0.9774
  275MOL    C6738975   4.507   0.445   4.582 -0.1453 -0.0830  0.1764
  275MOL    N6838976   4.574   0.479   4.492  0.0356 -0.3912 -0.0257
  275MOL    H6938977   4.493   0.198   4.639 -0.6527  0.4918 -0.3031
  275MOL    H7038978   4.389   0.204   4.776 -1.6561  2.9054  2.3536
  275MOL    H7138979   4.468   0.455   4.775  0.8040  1.7212 -0.9102
  275MOL    C7238980   4.278   0.430   4.666 -0.5312  0.2304 -1.2190
  275MOL    C7338981   4.229   0.575   4.697 -0.4427 -0.2284 -0.0568
  275MOL    C7438982   4.283   0.671   4.598 -0.1386 -0.5298  0.1199
  275MOL    N7538983   4.322   0.749   4.525 -0.0971  0.3508 -0.1863
  275MOL    H7638984   4.257   0.388   4.567 -2.9429 -2.3291  0.3160
  275MOL    H7738985   4.228   0.362   4.735 -1.1933  0.0941 -1.8268
  275MOL    H7838986   4.254   0.614   4.796 -2.1730 -0.3240  0.4355
  275MOL    C7938987   4.074   0.591   4.698  0.8171  0.0564 -0.5319
  275MOL    C8038988   4.020   0.730   4.735  0.1242  0.8503  0.5696
  275MOL    C8138989   3.894   0.749   4.673  0.7374 -1.0289 -0.0705
  275MOL    N8238990   3.789   0.763   4.626  0.0486 -0.5066 -0.6226
  275MOL    H8338991   4.029   0.561   4.603 -1.2444  0.2114  0.3828
  275MOL    H8438992   4.041   0.520   4.773 -0.8698  1.2263 -0.1527
  275MOL    H8538993   4.080   0.802   4.680  0.8666  1.0810  1.6879
  275MOL    C8638994   4.012   0.763   4.884 -0.5578 -0.2339 -0.0498
  275MOL    C8738995   3.876   0.755   4.957  0.4036 -0.7548 -0.1107
  275MOL    C8838996   3.832   0.616   4.988 -0.3246  0.2237  0.1929
  275MOL    N8938997   3.812   0.503   5.010 -0.7139  0.0848 -0.3930
  275MOL    H9038998   4.075   0.700   4.946  0.1217  0.9461  0.4932
  275MOL    H9138999   4.068   0.855   4.901  1.3473 -1.4596  0.4435
  275MOL    H9239000   3.793   0.792   4.897  0.8457 -0.3918 -0.5006
  275MOL    C9339001   3.876   0.830   5.098  0.2139 -0.2770 -0.2528
  275MOL    C9439002   3.738   0.841   5.162  0.0110 -0.6596  0.3329
  275MOL    C9539003   3.749   0.897   5.293  0.2419 -0.3066  0.7124
  275MOL    N9639004   3.754   0.941   5.398  0.2996 -0.4864  0.7166
  275MOL    H9739005   3.945   0.787   5.170  1.0536 -0.1230 -0.9569
  275MOL    H9839006   3.919   0.930   5.085  1.7981 -1.1096 -1.5962
  275MOL    H9939007   3.706   0.738   5.174 -1.5483 -0.3564 -1.0192
  275MOL   C10039008   3.633   0.916   5.077 -0.1881 -0.7170  0.5597
  275MOL   C10139009   3.501   0.968   5.145  0.1609  0.1086 -0.0270
  275MOL   C10239010   3.422   1.044   5.046 -0.2494 -0.1349 -0.6942
  275MOL   N10339011   3.360   1.097   4.961 -0.1467 -0.2795 -0.0799
  275MOL   H10439012   3.674   1.011   5.044 -1.1850  0.4042  2.4988
  275MOL   H10539013   3.607   0.869   4.982 -2.3158  2.5948 -0.5918
  275MOL   H10639014   3.517   1.045   5.219 -3.9275  1.0516 -0.0006
  275MOL   C10739015   3.415   0.858   5.206 -1.0656 -0.2182 -0.3018
  275MOL   C10839016   3.261   0.902   5.240 -0.1196  0.1477  0.0419
  275MOL   C10939017   3.241   1.039   5.287  0.1966  0.2441  0.2125
  275MOL   N11039018   3.224   1.149   5.324  0.8016  0.0074  0.4748
  275MOL   H11139019   3.419   0.770   5.142  2.7734 -1.3811  1.4087
  275MOL   H11239020   3.461   0.835   5.302 -0.1120 -0.6340 -0.8531
  275MOL   H11339021   3.245   0.839   5.327  0.4046 -2.0623 -1.4035
  275MOL   C11439022   3.165   0.843   5.131 -0.2523 -0.4109 -0.1530
  275MOL   C11539023   3.016   0.860   5.151 -0.3993  0.1701 -0.6701
  275MOL   C11639024   2.982   0.999   5.121  0.3133 -0.2401 -0.0808
  275MOL   N11739025   2.957   1.107   5.097  0.0340  0.2961  0.5305
  275MOL   H11839026   3.189   0.876   5.030  2.3644 -1.9793 -0.0865
  275MOL   H11939027   3.165   0.734   5.133 -1.0721 -0.4287 -0.6820
  275MOL   H12039028   2.986   0.851   5.255  3.3946 -1.9301  0.2995
  275MOL   C12139029   2.928   0.756   5.073  0.6874  0.3654 -0.6887
  275MOL   C12239030   2.868   0.807   4.941  0.1130  0.2180  0.1498
  275MOL   C12339031   2.974   0.841   4.847 -0.5038 -0.3090 -0.3440
  275MOL   N12439032   3.061   0.876   4.774 -0.7917  0.1575 -0.3165
  275MOL   H12539033   2.987   0.665   5.065 -0.7278 -0.5635 -0.8689
  275MOL   H12639034   2.845   0.717   5.132  1.4600  1.2423  0.9844
  275MOL   H12739035   2.819   0.904   4.940  1.6168  1.0109 -3.2390
  275MOL   C12839036   2.768   0.707   4.883  0.1008 -0.5355  0.2888
  275MOL   C12939037   2.630   0.693   4.961 -0.3632 -0.3756  0.1691
  275MOL   C13039038   2.597   0.824   5.028 -0.2530  0.1803 -0.1218
  275MOL   N13139039   2.568   0.924   5.083  0.6449  0.3354 -0.5407
  275MOL   H13239040   2.733   0.736   4.784 -0.7780  2.1144  1.3473
  275MOL   H13339041   2.809   0.606   4.883 -1.2174 -1.1171 -2.4047
  275MOL   H13439042   2.662   0.620   5.035 -0.5660 -1.8137 -1.1133
  275MOL   C13539043   2.514   0.637   4.877 -0.7507  0.5189 -0.5772
  275MOL   C13639044   2.382   0.602   4.953 -0.3059  0.3500  0.3691
  275MOL   C13739045   2.401   0.508   5.066  0.4503 -0.1609 -0.1121
  275MOL   N13839046   2.410   0.440   5.160  0.2137  0.8664  0.2827
  275MOL   H13939047   2.496   0.708   4.796  1.0520 -0.0307 -1.4746
  275MOL   H14039048   2.542   0.550   4.818 -2.4680  0.0019 -0.6800
  275MOL   H14139049   2.306   0.571   4.881 -1.6007  2.1199  0.9424
  275MOL   H14239050   2.338   0.692   4.996 -2.1152 -1.3088  2.0607
  276MOL     C139051   4.403   2.499   3.185 -0.2966 -0.8933 -0.2547
  276MOL     C239052   4.534   2.427   3.171  0.1268 -0.2834 -0.0177
  276MOL     C339053   4.625   2.481   3.068  0.0898 -1.1931 -0.3752
  276MOL     N439054   4.697   2.519   2.987  0.1784  0.1557 -0.0356
  276MOL     H539055   4.343   2.498   3.094 -0.6411  3.8436 -0.2463
  276MOL     H639056   4.415   2.602   3.218 -0.2953 -0.6281 -1.0676
  276MOL     H739057   4.505   2.327   3.139  1.8738 -1.7694  2.8361
  276MOL     H839058   4.348   2.440   3.259 -0.1663 -2.6923 -1.5703
  276MOL     C939059   4.613   2.404   3.313  0.4094  0.2757 -0.1145
  276MOL    C1039060   4.693   2.527   3.353 -0.2961 -0.2742 -0.3968
  276MOL    C1139061   4.627   2.660   3.337  0.2742  0.6364 -0.0446
  276MOL    N1239062   4.577   2.763   3.320  0.5895  0.1637  0.1817
  276MOL    H1339063   4.536   2.374   3.384 -0.8103  3.7252  0.1239
  276MOL    H1439064   4.675   2.315   3.308  1.5506  0.9960  1.0191
  276MOL    H1539065   4.779   2.524   3.286  0.9688 -1.9525  1.2442
  276MOL    C1639066   4.755   2.508   3.492 -0.7236 -0.1533  0.5858
  276MOL    C1739067   4.858   2.396   3.503 -0.4447 -0.3864  0.4737
  276MOL    C1839068   4.970   2.431   3.414  0.3149 -0.2052 -0.5439
  276MOL    N1939069   5.051   2.467   3.347 -0.2288  0.9266  0.3245
  276MOL    H2039070   4.815   2.597   3.506  0.0911 -0.0807 -2.9638
  276MOL    H2139071   4.681   2.513   3.572  0.0306  2.0429  1.1845
  276MOL    H2239072   4.813   2.306   3.461  0.6704 -1.2653  1.1460
  276MOL    C2339073   4.889   2.371   3.652  0.0486 -1.0776  0.5502
  276MOL    C2439074   4.993   2.264   3.680 -0.7159  0.3092  0.0529
  276MOL    C2539075   5.129   2.311   3.675 -0.3846  0.2336 -0.1487
  276MOL    N2639076   5.236   2.362   3.675  0.1119 -0.2678  0.3470
  276MOL    H2739077   4.922   2.470   3.685 -0.1552 -0.4798 -0.9636
  276MOL    H2839078   4.792   2.369   3.701 -0.4814 -2.6121 -0.5099
  276MOL    H2939079   4.989   2.190   3.600 -0.8159  0.4921 -0.1124
  276MOL    C3039080   4.952   2.188   3.809  0.3462 -0.3827  0.4196
  276MOL    C3139081   5.060   2.085   3.861 -0.3439 -0.1226 -0.2048
  276MOL    C3239082   5.106   1.994   3.757  0.8994 -0.0066 -0.0449
  276MOL    N3339083   5.141   1.931   3.669  0.7031  0.5143 -0.0394
  276MOL    H3439084   4.911   2.266   3.872 -3.2022  0.1262 -2.3917
  276MOL    H3539085   4.860   2.138   3.779  0.1933 -0.3129  0.7814
  276MOL    H3639086   5.014   2.013   3.929 -0.5156 -0.1428 -0.3420
  276MOL    C3739087   5.183   2.137   3.945  0.3338 -0.5022 -0.0516
  276MOL    C3839088   5.154   2.227   4.060  0.1084 -0.1759  0.1168
  276MOL    C3939089   5.048   2.157   4.140 -0.1759  0.6183  0.3359
  276MOL    N4039090   4.971   2.100   4.205  0.0986 -0.0977 -0.8052
  276MOL    H4139091   5.224   2.046   3.989 -1.8010 -0.9158  1.1755
  276MOL    H4239092   5.260   2.189   3.888  1.3765  0.2406  1.9826
  276MOL    H4339093   5.100   2.314   4.023  1.6471  1.4802  1.6433
  276MOL    C4439094   5.275   2.261   4.143  0.0830  0.2673  0.3521
  276MOL    C4539095   5.364   2.369   4.083  0.1542 -0.6875  0.6241
  276MOL    C4639096   5.293   2.497   4.056  0.1917 -0.1628  0.3743
  276MOL    N4739097   5.246   2.599   4.036  0.3703 -0.7420  0.4114
  276MOL    H4839098   5.247   2.287   4.246  0.4204  2.1915 -0.0182
  276MOL    H4939099   5.331   2.168   4.142  1.1272  0.9044 -2.4764
  276MOL    H5039100   5.407   2.335   3.989  2.0229  0.5444  1.0051
  276MOL    C5139101   5.497   2.393   4.163 -0.4481  0.7241  0.5115
  276MOL    C5239102   5.606   2.287   4.145  0.6139  0.0783 -0.3640
  276MOL    C5339103   5.635   2.246   4.003 -0.4874  0.7472 -0.2912
  276MOL    N5439104   5.666   2.212   3.898 -0.0369 -0.1775 -0.4464
  276MOL    H5539105   5.546   2.486   4.135 -0.8740  0.2997 -1.7497
  276MOL    H5639106   5.486   2.411   4.270  1.5569  2.3162  0.4747
  276MOL    H5739107   5.569   2.204   4.205 -1.2389 -0.6403 -2.4442
  276MOL    C5839108   5.735   2.339   4.217  0.7601 -0.8383  0.2443
  276MOL    C5939109   5.854   2.237   4.232  0.3828 -0.3311 -1.0901
  276MOL    C6039110   5.812   2.099   4.261  0.0850 -0.3890  0.1096
  276MOL    N6139111   5.777   1.995   4.296  0.1916  0.2528  0.6927
  276MOL    H6239112   5.765   2.432   4.170 -0.9308 -1.0360 -1.2845
  276MOL    H6339113   5.713   2.371   4.319 -0.3514 -0.4675 -0.1016
  276MOL    H6439114   5.905   2.266   4.324 -1.0940  2.3431 -1.0718
  276MOL    C6539115   5.949   2.241   4.114  0.1517  0.2804 -0.4226
  276MOL    C6639116   6.074   2.145   4.102 -0.2602  0.2914  0.5784
  276MOL    C6739117   6.143   2.170   3.974 -0.7943  0.1427 -0.1321
  276MOL    N6839118   6.193   2.185   3.873 -0.1567 -0.0549  0.0302
  276MOL    H6939119   5.896   2.235   4.020 -0.9871 -3.0368  0.3413
  276MOL    H7039120   5.978   2.345   4.098 -2.3549  1.0776  0.0593
  276MOL    H7139121   6.036   2.044   4.086 -0.1662  0.4437 -0.6813
  276MOL    C7239122   6.171   2.163   4.225 -0.0316  0.8658 -0.1875
  276MOL    C7339123   6.288   2.067   4.235 -0.1846 -0.8962 -0.0761
  276MOL    C7439124   6.374   2.057   4.112 -0.3413 -0.4813  0.0230
  276MOL    N7539125   6.444   2.048   4.024 -0.1076  0.1988  0.5676
  276MOL    H7639126   6.198   2.266   4.246 -1.1160  1.0265  0.4849
  276MOL    H7739127   6.110   2.137   4.312  0.7635 -0.8781 -0.1375
  276MOL    H7839128   6.248   1.968   4.256 -0.8403 -0.3861  1.1250
  276MOL    C7939129   6.381   2.116   4.347  1.3415  0.8546  0.3245
  276MOL    C8039130   6.443   1.995   4.427 -0.1621  0.4250 -0.0183
  276MOL    C8139131   6.564   1.954   4.341 -0.0015 -0.0214  0.1272
  276MOL    N8239132   6.655   1.917   4.277  0.6662  0.2929 -0.0291
  276MOL    H8339133   6.459   2.185   4.313  1.0944  1.6347  1.2918
  276MOL    H8439134   6.320   2.183   4.408  0.6869  0.0945  0.5145
  276MOL    H8539135   6.377   1.909   4.422 -1.5150  1.4341  0.0850
  276MOL    C8639136   6.475   2.040   4.569  0.6452  0.3405  0.1657
  276MOL    C8739137   6.380   2.021   4.689  0.2117  1.1250  0.3290
  276MOL    C8839138   6.444   2.099   4.801  0.7385 -0.2619  0.0612
  276MOL    N8939139   6.492   2.163   4.885  0.1101  0.0018 -0.4242
  276MOL    H9039140   6.570   1.993   4.593  1.4954 -0.2623 -3.8834
  276MOL    H9139141   6.505   2.145   4.572 -2.1665  1.2062 -0.9178
  276MOL    H9239142   6.384   1.913   4.706 -0.3730  1.2998  1.6475
  276MOL    C9339143   6.234   2.049   4.667 -0.0791 -0.0564 -0.7551
  276MOL    C9439144   6.135   2.004   4.774 -0.9543 -0.3264  0.6185
  276MOL    C9539145   6.136   2.069   4.903 -0.0099  0.6705 -0.2194
  276MOL    N9639146   6.138   2.118   5.005 -0.0711  0.2726 -0.1732
  276MOL    H9739147   6.233   2.154   4.639  1.6929  0.0375 -0.5092
  276MOL    H9839148   6.213   2.003   4.571 -0.6446  0.1506 -0.7351
  276MOL    H9939149   6.176   1.906   4.796  2.6370  0.9022 -0.3720
  276MOL   C10039150   5.992   2.001   4.723  0.1905 -0.4100 -0.1775
  276MOL   C10139151   5.934   1.856   4.707 -0.5925  0.3188  0.0963
  276MOL   C10239152   5.895   1.810   4.842 -0.7424 -0.7217  0.4080
  276MOL   N10339153   5.860   1.779   4.948  0.6331  0.1619  0.2897
  276MOL   H10439154   5.926   2.057   4.789 -1.9866 -1.2933 -1.5476
  276MOL   H10539155   5.979   2.061   4.633 -1.5926 -2.3161 -1.2269
  276MOL   H10639156   6.019   1.797   4.671  0.3272  3.3298 -2.9125
  276MOL   C10739157   5.824   1.845   4.608  0.5867 -0.6709 -0.4480
  276MOL   C10839158   5.691   1.916   4.640  0.3282 -0.2165  0.6365
  276MOL   C10939159   5.718   2.056   4.602 -0.4328 -0.0208 -0.4878
  276MOL   N11039160   5.744   2.164   4.571  0.0495  0.3211  0.1900
  276MOL   H11139161   5.864   1.866   4.508 -3.1869 -1.5418 -2.2234
  276MOL   H11239162   5.801   1.739   4.615 -1.7105 -0.3631 -2.5406
  276MOL   H11339163   5.665   1.913   4.746 -1.0555  0.2154  0.3222
  276MOL   C11439164   5.573   1.861   4.557  0.0829 -1.4019 -0.4659
  276MOL   C11539165   5.438   1.929   4.588 -1.1467 -0.9343 -0.0538
  276MOL   C11639166   5.412   2.040   4.489 -0.6154 -0.7367  0.8557
  276MOL   N11739167   5.385   2.128   4.418 -0.7284 -0.2343  0.0929
  276MOL   H11839168   5.592   1.855   4.450 -0.5486 -4.0942 -0.4813
  276MOL   H11939169   5.561   1.757   4.588  1.1724 -1.5611 -0.5678
  276MOL   H12039170   5.449   1.989   4.679 -0.5352 -0.0922 -0.6706
  276MOL   C12139171   5.319   1.826   4.593 -0.1446 -0.7283 -0.5395
  276MOL   C12239172   5.174   1.865   4.606 -0.1004 -0.2392  0.7057
  276MOL   C12339173   5.156   1.974   4.693  0.5249  0.0076 -0.4425
  276MOL   N12439174   5.142   2.061   4.770  0.6172 -0.4689  0.4623
  276MOL   H12539175   5.335   1.758   4.510  1.1556 -1.3172  0.1728
  276MOL   H12639176   5.350   1.760   4.674  1.8160  0.2324 -0.4820
  276MOL   H12739177   5.113   1.798   4.666  0.9835  0.4603  2.6324
  276MOL   C12839178   5.097   1.891   4.475 -0.6390  0.1381 -0.2276
  276MOL   C12939179   5.069   1.759   4.399 -0.2257  0.0091 -0.4519
  276MOL   C13039180   5.031   1.654   4.485  0.3777  0.0833  0.9065
  276MOL   N13139181   5.005   1.576   4.561 -0.9419  0.1273  0.1747
  276MOL   H13239182   5.004   1.946   4.493 -0.7717 -0.1825  0.0715
  276MOL   H13339183   5.141   1.957   4.400 -0.3280  0.4508  0.2278
  276MOL   H13439184   5.169   1.728   4.369 -0.2521 -0.6483  0.1021
  276MOL   C13539185   5.000   1.779   4.263  0.8004  0.1145  0.2261
  276MOL   C13639186   4.977   1.647   4.178  0.3263  0.3430 -0.4666
  276MOL   C13739187   4.897   1.688   4.062 -0.1289 -0.1983  0.0586
  276MOL   N13839188   4.838   1.720   3.966  0.5349  0.2901  0.4769
  276MOL   H13939189   4.905   1.825   4.291  0.7952  0.6301 -0.6041
  276MOL   H14039190   5.063   1.842   4.200 -0.0519  0.1615 -0.6019
  276MOL   H14139191   4.938   1.562   4.235  2.8951 -0.7251 -0.2338
  276MOL   H14239192   5.076   1.610   4.152 -0.0224  0.1558 -1.5736
  277MOL     C139193   5.188   1.551   5.600  0.5652 -0.3768 -0.1989
  277MOL     C239194   5.201   1.678   5.688 -0.0367  0.2269 -0.2954
  277MOL     C339195   5.181   1.657   5.827  0.7066 -0.6954  0.8397
  277MOL     N439196   5.168   1.640   5.938  0.3192 -0.4699 -0.2163
  277MOL     H539197   5.090   1.504   5.610  0.4451  0.0056  0.4563
  277MOL     H639198   5.266   1.478   5.620 -0.2072 -1.0235  0.5031
  277MOL     H739199   5.121   1.745   5.654 -0.8899 -0.2770  0.6782
  277MOL     H839200   5.194   1.582   5.496 -0.6093  1.5131  0.2678
  277MOL     C939201   5.330   1.759   5.656 -0.0709 -0.0939 -0.0764
  277MOL    C1039202   5.463   1.720   5.726 -0.1890 -0.3805  0.5134
  277MOL    C1139203   5.518   1.600   5.664 -0.3627  1.2417 -0.7484
  277MOL    N1239204   5.560   1.506   5.608  0.8038 -1.4576 -0.2275
  277MOL    H1339205   5.341   1.758   5.547 -1.0502  0.7740 -0.2025
  277MOL    H1439206   5.309   1.863   5.680  1.6661  0.4037 -0.6709
  277MOL    H1539207   5.436   1.700   5.830 -0.8898  4.1034  1.2892
  277MOL    C1639208   5.586   1.813   5.730 -0.0585 -0.7069 -0.2320
  277MOL    C1739209   5.574   1.957   5.795  0.9247  0.7159  0.1150
  277MOL    C1839210   5.475   2.036   5.712 -0.1812  0.5377  0.1787
  277MOL    N1939211   5.391   2.095   5.652  0.3261 -0.3333 -0.0334
  277MOL    H2039212   5.669   1.758   5.775 -0.0800 -3.2276 -3.1062
  277MOL    H2139213   5.608   1.826   5.624  0.0117 -0.5616 -0.1993
  277MOL    H2239214   5.669   2.008   5.776  2.4606 -2.7412 -1.9850
  277MOL    C2339215   5.527   1.943   5.946  0.9037  0.0758 -0.3326
  277MOL    C2439216   5.615   1.870   6.048 -0.2964 -0.2307  0.1090
  277MOL    C2539217   5.756   1.909   6.029  0.6210  0.1934 -0.8520
  277MOL    N2639218   5.865   1.945   6.012 -1.0884 -0.1585 -0.3797
  277MOL    H2739219   5.532   2.048   5.976  0.8500  0.8598 -2.9115
  277MOL    H2839220   5.421   1.919   5.945  0.9293 -0.2431  1.7272
  277MOL    H2939221   5.622   1.766   6.017  2.6056  0.2904 -1.2203
  277MOL    C3039222   5.572   1.890   6.200 -0.1690  0.0978  0.5402
  277MOL    C3139223   5.437   1.835   6.239  0.1767 -0.3264  0.4155
  277MOL    C3239224   5.334   1.931   6.190 -0.0924 -0.4758  0.4087
  277MOL    N3339225   5.261   2.012   6.146 -0.3870  0.4619  0.0978
  277MOL    H3439226   5.645   1.844   6.266 -1.6781  0.1879  2.3238
  277MOL    H3539227   5.584   1.995   6.227  0.8558  0.1911 -0.2500
  277MOL    H3639228   5.445   1.854   6.347  0.9557  1.2385  0.0996
  277MOL    C3739229   5.410   1.686   6.215  0.1373  0.5977  0.8720
  277MOL    C3839230   5.505   1.600   6.307  0.4725  0.2088 -0.4333
  277MOL    C3939231   5.483   1.620   6.450 -0.4580  0.0001 -0.2477
  277MOL    N4039232   5.469   1.630   6.564 -0.0721  0.4268 -0.5366
  277MOL    H4139233   5.309   1.664   6.251 -0.2482  0.8216 -0.0756
  277MOL    H4239234   5.409   1.659   6.110 -1.8175 -0.4124  1.1304
  277MOL    H4339235   5.604   1.645   6.299 -0.3276  2.1613  0.5137
  277MOL    C4439236   5.503   1.453   6.262 -0.2743 -0.5694  0.3185
  277MOL    C4539237   5.617   1.356   6.318  0.2836 -0.1513  0.6468
  277MOL    C4639238   5.739   1.411   6.260  0.9996  0.2804  0.1756
  277MOL    N4739239   5.835   1.458   6.210 -0.0051 -0.1936 -0.0953
  277MOL    H4839240   5.404   1.410   6.277 -0.6772  0.4186  0.5410
  277MOL    H4939241   5.526   1.445   6.156  1.1387  1.0960  0.4936
  277MOL    H5039242   5.609   1.262   6.263 -1.1903  0.4865 -0.2690
  277MOL    C5139243   5.625   1.334   6.467 -0.2384  0.3350 -0.1325
  277MOL    C5239244   5.520   1.229   6.507 -0.8515 -0.8946  0.2975
  277MOL    C5339245   5.583   1.141   6.603  0.3017 -0.7555 -1.3464
  277MOL    N5439246   5.627   1.067   6.684 -0.2192  0.2524 -0.4217
  277MOL    H5539247   5.726   1.299   6.484  0.1459  1.2933 -0.4204
  277MOL    H5639248   5.617   1.418   6.537  1.8506  0.7359 -0.3606
  277MOL    H5739249   5.507   1.156   6.427  0.6347 -1.1387  0.2555
  277MOL    C5839250   5.387   1.282   6.549  0.2793 -0.3830 -0.4904
  277MOL    C5939251   5.355   1.295   6.699 -0.3251  0.4099  0.1207
  277MOL    C6039252   5.472   1.342   6.773  0.1923 -0.0763 -0.7845
  277MOL    N6139253   5.569   1.376   6.828  0.0881  0.5384 -0.6709
  277MOL    H6239254   5.375   1.383   6.511 -1.3546 -0.6150 -0.6655
  277MOL    H6339255   5.309   1.217   6.507 -1.6072  1.8223 -0.5072
  277MOL    H6439256   5.343   1.189   6.725 -1.1170  0.8090  1.4283
  277MOL    C6539257   5.229   1.377   6.739  0.3493 -0.0507 -0.7481
  277MOL    C6639258   5.091   1.319   6.696  0.1268 -0.2484 -0.3843
  277MOL    C6739259   5.105   1.178   6.663  0.4251  0.5374 -0.2408
  277MOL    N6839260   5.107   1.063   6.630 -0.2150 -0.4136 -0.3103
  277MOL    H6939261   5.229   1.386   6.848 -2.0559 -0.5677 -0.6727
  277MOL    H7039262   5.240   1.478   6.700  0.3711 -0.0871 -0.8353
  277MOL    H7139263   5.062   1.382   6.612 -1.0383 -0.0771  0.1374
  277MOL    C7239264   4.983   1.338   6.806 -0.1101 -0.4063 -0.4691
  277MOL    C7339265   4.834   1.335   6.756  0.4337 -0.8269 -0.6127
  277MOL    C7439266   4.818   1.437   6.646 -0.2391 -0.0770  0.3972
  277MOL    N7539267   4.799   1.509   6.561 -0.4141  0.0840  0.1500
  277MOL    H7639268   5.013   1.277   6.891  0.7298 -0.1879 -0.6094
  277MOL    H7739269   4.992   1.443   6.834  1.1336  0.1140 -2.6798
  277MOL    H7839270   4.761   1.364   6.831  1.2881 -0.1460 -0.0402
  277MOL    C7939271   4.779   1.199   6.707 -0.1560 -0.1494 -0.2111
  277MOL    C8039272   4.761   1.077   6.802  0.0176 -0.4603 -0.8486
  277MOL    C8139273   4.722   0.957   6.725 -0.5021  0.1048 -0.2878
  277MOL    N8239274   4.691   0.865   6.664  0.0277  0.4829  0.6883
  277MOL    H8339275   4.686   1.217   6.653 -0.5540 -0.2195  0.4394
  277MOL    H8439276   4.848   1.167   6.629 -0.4616 -1.6244  0.0935
  277MOL    H8539277   4.674   1.107   6.861  2.2387 -0.1615  2.4392
  277MOL    C8639278   4.881   1.050   6.901  0.0219  0.3492  0.4326
  277MOL    C8739279   4.885   0.919   6.980 -0.3844 -0.1094  0.0986
  277MOL    C8839280   4.944   0.813   6.889  0.2087  0.5041 -0.4254
  277MOL    N8939281   4.991   0.729   6.827 -0.2401  0.4663  0.4341
  277MOL    H9039282   4.975   1.062   6.848  0.0225 -1.9295 -0.1373
  277MOL    H9139283   4.887   1.131   6.973  0.2438  1.1413 -0.4695
  277MOL    H9239284   4.780   0.903   7.005 -0.7332 -0.7138 -1.6644
  277MOL    C9339285   4.969   0.931   7.109  0.6830  0.1690 -0.1800
  277MOL    C9439286   5.128   0.942   7.104 -0.2415  0.1844  0.2781
  277MOL    C9539287   5.171   1.055   7.027  0.7587 -0.2944  0.1366
  277MOL    N9639288   5.212   1.143   6.964 -0.7388  0.5313  0.0626
  277MOL    H9739289   4.933   1.024   7.153 -1.3159 -0.3410 -0.7074
  277MOL    H9839290   4.939   0.851   7.177  1.8334  0.9363  1.2581
  277MOL    H9939291   5.163   0.852   7.053 -2.3100 -0.6228  0.2204
  277MOL   C10039292   5.187   0.949   7.252 -0.4297  0.6501 -0.6798
  277MOL   C10139293   5.235   0.810   7.304 -0.0344 -0.1048  0.5781
  277MOL   C10239294   5.327   0.740   7.215 -0.2003 -0.6518 -0.5679
  277MOL   N10339295   5.403   0.688   7.146  0.0871  0.0566 -0.2673
  277MOL   H10439296   5.265   1.024   7.260 -1.5163  1.7507 -0.3186
  277MOL   H10539297   5.110   0.990   7.318 -2.5954 -1.2504 -1.9064
  277MOL   H10639298   5.160   0.732   7.292  1.2690 -1.6010  1.8121
  277MOL   C10739299   5.303   0.817   7.444 -0.3022 -0.4667  0.3225
  277MOL   C10839300   5.216   0.879   7.561  0.0578  0.7525  0.4913
  277MOL   C10939301   5.078   0.834   7.567 -0.1779 -0.2212  0.7752
  277MOL   N11039302   4.968   0.797   7.575 -0.7633  0.1690 -0.6533
  277MOL   H11139303   5.333   0.714   7.463 -2.7495 -1.9132 -3.0771
  277MOL   H11239304   5.400   0.867   7.442 -0.3134 -0.4651 -0.5193
  277MOL   H11339305   5.206   0.984   7.537 -2.4614  0.2861 -0.6747
  277MOL   C11439306   5.275   0.856   7.701  0.7352  0.1033  0.0846
  277MOL   C11539307   5.420   0.899   7.723 -0.3240 -0.0877 -0.2241
  277MOL   C11639308   5.455   1.018   7.640 -0.2625  0.0025  0.1968
  277MOL   N11739309   5.494   1.106   7.574  0.1739 -0.1032  0.0141
  277MOL   H11839310   5.204   0.894   7.774 -0.3086 -1.4960 -0.0693
  277MOL   H11939311   5.263   0.748   7.705  0.3788  0.0534 -1.8458
  277MOL   H12039312   5.475   0.810   7.693 -0.5341  0.0860 -1.1213
  277MOL   C12139313   5.449   0.926   7.871  0.1821 -0.2677 -0.1775
  277MOL   C12239314   5.595   0.969   7.913  0.0146  0.0792 -0.1668
  277MOL   C12339315   5.616   0.976   8.064  0.0210 -0.0477 -0.4603
  277MOL   N12439316   5.633   0.976   8.178  0.4050 -0.2104 -0.2976
  277MOL   H12539317   5.376   0.996   7.911 -0.1753 -0.9196  0.3433
  277MOL   H12639318   5.418   0.836   7.924  0.7098  0.2476  1.0226
  277MOL   H12739319   5.615   1.069   7.874  2.6956 -1.1979 -2.1385
  277MOL   C12839320   5.714   0.894   7.841 -0.5264  0.1270 -0.1993
  277MOL   C12939321   5.758   0.752   7.878 -0.6740  0.2868 -0.1866
  277MOL   C13039322   5.631   0.671   7.867  0.8426  0.6141 -0.5296
  277MOL   N13139323   5.527   0.607   7.864 -0.2216  0.1731 -0.5515
  277MOL   H13239324   5.688   0.885   7.735  1.6530 -1.4270 -0.6340
  277MOL   H13339325   5.802   0.957   7.844 -0.4818  0.1990 -2.2658
  277MOL   H13439326   5.786   0.742   7.983 -2.0022  0.8415  0.2341
  277MOL   C13539327   5.876   0.704   7.788 -0.1719 -0.5416 -0.6007
  277MOL   C13639328   5.939   0.571   7.827 -0.2381 -0.0029 -0.1263
  277MOL   C13739329   5.839   0.462   7.821  0.9275 -0.3251  0.1595
  277MOL   N13839330   5.763   0.379   7.806  0.6179 -0.0345  0.5586
  277MOL   H13939331   5.847   0.702   7.683  1.7206  1.7629 -1.1978
  277MOL   H14039332   5.961   0.772   7.794  0.0426 -0.8396 -0.2207
  277MOL   H14139333   5.976   0.580   7.929 -2.0414 -1.0609  0.6530
  277MOL   H14239334   6.019   0.548   7.756 -0.3231  2.3370 -1.0231
  278MOL     C139335   2.891   5.129   5.843  1.0146  0.2554  0.4367
  278MOL     C239336   2.788   5.028   5.802  0.5602  0.0767  0.4524
  278MOL     C339337   2.699   4.991   5.918  0.4191 -0.2810  0.4000
  278MOL     N439338   2.628   4.970   6.011  0.0780  0.7698 -0.5402
  278MOL     H539339   2.856   5.223   5.887  0.3442  0.8152 -1.2751
  278MOL     H639340   2.961   5.164   5.767 -0.0574  2.4058  0.4016
  278MOL     H739341   2.838   4.936   5.771  1.2675  0.7573 -0.4250
  278MOL     H839342   2.955   5.089   5.923 -0.3304 -0.8076  0.9936
  278MOL     C939343   2.703   5.075   5.682  0.1932  0.1201 -0.6427
  278MOL    C1039344   2.769   5.120   5.550  0.5399 -0.5170 -0.3925
  278MOL    C1139345   2.802   5.262   5.578 -0.0041  0.4664 -0.0834
  278MOL    N1239346   2.833   5.369   5.607 -0.0229 -0.1830 -0.4003
  278MOL    H1339347   2.631   4.998   5.655  1.9436 -1.1679 -1.6921
  278MOL    H1439348   2.635   5.151   5.722 -1.0008  0.0551 -2.4503
  278MOL    H1539349   2.698   5.118   5.468  1.4608  1.5617 -1.2883
  278MOL    C1639350   2.882   5.022   5.523  0.0197  0.4736  0.5402
  278MOL    C1739351   2.973   5.056   5.408 -0.0200 -0.6497 -0.7809
  278MOL    C1839352   3.040   5.188   5.416 -0.9375  0.3844  1.2447
  278MOL    N1939353   3.095   5.287   5.421  0.2090  0.0084 -0.4820
  278MOL    H2039354   2.942   5.016   5.614  1.6238  1.9205 -0.3915
  278MOL    H2139355   2.831   4.927   5.512 -2.0677  1.5668  0.5362
  278MOL    H2239356   2.910   5.053   5.319  0.6111 -1.4826 -1.2123
  278MOL    C2339357   3.073   4.938   5.386  0.2886  0.2924 -0.4636
  278MOL    C2439358   3.200   4.935   5.470 -0.5160  0.4601  0.3250
  278MOL    C2539359   3.192   4.964   5.615 -0.4488  0.7631 -0.5300
  278MOL    N2639360   3.185   4.986   5.726  0.0904  0.3743 -0.0845
  278MOL    H2739361   3.022   4.842   5.384  0.3796  0.2499 -0.8078
  278MOL    H2839362   3.110   4.932   5.284  0.9314  2.1086 -0.3670
  278MOL    H2939363   3.257   5.020   5.434  2.0337 -0.3581  2.2734
  278MOL    C3039364   3.288   4.811   5.445 -0.5329  0.2774 -0.0244
  278MOL    C3139365   3.256   4.684   5.532  0.2814 -0.4813 -0.6709
  278MOL    C3239366   3.110   4.651   5.542 -0.2384 -0.8705  0.1268
  278MOL    N3339367   2.997   4.627   5.547  0.0067 -0.1217 -1.2344
  278MOL    H3439368   3.285   4.794   5.337  0.5390  1.2264 -0.2052
  278MOL    H3539369   3.393   4.829   5.465 -0.0222 -2.0977 -0.3578
  278MOL    H3639370   3.290   4.705   5.633 -0.2989 -3.0915  0.1074
  278MOL    C3739371   3.345   4.566   5.481  0.8688 -0.0671  0.0048
  278MOL    C3839372   3.343   4.440   5.567  0.5754  0.0062 -0.1968
  278MOL    C3939373   3.209   4.373   5.564  0.3859  0.9169  0.1495
  278MOL    N4039374   3.106   4.320   5.574  0.6592  0.1493  0.3834
  278MOL    H4139375   3.310   4.552   5.378  0.0631 -2.3542  0.5694
  278MOL    H4239376   3.450   4.597   5.483  1.4923 -2.0367 -0.4733
  278MOL    H4339377   3.360   4.474   5.669  0.9668  0.6935 -0.4876
  278MOL    C4439378   3.452   4.342   5.528 -0.8718  0.3137  0.0165
  278MOL    C4539379   3.491   4.237   5.631 -0.4236  1.5278 -0.7695
  278MOL    C4639380   3.387   4.130   5.645 -0.1086 -1.0418 -0.3117
  278MOL    N4739381   3.306   4.049   5.661 -0.2663  0.1877 -0.4424
  278MOL    H4839382   3.424   4.298   5.432 -0.9936  3.5642 -1.5031
  278MOL    H4939383   3.545   4.394   5.503  1.1036 -2.0415  2.1278
  278MOL    H5039384   3.483   4.280   5.730 -0.8153 -0.7846  0.2497
  278MOL    C5139385   3.631   4.191   5.594  0.1901 -0.6988  0.1985
  278MOL    C5239386   3.678   4.053   5.655  0.2611 -0.0290 -0.4801
  278MOL    C5339387   3.618   3.937   5.589 -0.1431 -0.9363  0.5516
  278MOL    N5439388   3.577   3.847   5.535 -0.0584 -0.4964 -0.0572
  278MOL    H5539389   3.624   4.178   5.486 -1.6666 -1.8539  0.4345
  278MOL    H5639390   3.705   4.268   5.615 -0.2372 -0.4674  0.8848
  278MOL    H5739391   3.633   4.046   5.754 -1.8248  0.2447 -1.3753
  278MOL    C5839392   3.825   4.047   5.660 -0.4158  0.3981  0.0544
  278MOL    C5939393   3.897   4.021   5.532 -0.5744 -0.1915  0.6495
  278MOL    C6039394   3.871   4.131   5.442  0.0609  0.1297 -0.3952
  278MOL    N6139395   3.858   4.225   5.379  0.3293 -0.4757  0.2903
  278MOL    H6239396   3.868   4.130   5.717 -0.4538  0.4574 -0.0051
  278MOL    H6339397   3.849   3.956   5.715 -0.3494  0.0617 -0.5208
  278MOL    H6439398   3.849   3.938   5.480 -0.0759 -1.3601  2.0434
  278MOL    C6539399   4.043   3.998   5.564 -0.7597  0.4117 -0.0982
  278MOL    C6639400   4.140   3.950   5.457  0.4496 -0.5861  0.2406
  278MOL    C6739401   4.154   3.805   5.447 -0.0203  0.1264 -1.0073
  278MOL    N6839402   4.159   3.685   5.434 -0.0159 -0.3770 -0.4018
  278MOL    H6939403   4.088   4.093   5.592 -1.0075  0.5908 -0.3022
  278MOL    H7039404   4.045   3.928   5.647 -0.1997  1.4622  0.7939
  278MOL    H7139405   4.242   3.983   5.480  0.4893 -1.2201  0.9696
  278MOL    C7239406   4.118   4.014   5.314 -0.0024 -0.1583 -0.0178
  278MOL    C7339407   4.217   3.985   5.203  0.1245 -0.5137  0.1441
  278MOL    C7439408   4.198   4.068   5.082  0.2812 -0.8384 -0.2311
  278MOL    N7539409   4.189   4.134   4.982 -0.5121  0.8005  0.6961
  278MOL    H7639410   4.019   3.980   5.283 -0.5203  1.2406  0.0845
  278MOL    H7739411   4.104   4.121   5.327  0.0967  0.0402 -1.3974
  278MOL    H7839412   4.184   3.892   5.156 -0.5352  0.2824 -0.9874
  278MOL    C7939413   4.355   3.955   5.238  0.1725  0.1462  0.1422
  278MOL    C8039414   4.431   4.080   5.279 -0.3996 -0.6635  0.0479
  278MOL    C8139415   4.355   4.193   5.336 -0.4072  0.7962 -0.2861
  278MOL    N8239416   4.292   4.284   5.369  0.2033 -0.1209  0.3136
  278MOL    H8339417   4.349   3.879   5.315 -0.7285  0.8361  0.7612
  278MOL    H8439418   4.408   3.920   5.149 -1.8792 -0.2780 -0.9493
  278MOL    H8539419   4.483   4.110   5.188  0.2278 -0.3808  0.4963
  278MOL    C8639420   4.535   4.032   5.389 -0.2085 -0.8269 -0.1501
  278MOL    C8739421   4.648   4.137   5.418  0.1607  0.0766  0.3711
  278MOL    C8839422   4.719   4.103   5.548 -0.8346 -0.0836  0.0465
  278MOL    N8939423   4.771   4.077   5.651  0.3825 -0.3204  0.6577
  278MOL    H9039424   4.480   4.028   5.482 -2.6716 -1.2528 -1.5808
  278MOL    H9139425   4.582   3.935   5.372 -1.9211 -1.5088 -1.0854
  278MOL    H9239426   4.611   4.239   5.418  0.5220  0.2141  1.9681
  278MOL    C9339427   4.755   4.118   5.303  0.5465 -0.7732 -0.2091
  278MOL    C9439428   4.846   4.240   5.284 -0.7821 -0.2836  0.2283
  278MOL    C9539429   4.845   4.341   5.395 -0.0840 -0.4384 -0.0591
  278MOL    N9639430   4.848   4.413   5.482  0.3845  1.1177 -0.0489
  278MOL    H9739431   4.812   4.029   5.328 -0.3447 -1.1203  0.6020
  278MOL    H9839432   4.699   4.099   5.211  0.7119 -0.2496 -0.4176
  278MOL    H9939433   4.804   4.294   5.199 -0.2836 -0.9301 -0.4341
  278MOL   C10039434   4.993   4.226   5.235 -0.1385 -0.2655 -0.6604
  278MOL   C10139435   5.105   4.196   5.347 -0.5975  0.3573  0.4965
  278MOL   C10239436   5.073   4.068   5.416 -0.4637  0.1862  1.0351
  278MOL   N10339437   5.048   3.974   5.474 -0.0173  0.5081 -0.3189
  278MOL   H10439438   4.994   4.142   5.166  0.9354  0.0467 -1.0523
  278MOL   H10539439   5.021   4.315   5.178  2.7367 -0.3104  0.5815
  278MOL   H10639440   5.086   4.280   5.414  1.3355  2.0267 -0.9536
  278MOL   C10739441   5.246   4.190   5.287  0.1148 -0.5522 -0.5237
  278MOL   C10839442   5.312   4.328   5.310  0.3069  0.2062  0.5840
  278MOL   C10939443   5.309   4.370   5.452 -0.4597  0.2674  0.0547
  278MOL   N11039444   5.307   4.407   5.562 -0.0116  0.0133  0.2463
  278MOL   H11139445   5.295   4.107   5.339 -0.3143 -1.6789 -1.8604
  278MOL   H11239446   5.242   4.170   5.180 -0.1379 -0.3020 -0.5631
  278MOL   H11339447   5.247   4.409   5.276 -2.3229 -2.4849 -1.0880
  278MOL   C11439448   5.453   4.335   5.246  0.0998  0.4926 -0.2192
  278MOL   C11539449   5.522   4.473   5.248 -0.7680 -0.2133  0.4191
  278MOL   C11639450   5.626   4.495   5.349  0.4345 -0.2671 -0.1535
  278MOL   N11739451   5.712   4.508   5.424  0.0983 -0.0636 -0.1606
  278MOL   H11839452   5.520   4.264   5.294 -1.2322 -0.5530  0.1206
  278MOL   H11939453   5.454   4.284   5.149 -1.3764  1.0877 -0.5504
  278MOL   H12039454   5.456   4.555   5.276 -0.7048 -0.1664  0.4274
  278MOL   C12139455   5.588   4.493   5.114  0.4749  0.3889  0.2131
  278MOL   C12239456   5.502   4.537   4.998  0.7976  0.4698 -0.3427
  278MOL   C12339457   5.451   4.673   5.008  0.2142 -0.4488  0.4067
  278MOL   N12439458   5.416   4.783   5.012  0.1174  0.0028 -0.0963
  278MOL   H12539459   5.666   4.569   5.124  0.8775  0.4998 -3.1631
  278MOL   H12639460   5.655   4.414   5.081  0.2704 -0.1352  1.0675
  278MOL   H12739461   5.414   4.472   4.993  0.4021  1.0211 -0.5447
  278MOL   C12839462   5.581   4.518   4.866 -0.1335 -0.2483 -0.1563
  278MOL   C12939463   5.517   4.581   4.742  0.3671  0.1524 -0.1151
  278MOL   C13039464   5.566   4.721   4.731 -0.3158 -0.5034 -0.3860
  278MOL   N13139465   5.607   4.825   4.723  0.1483  0.1951 -0.6779
  278MOL   H13239466   5.686   4.546   4.871 -0.1054  0.2439 -2.7950
  278MOL   H13339467   5.582   4.409   4.859 -0.1005 -0.2201 -0.6214
  278MOL   H13439468   5.408   4.582   4.738  0.2748  0.6557  2.0098
  278MOL   C13539469   5.562   4.507   4.616 -0.0939 -0.2832 -0.6886
  278MOL   C13639470   5.537   4.585   4.484  0.4638  0.5365  0.3227
  278MOL   C13739471   5.617   4.524   4.374 -0.6450 -0.2273 -0.0071
  278MOL   N13839472   5.680   4.482   4.284 -0.4836 -0.7208 -0.5007
  278MOL   H13939473   5.670   4.493   4.617  0.0130  0.3790 -1.9628
  278MOL   H14039474   5.521   4.407   4.609 -1.1343 -0.1734  2.6973
  278MOL   H14139475   5.578   4.686   4.485  0.8101  0.3975  0.5089
  278MOL   H14239476   5.430   4.589   4.466  0.0572 -1.0934  2.1943
  279MOL     C139477   3.664   1.949   4.332  0.0642 -0.4352 -0.5957
  279MOL     C239478   3.556   1.851   4.276 -0.5835  0.0897 -0.3610
  279MOL     C339479   3.425   1.920   4.234  0.2233  0.6294  0.6837
  279MOL     N439480   3.335   1.975   4.191 -0.1127 -0.4708 -0.4275
  279MOL     H539481   3.750   1.891   4.366 -1.4350 -1.8608  0.8725
  279MOL     H639482   3.623   2.003   4.417  3.2390 -0.2299  0.8748
  279MOL     H739483   3.514   1.786   4.352 -1.7518 -0.1774 -1.2205
  279MOL     H839484   3.699   2.015   4.252 -0.1927 -1.4640 -1.5734
  279MOL     C939485   3.607   1.780   4.142 -0.3656  0.6254  0.1977
  279MOL    C1039486   3.670   1.639   4.145  0.2211  0.1746 -0.2979
  279MOL    C1139487   3.773   1.634   4.247 -0.9468 -0.3721  0.0184
  279MOL    N1239488   3.854   1.625   4.331  0.1195  0.8756  0.0626
  279MOL    H1339489   3.523   1.781   4.073  0.2977  1.9069 -0.6134
  279MOL    H1439490   3.678   1.834   4.079 -0.3330  0.5441  0.1648
  279MOL    H1539491   3.726   1.607   4.057 -0.6671  0.3092 -0.9102
  279MOL    C1639492   3.559   1.537   4.174  0.9517  0.1554  0.9606
  279MOL    C1739493   3.600   1.392   4.208 -0.0666 -0.2286 -0.3904
  279MOL    C1839494   3.486   1.301   4.210 -0.2709 -0.2789  0.6471
  279MOL    N1939495   3.390   1.232   4.210 -0.5908 -0.1233  0.5227
  279MOL    H2039496   3.496   1.562   4.260 -1.4912 -0.2100 -0.6518
  279MOL    H2139497   3.493   1.543   4.087  1.0388 -0.6458  0.8383
  279MOL    H2239498   3.637   1.382   4.309  3.1257 -0.5908 -1.5372
  279MOL    C2339499   3.708   1.333   4.110 -0.7927 -0.2533  0.0413
  279MOL    C2439500   3.748   1.190   4.144  1.0570 -0.4821  0.0270
  279MOL    C2539501   3.670   1.121   4.039 -0.1034 -0.3368  0.3092
  279MOL    N2639502   3.618   1.059   3.958  0.3705 -0.1302 -0.3881
  279MOL    H2739503   3.675   1.348   4.007 -0.5619  2.0113  0.2696
  279MOL    H2839504   3.793   1.399   4.126 -0.9966  0.1937 -0.6770
  279MOL    H2939505   3.706   1.166   4.242 -0.2316 -1.2128 -0.6990
  279MOL    C3039506   3.899   1.155   4.158  0.6363 -0.3152  0.4541
  279MOL    C3139507   3.933   1.032   4.250 -0.0542 -0.6597  0.2431
  279MOL    C3239508   3.876   0.916   4.187 -0.6286  0.2433 -0.0461
  279MOL    N3339509   3.833   0.816   4.145 -0.2817 -0.2294 -0.0054
  279MOL    H3439510   3.939   1.136   4.058 -2.2574  0.4598 -0.9149
  279MOL    H3539511   3.950   1.241   4.200 -0.5177  0.0016  1.2402
  279MOL    H3639512   3.880   1.043   4.344  0.5522  0.5071  0.4582
  279MOL    C3739513   4.079   1.017   4.267 -0.1179  0.4392  0.0440
  279MOL    C3839514   4.142   1.113   4.374  0.4689 -0.1854  0.0696
  279MOL    C3939515   4.101   1.078   4.517  0.2281 -0.1214  0.3701
  279MOL    N4039516   4.071   1.055   4.627  0.0537 -0.2289 -0.2726
  279MOL    H4139517   4.099   0.916   4.303 -0.8980  0.7594  1.4398
  279MOL    H4239518   4.127   1.032   4.170  0.4609  2.7522  0.6591
  279MOL    H4339519   4.109   1.214   4.350  2.5364  0.2111 -1.2686
  279MOL    C4439520   4.300   1.118   4.374 -0.2266 -0.0287  0.2436
  279MOL    C4539521   4.349   1.152   4.224 -0.3795 -0.1682 -1.0709
  279MOL    C4639522   4.270   1.269   4.174  0.1085  0.4241 -0.0836
  279MOL    N4739523   4.208   1.358   4.134 -0.3639 -0.1115 -0.2512
  279MOL    H4839524   4.337   1.193   4.444 -2.6298  0.5374  0.9513
  279MOL    H4939525   4.355   1.027   4.398  0.5766  0.6300  0.9122
  279MOL    H5039526   4.312   1.083   4.149 -2.7100 -1.2920  1.0300
  279MOL    C5139527   4.505   1.186   4.215 -0.4539 -0.2632 -0.3626
  279MOL    C5239528   4.603   1.066   4.234  0.1591 -0.3443  0.0391
  279MOL    C5339529   4.563   0.963   4.138 -0.0089  0.7311  0.3963
  279MOL    N5439530   4.531   0.882   4.058 -0.6397  0.4338  0.4557
  279MOL    H5539531   4.520   1.244   4.124  0.9766 -0.2565 -0.1350
  279MOL    H5639532   4.538   1.248   4.297  0.9716 -1.6928  0.1854
  279MOL    H5739533   4.588   1.029   4.336  0.9153 -0.3898  0.1364
  279MOL    C5839534   4.754   1.112   4.224 -0.5825  0.0121 -0.1260
  279MOL    C5939535   4.814   1.148   4.083  0.2225 -0.3109 -0.6672
  279MOL    C6039536   4.931   1.232   4.101 -0.4371  0.8941  0.6835
  279MOL    N6139537   5.024   1.299   4.114 -0.6456 -0.1386  0.3741
  279MOL    H6239538   4.773   1.199   4.286  1.9953  0.4698 -1.4852
  279MOL    H6339539   4.808   1.041   4.286 -0.1229  1.2907  0.9597
  279MOL    H6439540   4.741   1.215   4.039 -0.8870 -0.9763  0.1333
  279MOL    C6539541   4.832   1.045   3.968  0.2753 -0.3810 -0.0789
  279MOL    C6639542   4.934   0.936   3.980  0.6319  0.4987  0.3536
  279MOL    C6739543   4.882   0.842   4.081  0.6685  0.4718  0.0315
  279MOL    N6839544   4.838   0.768   4.162 -0.4564  0.3406 -0.0079
  279MOL    H6939545   4.740   0.994   3.937 -1.4599  1.6630  1.5381
  279MOL    H7039546   4.857   1.099   3.877 -2.5342  0.5581 -0.3563
  279MOL    H7139547   5.029   0.978   4.016  1.2754 -0.9991  0.4210
  279MOL    C7239548   4.974   0.873   3.851 -0.4590 -0.3785 -0.3679
  279MOL    C7339549   5.038   0.959   3.740  0.0921 -0.0053  0.3148
  279MOL    C7439550   5.147   1.045   3.781  0.4760  0.2405  0.0014
  279MOL    N7539551   5.239   1.111   3.811 -0.5308  0.0581 -0.2596
  279MOL    H7639552   5.041   0.792   3.877 -0.9928 -0.9355 -0.7105
  279MOL    H7739553   4.887   0.830   3.801 -1.2578  2.0560 -1.1379
  279MOL    H7839554   4.956   1.020   3.701  1.6028  0.3120 -2.4836
  279MOL    C7939555   5.099   0.877   3.626 -0.1333 -0.7103 -0.0778
  279MOL    C8039556   5.158   0.952   3.492 -0.4917  0.0721 -0.3259
  279MOL    C8139557   5.082   1.068   3.453 -0.2778  0.2645 -0.6455
  279MOL    N8239558   5.033   1.171   3.413  0.9787  0.1392 -0.4946
  279MOL    H8339559   5.179   0.817   3.668  0.1235 -0.2129  0.1504
  279MOL    H8439560   5.016   0.817   3.588 -1.2992  0.6754  0.2144
  279MOL    H8539561   5.134   0.883   3.411 -0.2681  0.2918 -0.5756
  279MOL    C8639562   5.315   0.962   3.504 -0.5125 -0.3110  0.9255
  279MOL    C8739563   5.385   1.030   3.376 -0.1465  0.7021  0.0474
  279MOL    C8839564   5.369   1.177   3.365  0.0321 -0.2105  0.0697
  279MOL    N8939565   5.354   1.290   3.360 -0.2615 -0.2140  0.0506
  279MOL    H9039566   5.344   1.026   3.587 -0.8905 -1.5937  2.0664
  279MOL    H9139567   5.358   0.864   3.522 -1.7385 -1.0380  0.0158
  279MOL    H9239568   5.345   0.991   3.283  0.3118 -3.1042  1.3418
  279MOL    C9339569   5.537   0.992   3.383 -0.2778 -0.1295 -0.2470
  279MOL    C9439570   5.631   1.080   3.470 -0.1178  0.5417 -0.0854
  279MOL    C9539571   5.595   1.082   3.610 -0.6513 -0.5046 -0.0179
  279MOL    N9639572   5.559   1.081   3.722 -0.4468 -0.2279  0.4956
  279MOL    H9739573   5.550   0.889   3.415 -0.2590 -0.4580 -1.2944
  279MOL    H9839574   5.578   0.979   3.284  0.1806 -1.4921  0.1116
  279MOL    H9939575   5.623   1.183   3.433  1.0114  1.1627  1.3274
  279MOL   C10039576   5.772   1.038   3.435  0.3217  0.7797  0.6339
  279MOL   C10139577   5.872   1.115   3.520  0.1740  0.1642  0.5207
  279MOL   C10239578   5.982   1.031   3.548  0.0245 -0.1174  0.0586
  279MOL   N10339579   6.067   0.957   3.568  0.0559  0.0550  0.5253
  279MOL   H10439580   5.777   0.930   3.449  1.2518  0.8305  0.7289
  279MOL   H10539581   5.779   1.059   3.328 -1.2394 -0.7220  0.2038
  279MOL   H10639582   5.828   1.132   3.618  2.4193 -1.4870  1.8923
  279MOL   C10739583   5.922   1.252   3.458 -0.1929  0.3876 -0.5665
  279MOL   C10839584   5.988   1.347   3.565  0.3674 -0.4677 -0.0020
  279MOL   C10939585   6.053   1.282   3.683 -0.2986 -0.0643 -0.2325
  279MOL   N11039586   6.103   1.235   3.775 -0.4613  0.2433 -0.4621
  279MOL   H11139587   6.006   1.224   3.394 -1.7242 -0.5192 -2.2078
  279MOL   H11239588   5.838   1.293   3.402 -1.7881 -2.9173 -0.6812
  279MOL   H11339589   5.909   1.382   3.632  0.1006  1.0127 -1.0777
  279MOL   C11439590   6.063   1.467   3.504 -0.2970 -0.3199 -0.1978
  279MOL   C11539591   6.076   1.593   3.600  0.2658 -0.1587  0.1725
  279MOL   C11639592   6.175   1.570   3.702 -0.0181  0.7345  0.1321
  279MOL   N11739593   6.255   1.550   3.782  0.3692 -0.0301  0.1419
  279MOL   H11839594   6.162   1.433   3.474 -0.5231 -0.9704 -0.2241
  279MOL   H11939595   5.998   1.494   3.421 -0.7819 -0.9326 -0.0222
  279MOL   H12039596   5.979   1.596   3.650  0.5855 -1.1665  0.8896
  279MOL   C12139597   6.099   1.724   3.523 -0.8681 -0.0811 -0.0848
  279MOL   C12239598   6.063   1.858   3.595 -0.2394 -0.2662 -0.1141
  279MOL   C12339599   6.072   1.860   3.743  0.2405 -0.1809 -1.0216
  279MOL   N12439600   6.082   1.860   3.857  0.1975 -0.5058  0.3960
  279MOL   H12539601   6.200   1.729   3.482  0.8007  1.2591  3.8703
  279MOL   H12639602   6.033   1.712   3.438  1.1205  1.2477 -1.8575
  279MOL   H12739603   5.954   1.864   3.584 -0.2931 -0.8616  0.0376
  279MOL   C12839604   6.142   1.970   3.530  0.0952  0.2024  0.6746
  279MOL   C12939605   6.126   1.982   3.379  0.6765 -0.3424  0.4336
  279MOL   C13039606   5.990   1.960   3.331 -0.6761 -0.8895  0.1925
  279MOL   N13139607   5.878   1.945   3.296 -0.4788 -0.3669  0.2907
  279MOL   H13239608   6.105   2.065   3.568  1.0562  0.7343  0.3125
  279MOL   H13339609   6.248   1.971   3.559  0.4629  1.0270 -0.6851
  279MOL   H13439610   6.185   1.905   3.330 -1.3875 -0.4265 -2.0479
  279MOL   C13539611   6.177   2.108   3.312  0.4255  0.0297 -0.1066
  279MOL   C13639612   6.189   2.097   3.153 -0.3423  0.2449 -0.1725
  279MOL   C13739613   6.190   2.227   3.079  0.1981 -0.0327 -0.0606
  279MOL   N13839614   6.191   2.319   3.010  0.9307 -0.4514  0.1410
  279MOL   H13939615   6.104   2.186   3.331  1.7685  0.8591  1.7287
  279MOL   H14039616   6.267   2.146   3.360 -0.3753  1.3792  0.3626
  279MOL   H14139617   6.105   2.043   3.109 -1.2209  0.0841  1.6784
  279MOL   H14239618   6.283   2.043   3.142 -0.3786 -0.2056  1.7120
  280MOL     C139619   1.728   2.614   2.718  0.3101 -0.5094 -0.0629
  280MOL     C239620   1.616   2.714   2.710 -0.3407  1.0575 -0.2380
  280MOL     C339621   1.488   2.646   2.725 -0.0141 -0.2265 -0.0951
  280MOL     N439622   1.384   2.597   2.735  0.6960  0.0885  0.0883
  280MOL     H539623   1.819   2.671   2.700 -0.3343  0.4803 -0.2180
  280MOL     H639624   1.718   2.542   2.636 -0.2101  1.6188 -1.9190
  280MOL     H739625   1.614   2.751   2.607 -0.3836  1.5513 -0.0621
  280MOL     H839626   1.735   2.559   2.812 -0.7531 -0.0260  0.2991
  280MOL     C939627   1.618   2.840   2.801  0.1411 -0.0799 -0.2117
  280MOL    C1039628   1.743   2.931   2.800  0.9701  0.9892 -0.0275
  280MOL    C1139629   1.782   2.985   2.673  0.3890 -0.1574 -0.0749
  280MOL    N1239630   1.813   3.035   2.573 -0.4537 -0.0791 -0.0296
  280MOL    H1339631   1.529   2.897   2.771  0.2484  0.0866 -0.2159
  280MOL    H1439632   1.606   2.804   2.903 -0.0514 -0.4430 -0.3616
  280MOL    H1539633   1.811   2.848   2.818 -0.8548 -0.2496  1.2839
  280MOL    C1639634   1.733   3.043   2.905  0.2067 -0.2027  0.1935
  280MOL    C1739635   1.716   3.007   3.046  0.1789 -0.7299 -0.2626
  280MOL    C1839636   1.814   2.906   3.094 -0.0258 -0.5949 -1.0017
  280MOL    N1939637   1.890   2.822   3.132  0.2514 -0.6550 -0.3189
  280MOL    H2039638   1.810   3.120   2.891  0.5177 -0.6197 -0.4149
  280MOL    H2139639   1.643   3.096   2.874  1.4221  0.6675 -1.9641
  280MOL    H2239640   1.619   2.957   3.044 -0.7365  1.0074  0.0290
  280MOL    C2339641   1.732   3.126   3.146  0.5564  0.5070 -0.0985
  280MOL    C2439642   1.711   3.101   3.297  0.3724  0.3890 -0.4404
  280MOL    C2539643   1.599   3.016   3.320  0.4559  0.1887  0.2371
  280MOL    N2639644   1.506   2.948   3.326 -0.6450  0.0787  0.1062
  280MOL    H2739645   1.834   3.159   3.127  1.3435 -2.4818 -1.3355
  280MOL    H2839646   1.669   3.211   3.118  1.0880  0.5547 -1.1608
  280MOL    H2939647   1.688   3.199   3.340  0.5689  0.6956 -1.0310
  280MOL    C3039648   1.840   3.062   3.370 -0.2140 -0.3052  0.0884
  280MOL    C3139649   1.824   2.996   3.508  0.2895  0.3621 -1.5628
  280MOL    C3239650   1.802   2.850   3.502  0.4690  0.4002 -0.4301
  280MOL    N3339651   1.782   2.741   3.488 -0.2088  0.7671  0.0749
  280MOL    H3439652   1.914   3.014   3.306  1.2912  1.3107  0.5835
  280MOL    H3539653   1.895   3.153   3.393 -0.2271 -0.7314  1.9729
  280MOL    H3639654   1.742   3.041   3.565 -1.2959 -0.4113 -3.1614
  280MOL    C3739655   1.950   3.020   3.602  0.0995 -0.2234 -0.4128
  280MOL    C3839656   2.070   2.929   3.563 -0.0735 -0.2515 -0.3639
  280MOL    C3939657   2.129   2.973   3.434 -0.4155  0.5836 -0.2584
  280MOL    N4039658   2.179   3.005   3.336  0.2833 -0.3050  0.0290
  280MOL    H4139659   1.978   3.125   3.609  0.9359 -0.4965  0.4346
  280MOL    H4239660   1.904   2.999   3.698 -1.6594  3.6779 -0.3219
  280MOL    H4339661   2.044   2.824   3.555 -1.7155  0.1291 -0.1443
  280MOL    C4439662   2.178   2.952   3.670 -0.0934  0.3788  0.3127
  280MOL    C4539663   2.158   2.891   3.810  0.1504 -0.0989 -0.3427
  280MOL    C4639664   2.114   2.751   3.797 -0.5569  1.0649 -0.3643
  280MOL    N4739665   2.075   2.642   3.782 -0.2166 -0.1242  0.3561
  280MOL    H4839666   2.271   2.909   3.632 -0.3672 -1.0355  1.2118
  280MOL    H4939667   2.194   3.060   3.673  0.1929  0.3010  2.1415
  280MOL    H5039668   2.071   2.938   3.856  0.2583 -4.1220  4.3058
  280MOL    C5139669   2.278   2.908   3.904  0.1191  0.1876  0.2573
  280MOL    C5239670   2.259   2.846   4.040 -0.7502 -0.2822 -0.3718
  280MOL    C5339671   2.257   2.697   4.054 -0.0322  0.6983 -0.7039
  280MOL    N5439672   2.260   2.580   4.066 -0.4700  0.0273 -0.0240
  280MOL    H5539673   2.369   2.871   3.856 -0.2656 -0.4168 -0.0068
  280MOL    H5639674   2.291   3.016   3.912 -0.5866  0.2874  0.0451
  280MOL    H5739675   2.166   2.886   4.079 -0.4129  0.5984 -0.4448
  280MOL    C5839676   2.376   2.901   4.136  0.4248 -0.2582 -0.2762
  280MOL    C5939677   2.383   2.842   4.285  0.6016 -0.5268 -0.6288
  280MOL    C6039678   2.511   2.874   4.353 -0.7910  0.1861  0.6059
  280MOL    N6139679   2.611   2.907   4.407  0.4221 -0.3457  0.3694
  280MOL    H6239680   2.467   2.864   4.088  0.5179  0.0831 -0.3675
  280MOL    H6339681   2.390   3.009   4.133  1.6178 -0.3771  0.3557
  280MOL    H6439682   2.395   2.734   4.288 -1.7542 -0.7935 -0.0724
  280MOL    C6539683   2.259   2.873   4.371 -0.2759  0.3424  0.2817
  280MOL    C6639684   2.220   2.788   4.498 -0.8648 -0.0495 -0.0587
  280MOL    C6739685   2.239   2.647   4.487 -0.1220 -0.2952 -0.0683
  280MOL    N6839686   2.253   2.532   4.474  1.5595 -0.4652  0.3740
  280MOL    H6939687   2.250   2.980   4.388 -3.1602  0.7252 -2.8627
  280MOL    H7039688   2.180   2.853   4.298 -0.2363  1.4996 -0.0916
  280MOL    H7139689   2.114   2.795   4.522 -1.0263 -2.6793  0.1801
  280MOL    C7239690   2.293   2.830   4.624  0.4445  0.4074  0.2478
  280MOL    C7339691   2.239   2.964   4.682  0.6603 -0.1398  0.2405
  280MOL    C7439692   2.104   2.975   4.752  0.3810 -0.5662 -0.2604
  280MOL    N7539693   2.004   2.985   4.804 -0.1814 -0.0109  0.6162
  280MOL    H7639694   2.289   2.749   4.696 -2.0146 -0.8721 -1.2681
  280MOL    H7739695   2.400   2.831   4.601  0.0489 -0.7889 -1.8247
  280MOL    H7839696   2.230   3.036   4.601  3.9130  0.4699  0.3285
  280MOL    C7939697   2.347   3.054   4.760 -0.1161  0.3638  0.3205
  280MOL    C8039698   2.478   3.093   4.682 -0.8799  0.2555 -0.1568
  280MOL    C8139699   2.441   3.185   4.574  0.2308  0.2177 -0.0399
  280MOL    N8239700   2.416   3.258   4.487  0.3845  0.4171 -0.7751
  280MOL    H8339701   2.297   3.146   4.790 -0.5143 -0.3049  1.7378
  280MOL    H8439702   2.361   2.996   4.852  0.1262 -0.3379 -0.1569
  280MOL    H8539703   2.515   2.998   4.642 -2.6946 -0.0996 -1.0633
  280MOL    C8639704   2.582   3.160   4.775  0.4814 -0.4943  0.4443
  280MOL    C8739705   2.636   3.064   4.879 -0.2690 -0.1557 -0.0869
  280MOL    C8839706   2.694   2.944   4.829 -0.1489 -0.0809 -1.1841
  280MOL    N8939707   2.739   2.844   4.787  0.0784 -0.4354  0.1926
  280MOL    H9039708   2.664   3.198   4.714 -0.3052  1.6974  0.7042
  280MOL    H9139709   2.536   3.250   4.816 -0.1083 -0.3435 -0.5413
  280MOL    H9239710   2.555   3.036   4.946 -1.1580 -0.1105 -1.1174
  280MOL    C9339711   2.750   3.124   4.964  0.9669  0.2915 -0.2384
  280MOL    C9439712   2.818   3.033   5.071 -0.2684  0.1730 -0.5000
  280MOL    C9539713   2.917   3.111   5.148  0.2820 -0.4515  0.6575
  280MOL    N9639714   2.999   3.177   5.204  0.7669  0.0220 -0.0676
  280MOL    H9739715   2.823   3.156   4.890  2.3461  2.3506  1.9604
  280MOL    H9839716   2.717   3.216   5.012 -0.3175  0.7886 -1.9986
  280MOL    H9939717   2.871   2.950   5.023 -1.9959 -0.3185 -1.6372
  280MOL   C10039718   2.717   2.958   5.172  0.8166  0.1560 -0.4538
  280MOL   C10139719   2.750   2.804   5.193 -0.9648 -0.4487 -0.4147
  280MOL   C10239720   2.759   2.785   5.334  0.1416  0.2383 -0.3751
  280MOL   N10339721   2.763   2.775   5.453 -0.6559 -0.0108  0.3853
  280MOL   H10439722   2.721   3.006   5.269  0.0435 -0.5289 -0.0762
  280MOL   H10539723   2.612   2.980   5.153  0.8661 -0.0602 -0.9822
  280MOL   H10639724   2.847   2.763   5.163 -0.0393  1.1829  0.2699
  280MOL   C10739725   2.643   2.724   5.128  0.4776 -0.7281  0.2782
  280MOL   C10839726   2.669   2.573   5.120  0.3793  0.5165 -0.3306
  280MOL   C10939727   2.678   2.505   5.254  0.1073 -0.5209 -0.9069
  280MOL   N11039728   2.686   2.459   5.359  0.2492  0.1994 -0.7311
  280MOL   H11139729   2.543   2.746   5.168 -0.2583 -2.6597 -0.4421
  280MOL   H11239730   2.641   2.764   5.027  0.6492  1.5110  1.1243
  280MOL   H11339731   2.765   2.561   5.071  0.3137  2.7243 -1.0514
  280MOL   C11439732   2.562   2.497   5.034  0.2830  0.3649 -0.0052
  280MOL   C11539733   2.404   2.526   5.044  0.4977  0.0565 -0.2795
  280MOL   C11639734   2.371   2.666   5.010  0.2714 -0.4001  0.4845
  280MOL   N11739735   2.340   2.774   4.987 -0.5920  0.5990 -0.2743
  280MOL   H11839736   2.594   2.499   4.930 -1.6808 -0.1348 -0.6481
  280MOL   H11939737   2.575   2.391   5.059 -0.6080 -0.0832 -1.4018
  280MOL   H12039738   2.377   2.506   5.148 -0.9022  1.6221 -0.3297
  280MOL   C12139739   2.333   2.427   4.949  0.1909  0.2277  0.5101
  280MOL   C12239740   2.179   2.444   4.944 -0.3699 -0.2610  0.8789
  280MOL   C12339741   2.130   2.557   4.864 -0.4147 -0.1639 -0.1260
  280MOL   N12439742   2.093   2.640   4.797 -0.0275  0.2010  0.5654
  280MOL   H12539743   2.373   2.436   4.848 -0.1482 -2.8274  0.0557
  280MOL   H12639744   2.353   2.324   4.978  1.2519  0.6539  1.2966
  280MOL   H12739745   2.142   2.450   5.046  0.6660 -3.2639  1.4833
  280MOL   C12839746   2.112   2.325   4.866 -0.3075 -0.3627 -0.1300
  280MOL   C12939747   2.127   2.183   4.926 -0.8504 -0.6512 -0.0317
  280MOL   C13039748   2.147   2.192   5.070  0.4104  0.2867 -0.0015
  280MOL   N13139749   2.157   2.198   5.186  0.2931  0.2879  0.3098
  280MOL   H13239750   2.004   2.343   4.862 -0.4052 -0.9701 -0.3221
  280MOL   H13339751   2.142   2.322   4.762  1.1300 -1.1253  0.2955
  280MOL   H13439752   2.226   2.150   4.893  0.1019  2.8899 -1.0001
  280MOL   C13539753   2.015   2.089   4.876  1.5254  0.7506 -0.0759
  280MOL   C13639754   2.057   1.938   4.900 -0.5305 -0.1699 -0.0666
  280MOL   C13739755   2.037   1.880   5.033 -0.3815  0.0202  0.2432
  280MOL   N13839756   2.024   1.833   5.140  0.3660  0.3991 -0.1356
  280MOL   H13939757   1.919   2.119   4.916  0.3793 -1.1438 -1.3303
  280MOL   H14039758   2.002   2.101   4.768  0.0910  0.9632  0.1124
  280MOL   H14139759   2.161   1.911   4.882  0.1381  1.5239  1.2148
  280MOL   H14239760   2.008   1.873   4.827  1.0543 -0.1678 -1.1446
  281MOL     C139761   5.435   3.486   6.484 -0.1382 -0.5069 -0.2879
  281MOL     C239762   5.572   3.494   6.409  0.5605  0.3357  0.2181
  281MOL     C339763   5.629   3.360   6.396  0.5938 -0.1571  0.5662
  281MOL     N439764   5.667   3.252   6.389 -0.4307 -0.1928 -0.5320
  281MOL     H539765   5.447   3.431   6.577 -0.2474  2.0282  1.2799
  281MOL     H639766   5.358   3.428   6.434  0.1838 -0.1252 -1.2309
  281MOL     H739767   5.640   3.551   6.473 -0.0083  0.9480  0.2889
  281MOL     H839768   5.393   3.583   6.511 -0.0115 -0.8647  1.2662
  281MOL     C939769   5.557   3.577   6.276  0.6414 -0.6406 -0.5469
  281MOL    C1039770   5.676   3.572   6.180  0.0955 -0.6623  0.0235
  281MOL    C1139771   5.676   3.459   6.092 -0.9222  0.5106  0.1503
  281MOL    N1239772   5.669   3.371   6.015 -0.2893  0.0065  0.6951
  281MOL    H1339773   5.474   3.536   6.217 -0.7080 -0.7344  1.3464
  281MOL    H1439774   5.525   3.679   6.293  1.3770 -0.4672 -0.2005
  281MOL    H1539775   5.762   3.561   6.246  1.4527  1.1373 -1.4163
  281MOL    C1639776   5.685   3.690   6.090  0.2089 -1.2477 -0.2850
  281MOL    C1739777   5.805   3.700   5.994 -0.7190 -0.2609  0.2421
  281MOL    C1839778   5.785   3.810   5.896 -0.1093 -0.3522 -0.2656
  281MOL    N1939779   5.774   3.898   5.818 -0.0024 -0.4025  0.2845
  281MOL    H2039780   5.588   3.699   6.042  0.4514 -0.6488 -0.6737
  281MOL    H2139781   5.690   3.785   6.142  1.9149 -2.5843  2.0825
  281MOL    H2239782   5.814   3.610   5.933  1.1211 -1.2461  1.9171
  281MOL    C2339783   5.936   3.722   6.069  0.0536 -0.3141 -0.1391
  281MOL    C2439784   6.066   3.712   5.984 -0.7798  0.1599  0.5958
  281MOL    C2539785   6.090   3.586   5.915  0.4727 -0.4311  0.9523
  281MOL    N2639786   6.107   3.485   5.860  0.1922 -0.3965 -0.3220
  281MOL    H2739787   5.938   3.818   6.120  0.4822  0.0732 -0.8672
  281MOL    H2839788   5.956   3.651   6.148  0.2841 -1.3015 -1.0708
  281MOL    H2939789   6.143   3.705   6.061 -0.9129 -1.2640  0.6097
  281MOL    C3039790   6.091   3.831   5.886  0.3417 -0.7455 -0.0321
  281MOL    C3139791   6.072   3.973   5.943 -0.2896 -0.3212  0.4521
  281MOL    C3239792   6.143   3.990   6.075  0.1332 -0.7272  1.3395
  281MOL    N3339793   6.197   4.010   6.173  0.2027 -0.0730  0.0543
  281MOL    H3439794   6.195   3.812   5.859  1.0206  1.4969  0.8763
  281MOL    H3539795   6.035   3.822   5.792  2.5812 -0.5291 -1.4218
  281MOL    H3639796   5.964   3.985   5.947 -0.1144  1.3077  0.3482
  281MOL    C3739797   6.118   4.082   5.842  0.5030 -0.0965  0.3777
  281MOL    C3839798   6.081   4.224   5.891 -0.2963 -0.4463 -0.4361
  281MOL    C3939799   6.186   4.314   5.832  0.5648 -0.6427 -0.9849
  281MOL    N4039800   6.269   4.373   5.786 -0.4392  0.0453  0.5999
  281MOL    H4139801   6.225   4.065   5.825  0.7873  0.8951  1.1206
  281MOL    H4239802   6.069   4.077   5.745  2.0279 -1.8155 -0.3353
  281MOL    H4339803   6.097   4.223   5.999  0.0138 -1.2138 -0.4882
  281MOL    C4439804   5.939   4.263   5.854 -0.1279  0.4292  0.7393
  281MOL    C4539805   5.889   4.398   5.913  1.0694 -0.3174  0.1622
  281MOL    C4639806   5.921   4.515   5.829 -0.5844 -0.3824  0.0703
  281MOL    N4739807   5.950   4.611   5.771  0.2371 -0.4028  0.0983
  281MOL    H4839808   5.934   4.269   5.746 -0.2485  0.8103  0.7657
  281MOL    H4939809   5.870   4.181   5.874 -2.3443  2.0372 -0.1567
  281MOL    H5039810   5.934   4.420   6.010  1.5780  0.5184 -0.2622
  281MOL    C5139811   5.734   4.408   5.934  0.3645  0.5369  0.3274
  281MOL    C5239812   5.688   4.402   6.085  0.3939 -0.0144 -0.0469
  281MOL    C5339813   5.769   4.464   6.190  0.3188  0.1468  0.1469
  281MOL    N5439814   5.831   4.507   6.280 -0.1295 -0.3060  0.0258
  281MOL    H5539815   5.704   4.506   5.895  0.6653  0.0239 -1.2198
  281MOL    H5639816   5.688   4.329   5.875 -1.1821  1.8602 -0.3050
  281MOL    H5739817   5.689   4.294   6.105 -0.9385  0.1319  0.8802
  281MOL    C5839818   5.541   4.442   6.098 -0.0695  0.6172 -0.2199
  281MOL    C5939819   5.483   4.442   6.238 -0.8502  0.1929 -0.0936
  281MOL    C6039820   5.511   4.316   6.316 -0.1423 -0.3079  0.2032
  281MOL    N6139821   5.532   4.220   6.376  0.0377  0.2138 -0.1158
  281MOL    H6239822   5.515   4.540   6.060  1.0488  1.3589  0.8807
  281MOL    H6339823   5.489   4.376   6.028  0.1537  1.4077 -1.1296
  281MOL    H6439824   5.374   4.439   6.234 -0.9335  0.4371  1.7433
  281MOL    C6539825   5.500   4.575   6.321 -0.1433 -0.5553  0.7858
  281MOL    C6639826   5.369   4.644   6.379 -0.4255  0.2509 -0.0178
  281MOL    C6739827   5.292   4.549   6.456  0.0014 -0.0397  0.5856
  281MOL    N6839828   5.228   4.473   6.517 -0.1760  0.3758 -0.6596
  281MOL    H6939829   5.570   4.563   6.404  1.3004  0.2859 -0.2755
  281MOL    H7039830   5.549   4.646   6.254 -0.9215 -0.3234  0.4513
  281MOL    H7139831   5.306   4.669   6.293  0.3994 -3.0452 -1.6779
  281MOL    C7239832   5.395   4.771   6.460 -0.2112  0.2844  0.3590
  281MOL    C7339833   5.262   4.846   6.497  0.3988  0.8705  0.2242
  281MOL    C7439834   5.150   4.832   6.402  0.1555 -0.0478  0.6298
  281MOL    N7539835   5.062   4.829   6.330  0.0463 -0.5653 -0.1237
  281MOL    H7639836   5.460   4.743   6.543 -0.9367 -0.6594  0.6161
  281MOL    H7739837   5.454   4.836   6.396 -0.6287  0.1383 -0.1727
  281MOL    H7839838   5.279   4.954   6.491 -1.4986  1.1296 -0.5686
  281MOL    C7939839   5.229   4.810   6.648  0.4158 -0.2124 -0.2358
  281MOL    C8039840   5.110   4.886   6.705 -0.5104  0.1086  0.8251
  281MOL    C8139841   4.980   4.836   6.658 -0.3770 -0.1972  0.6179
  281MOL    N8239842   4.877   4.790   6.629 -0.8542  0.5058 -0.0495
  281MOL    H8339843   5.218   4.702   6.653  1.2204 -0.2152  2.4281
  281MOL    H8439844   5.314   4.818   6.715  0.3952 -1.7450 -0.0170
  281MOL    H8539845   5.118   4.986   6.663 -0.0191 -0.9327 -1.6729
  281MOL    C8639846   5.135   4.904   6.855  0.2730  0.1382 -0.3447
  281MOL    C8739847   5.044   5.003   6.934 -0.0804 -0.3328  0.3931
  281MOL    C8839848   4.908   4.958   6.946 -0.1921  0.3970  0.0142
  281MOL    N8939849   4.801   4.913   6.958 -0.5210 -0.2908 -0.0402
  281MOL    H9039850   5.124   4.801   6.890 -0.5303  0.6059  0.7988
  281MOL    H9139851   5.236   4.942   6.869  0.1810  0.7834 -1.3928
  281MOL    H9239852   5.061   5.094   6.876  0.8868 -1.3434 -0.9237
  281MOL    C9339853   5.112   5.030   7.068  0.0354  0.3425 -0.7611
  281MOL    C9439854   5.239   5.120   7.064 -1.0384  0.1398  0.3023
  281MOL    C9539855   5.213   5.246   6.996 -0.2559  0.8173 -0.6645
  281MOL    N9639856   5.193   5.350   6.954  0.9102  0.4381  0.3396
  281MOL    H9739857   5.043   5.072   7.141  0.0389  0.0002 -0.5612
  281MOL    H9839858   5.133   4.935   7.116 -2.2140  1.3774  2.4941
  281MOL    H9939859   5.312   5.064   7.006  0.1908  1.0361  0.9691
  281MOL   C10039860   5.297   5.146   7.203  0.3643 -0.0960  0.5740
  281MOL   C10139861   5.452   5.180   7.213 -0.3318  0.7893 -0.1994
  281MOL   C10239862   5.492   5.309   7.155 -0.0738  0.7560  0.2331
  281MOL   N10339863   5.517   5.413   7.111 -0.2234 -0.1163  0.3089
  281MOL   H10439864   5.241   5.213   7.268 -1.4629  0.9406 -2.0190
  281MOL   H10539865   5.289   5.051   7.256 -1.4752 -1.5279 -2.1766
  281MOL   H10639866   5.504   5.101   7.159  0.1780  0.9531  0.0426
  281MOL   C10739867   5.490   5.163   7.366 -0.0992 -1.0164 -0.0530
  281MOL   C10839868   5.640   5.148   7.394 -0.8268  0.1939  0.3729
  281MOL   C10939869   5.699   5.293   7.415  0.8678  0.1566 -0.7305
  281MOL   N11039870   5.739   5.400   7.430 -0.0082  0.1739 -1.0782
  281MOL   H11139871   5.431   5.241   7.414 -0.3190 -0.1739 -1.6804
  281MOL   H11239872   5.443   5.071   7.401 -1.7688  0.2629  1.1285
  281MOL   H11339873   5.683   5.098   7.308 -0.3928  1.5513 -0.2174
  281MOL   C11439874   5.669   5.060   7.518  0.1267 -0.1525 -0.6263
  281MOL   C11539875   5.632   4.909   7.511 -0.3195 -0.3645  0.0516
  281MOL   C11639876   5.704   4.844   7.401 -0.2749  0.8586  0.0954
  281MOL   N11739877   5.766   4.792   7.317  0.2913  0.6423 -0.0153
  281MOL   H11839878   5.777   5.070   7.533  0.0419  0.9650 -0.6961
  281MOL   H11939879   5.635   5.112   7.608 -0.8807 -1.0764 -0.4734
  281MOL   H12039880   5.524   4.913   7.500 -0.1168  0.8061 -1.7801
  281MOL   C12139881   5.665   4.836   7.649  0.3574 -0.5530 -0.6557
  281MOL   C12239882   5.592   4.705   7.666  0.5536 -0.5346  1.0710
  281MOL   C12339883   5.661   4.595   7.602  0.0318  0.3911  0.4837
  281MOL   N12439884   5.710   4.505   7.543  0.1600  0.0221  0.1947
  281MOL   H12539885   5.774   4.832   7.651  0.3888 -0.3799 -1.9855
  281MOL   H12639886   5.629   4.892   7.736 -3.0642 -3.5435 -0.0314
  281MOL   H12739887   5.502   4.717   7.606 -0.5033 -0.5367  2.6309
  281MOL   C12839888   5.550   4.673   7.816  0.3425 -0.1247  0.3640
  281MOL   C12939889   5.662   4.615   7.906  0.0134  0.3197 -0.3243
  281MOL   C13039890   5.783   4.701   7.900 -0.3871  0.5161 -0.0499
  281MOL   N13139891   5.873   4.766   7.896  0.1739 -0.0977 -0.0353
  281MOL   H13239892   5.523   4.769   7.859 -0.7789 -0.1335 -0.3110
  281MOL   H13339893   5.469   4.600   7.814 -0.4588  0.7712 -1.0059
  281MOL   H13439894   5.699   4.519   7.871  0.1501 -1.4601  4.4162
  281MOL   C13539895   5.616   4.574   8.056  0.0693 -0.0675 -0.1197
  281MOL   C13639896   5.730   4.498   8.125 -0.2698  0.3336  0.1250
  281MOL   C13739897   5.692   4.469   8.262 -0.2330  0.4800  0.2130
  281MOL   N13839898   5.663   4.442   0.058  0.3810 -0.2702  0.0616
  281MOL   H13939899   5.600   4.668   8.108 -1.4219  0.8874 -2.2148
  281MOL   H14039900   5.527   4.510   8.062  1.2780 -1.6591  1.3563
  281MOL   H14139901   5.820   4.559   8.131 -0.0183 -0.2141  2.2821
  281MOL   H14239902   5.753   4.407   8.070 -0.1828  0.0489  0.6311
  282MOL     C139903   7.832   6.666   0.316 -0.8479 -0.0939  0.0983
  282MOL     C239904   7.807   6.805   0.265 -0.2431 -0.5558 -0.5942
  282MOL     C339905   7.768   6.901   0.373  0.8662  0.3322  0.0135
  282MOL     N439906   7.737   6.969   0.459 -0.1808 -0.1379 -0.2089
  282MOL     H539907   7.865   6.601   0.235  0.1109  0.7488 -0.1967
  282MOL     H639908   7.739   6.625   0.356  0.0598 -1.5289  0.7569
  282MOL     H739909   7.720   6.799   0.199 -0.5888  1.0426 -0.3051
  282MOL     H839910   7.901   6.653   0.399 -0.0005  1.9163 -0.2551
  282MOL     C939911   7.933   6.861   0.199  1.0666 -0.2480 -0.4006
  282MOL    C1039912   7.923   7.005   0.141  0.5056  0.6073 -0.7245
  282MOL    C1139913   7.787   7.015   0.079  0.6179 -0.0789 -0.4833
  282MOL    N1239914   7.686   7.033   0.030  0.5763  0.0920  0.7193
  282MOL    H1339915   8.014   6.859   0.272  1.6408  3.3053 -0.8405
  282MOL    H1439916   7.963   6.795   0.117  1.1399 -1.2911  0.4638
  282MOL    H1539917   7.993   7.008   0.058  1.4379 -0.0271  0.0200
  282MOL    C1639918   7.951   7.119   0.232  0.5909 -0.0610 -0.7372
  282MOL    C1739919   8.090   7.183   0.210  0.2927  0.9404  0.0595
  282MOL    C1839920   8.203   7.088   0.237  0.2695  0.0121  0.3342
  282MOL    N1939921   8.289   7.013   0.254  0.0087  0.6788  0.3133
  282MOL    H2039922   7.874   7.189   0.198  0.1150  0.1349  0.6979
  282MOL    H2139923   7.920   7.096   0.334 -0.4880  2.0513 -0.5755
  282MOL    H2239924   8.109   7.267   0.277 -0.7139 -0.1400  1.7198
  282MOL    C2339925   8.103   7.252   0.072  0.0779  0.1370 -0.2777
  282MOL    C2439926   8.215   7.359   0.046  0.7796  0.0684 -0.3096
  282MOL    C2539927   8.307   7.380   0.156 -0.1768 -0.1813 -0.0268
  282MOL    N2639928   0.067   7.394   0.246  0.1370 -0.4534  0.1831
  282MOL    H2739929   8.104   7.186   8.298  0.8239  0.4618 -0.5198
  282MOL    H2839930   8.009   7.307   0.063 -0.2988 -0.6551 -1.3429
  282MOL    H2939931   8.165   7.455   0.050  0.4639 -0.1841  2.2729
  282MOL    C3039932   8.291   7.353   8.229 -0.0581 -0.4310 -0.1027
  282MOL    C3139933   8.208   7.397   8.103 -0.8476  0.0512  0.3185
  282MOL    C3239934   8.153   7.536   8.111 -0.6112  0.9021  0.1814
  282MOL    N3339935   8.118   7.645   8.109 -0.1435  0.4695  0.8311
  282MOL    H3439936   0.069   7.412   8.223 -1.6373  1.8997 -1.9134
  282MOL    H3539937   0.003   7.247   8.220  3.3312 -0.3464  5.9456
  282MOL    H3639938   8.120   7.333   8.096 -0.2570 -0.5841 -1.7004
  282MOL    C3739939   8.295   7.389   7.975 -0.6505 -1.2076  0.2994
  282MOL    C3839940   8.311   7.239   7.925  0.3245 -0.7894  0.0238
  282MOL    C3939941   8.184   7.196   7.859 -0.6856  0.3744  0.2383
  282MOL    N4039942   8.084   7.169   7.810 -0.4864  0.2347  0.3822
  282MOL    H4139943   8.256   7.437   7.886 -0.9618 -3.1361 -0.6302
  282MOL    H4239944   0.085   7.425   7.991 -0.6978 -0.8385 -0.2362
  282MOL    H4339945   0.012   7.184   8.018  0.0087 -2.0876 -0.6971
  282MOL    C4439946   0.116   7.217   7.827  0.4895 -0.0536 -0.5997
  282MOL    C4539947   0.115   7.307   7.707  0.4254  0.3653 -0.0030
  282MOL    C4639948   0.158   7.442   7.744  0.1587  0.2112  0.8592
  282MOL    N4739949   0.195   7.543   7.773 -0.0193  0.1939 -0.3228
  282MOL    H4839950   0.199   7.229   7.895  0.9501  0.9872 -1.3266
  282MOL    H4939951   0.129   7.110   7.811 -0.9598 -0.6244  1.7959
  282MOL    H5039952   0.016   7.317   7.663  0.7346  0.3630 -0.7073
  282MOL    C5139953   0.206   7.253   7.594  0.2549  0.4942  1.0552
  282MOL    C5239954   0.165   7.308   7.457  0.2628 -0.9095  0.6051
  282MOL    C5339955   0.162   7.453   7.439  0.6422 -0.3226 -0.0762
  282MOL    N5439956   0.157   7.570   7.427  0.2663  0.1536  0.7102
  282MOL    H5539957   0.309   7.285   7.611  1.8271 -3.7151 -0.0351
  282MOL    H5639958   0.214   7.145   7.585  0.0961  0.6294 -0.9400
  282MOL    H5739959   0.063   7.274   7.439  0.4944 -1.3127  0.0473
  282MOL    C5839960   0.247   7.258   7.334  0.3832  0.3695  0.4343
  282MOL    C5939961   0.176   7.225   7.205  0.1708 -0.2776  0.6033
  282MOL    C6039962   0.100   7.097   7.220 -0.2542  0.1744  0.2451
  282MOL    N6139963   0.044   6.998   7.234 -0.5176  0.3538  0.0529
  282MOL    H6239964   0.329   7.330   7.325 -0.3382  1.3343  1.4814
  282MOL    H6339965   0.298   7.166   7.361 -2.0944 -1.5320 -1.1797
  282MOL    H6439966   0.252   7.187   7.137 -1.1501 -0.4265 -0.8142
  282MOL    C6539967   0.076   7.333   7.146  0.5076  1.1490 -0.9408
  282MOL    C6639968   0.148   7.457   7.097  0.8125  0.0123 -0.4613
  282MOL    C6739969   0.267   7.429   7.016 -0.5539  0.2359 -0.7448
  282MOL    N6839970   0.360   7.403   6.949  0.1168  0.3268  0.1512
  282MOL    H6939971   0.022   7.285   7.064  2.2154 -1.0092 -0.8495
  282MOL    H7039972   0.003   7.361   7.221  0.6563  1.3966 -0.8883
  282MOL    H7139973   0.187   7.513   7.181  0.0681  2.3918 -1.6666
  282MOL    C7239974   0.040   7.536   7.018 -0.6585 -0.0637 -0.1368
  282MOL    C7339975   0.086   7.675   6.971  0.2735  0.1933 -0.4549
  282MOL    C7439976   8.289   7.724   6.882 -0.2651 -0.8651 -0.4417
  282MOL    N7539977   8.203   7.759   6.811 -0.1553  0.0811  0.0655
  282MOL    H7639978   0.008   7.479   6.931  1.7925  0.5903 -1.5242
  282MOL    H7739979   8.265   7.550   7.081 -0.6888 -2.7397  0.4702
  282MOL    H7839980   0.176   7.671   6.911  0.4078 -0.3256 -0.2211
  282MOL    C7939981   0.105   7.766   7.103 -0.3389  0.0719 -0.6398
  282MOL    C8039982   0.136   7.912   7.069  0.1596  0.1336  0.0270
  282MOL    C8139983   0.023   7.995   7.023  0.2798  0.4581  0.0251
  282MOL    N8239984   8.247   8.062   6.987 -0.0638 -0.6167  0.2177
  282MOL    H8339985   0.028   7.755   7.180  1.0410 -1.3814  0.5856
  282MOL    H8439986   0.195   7.721   7.145 -1.0691  1.1969  2.2381
  282MOL    H8539987   0.207   7.903   6.987  0.8657  2.3304  0.3609
  282MOL    C8639988   0.210   7.994   7.183  0.5587  0.2924 -0.0056
  282MOL    C8739989   0.264   8.133   7.136  0.5292  0.1419  0.3464
  282MOL    C8839990   0.323   8.201   7.257 -1.0585 -0.2908  0.1106
  282MOL    N8939991   0.366   8.259   7.349  0.3129  0.3807 -0.4976
  282MOL    H9039992   0.139   8.013   7.263 -0.6980  0.9895 -1.2749
  282MOL    H9139993   0.298   7.940   7.217 -0.0711 -1.0147 -0.3925
  282MOL    H9239994   0.173   8.185   7.106  0.3998 -1.2668 -1.8046
  282MOL    C9339995   0.357   8.123   7.020 -0.0392 -0.3928 -0.4803
  282MOL    C9439996   0.476   8.225   7.023 -0.7570 -0.3082 -0.2542
  282MOL    C9539997   0.574   8.179   7.125 -0.5571 -0.5484  0.1829
  282MOL    N9639998   0.648   8.133   7.199  0.7234  0.2150 -0.2514
  282MOL    H9739999   0.410   8.028   7.025  1.6118  0.4622 -1.1652
  282MOL    H9840000   0.303   8.130   6.926  1.7832  1.5568 -1.4419
  282MOL    H9940001   0.441   0.010   7.056  3.2363  1.0257  0.3865
  282MOL   C10040002   0.521   8.261   6.887 -0.2590  0.1212  0.0578
  282MOL   C10140003   0.562   8.131   6.796 -0.1811 -0.3413 -0.7783
  282MOL   C10240004   0.583   8.176   6.655  0.2283  0.6426 -0.3030
  282MOL   N10340005   0.589   8.212   6.548  0.3653  0.4155  0.7271
  282MOL   H10440006   0.428   8.307   6.853  0.0577  2.1203  1.8280
  282MOL   H10540007   0.592   0.031   6.880  1.4243 -1.4194 -1.8652
  282MOL   H10640008   0.478   8.063   6.784 -0.3445 -0.3030  0.1124
  282MOL   C10740009   0.683   8.055   6.853  0.3442 -0.2619 -0.0759
  282MOL   C10840010   0.734   7.955   6.752 -0.7105 -0.4313 -0.1217
  282MOL   C10940011   0.625   7.863   6.707  0.3850 -0.3831  0.0889
  282MOL   N11040012   0.538   7.794   6.680 -0.1290  0.0074 -0.0035
  282MOL   H11140013   0.768   8.116   6.886 -0.5088  0.0660  1.5397
  282MOL   H11240014   0.653   8.006   6.945 -1.1665  0.8844  0.0595
  282MOL   H11340015   0.780   7.883   6.820  2.6266  1.9503  0.2983
  282MOL   C11440016   0.831   8.003   6.643 -0.0955 -0.2444  0.3183
  282MOL   C11540017   0.940   7.892   6.612 -0.1786 -0.3765  0.2880
  282MOL   C11640018   1.007   7.855   6.739  0.5038  0.4916  0.1079
  282MOL   N11740019   1.062   7.830   6.839 -0.6393  0.6625 -0.2907
  282MOL   H11840020   0.786   8.031   6.548 -0.6851 -0.9932  0.3733
  282MOL   H11940021   0.888   8.092   6.670  2.6879 -2.2050  1.0702
  282MOL   H12040022   1.023   7.936   6.557  1.3135 -1.3880  1.7184
  282MOL   C12140023   0.891   7.767   6.539 -0.4999 -0.0606  0.3136
  282MOL   C12240024   0.843   7.805   6.399  0.2963 -0.0710 -0.1078
  282MOL   C12340025   0.943   7.883   6.326 -0.2204 -0.4925 -0.1245
  282MOL   N12440026   1.024   7.942   6.271  0.4944 -0.4734 -0.0537
  282MOL   H12540027   0.974   7.697   6.532 -0.6049 -0.0143 -1.5255
  282MOL   H12640028   0.812   7.718   6.597 -0.2440 -0.7818  0.0546
  282MOL   H12740029   0.759   7.874   6.412 -0.1321 -1.1517  3.2555
  282MOL   C12840030   0.802   7.683   6.313  0.2765  0.0327 -0.4775
  282MOL   C12940031   0.732   7.705   6.174  0.1319 -0.1612 -0.4835
  282MOL   C13040032   0.819   7.783   6.077 -0.7246  0.2134 -0.2127
  282MOL   N13140033   0.880   7.835   5.993 -0.3524  0.1877 -0.3118
  282MOL   H13240034   0.892   7.621   6.306  0.4059  0.0316  0.9800
  282MOL   H13340035   0.732   7.630   6.377  1.0354  1.6617  1.7568
  282MOL   H13440036   0.654   7.777   6.200 -2.6786 -2.6758 -1.6018
  282MOL   C13540037   0.669   7.576   6.128 -0.4552  0.1322  0.3473
  282MOL   C13640038   0.561   7.576   6.017  0.3785 -0.7018 -0.0069
  282MOL   C13740039   0.445   7.672   6.046  0.3536  0.7079  0.9276
  282MOL   N13840040   0.361   7.741   6.064  0.0963  0.1173 -0.5778
  282MOL   H13940041   0.740   7.505   6.085 -0.5013 -0.2097  0.8348
  282MOL   H14040042   0.635   7.518   6.214 -0.1738  0.8422  0.9433
  282MOL   H14140043   0.525   7.474   6.001  0.3761 -0.4418 -1.7626
  282MOL   H14240044   0.629   7.620   5.944 -0.9627  1.1961 -0.1676
  283MOL     C140045   3.763   1.272   5.210  0.0770  0.3573  0.3547
  283MOL     C240046   3.648   1.371   5.198 -0.8552 -0.3127  0.2083
  283MOL     C340047   3.620   1.389   5.047  0.2580  0.0100 -0.5161
  283MOL     N440048   3.601   1.404   4.935  0.2291 -0.2660 -0.2990
  283MOL     H540049   3.853   1.327   5.180  0.1244 -0.0669 -0.2919
  283MOL     H640050   3.750   1.184   5.148  1.0884  0.8099 -0.5144
  283MOL     H740051   3.679   1.470   5.230  0.5573 -0.7856  0.3049
  283MOL     H840052   3.790   1.244   5.311  0.7113  1.8487  0.6211
  283MOL     C940053   3.520   1.334   5.274  0.1161  0.3544  0.2278
  283MOL    C1040054   3.402   1.437   5.273  0.3624 -0.1105  0.1403
  283MOL    C1140055   3.445   1.575   5.308  1.2396 -0.9419  0.1795
  283MOL    N1240056   3.475   1.684   5.345 -0.0118  0.0406 -0.9983
  283MOL    H1340057   3.479   1.243   5.232  0.1706  0.5804 -0.3096
  283MOL    H1440058   3.538   1.311   5.379 -1.9962  0.8898  0.7184
  283MOL    H1540059   3.333   1.401   5.350 -0.9731 -0.7382 -1.3307
  283MOL    C1640060   3.328   1.431   5.136 -0.2706  0.2695 -0.0697
  283MOL    C1740061   3.191   1.501   5.143  0.2553  0.2684  0.5201
  283MOL    C1840062   3.196   1.643   5.149 -0.1280 -0.4293 -0.0113
  283MOL    N1940063   3.206   1.758   5.150 -0.1430  0.7009  0.2141
  283MOL    H2040064   3.394   1.468   5.057 -0.7967  0.9055 -0.2263
  283MOL    H2140065   3.316   1.327   5.107  0.8391  0.3986 -1.0126
  283MOL    H2240066   3.145   1.461   5.234  5.1947 -1.4929  2.4407
  283MOL    C2340067   3.096   1.450   5.038 -0.6789  0.3499 -0.1830
  283MOL    C2440068   2.967   1.530   5.042 -0.0009 -0.9378  0.5916
  283MOL    C2540069   2.958   1.623   4.932  0.1664 -0.2103 -0.2802
  283MOL    N2640070   2.952   1.701   4.845 -0.0988  0.1768  0.5872
  283MOL    H2740071   3.146   1.469   4.943  0.7801  1.2089  0.7406
  283MOL    H2840072   3.086   1.342   5.046 -0.0536  0.4586  2.3900
  283MOL    H2940073   2.966   1.604   5.123  2.0095 -0.9845  0.6755
  283MOL    C3040074   2.840   1.447   5.063  0.0239  0.1735 -0.7051
  283MOL    C3140075   2.769   1.387   4.933 -0.5747  0.0485 -0.5467
  283MOL    C3240076   2.863   1.324   4.843  0.2292  0.1203 -0.1313
  283MOL    N3340077   2.935   1.273   4.770 -0.5273 -0.0111  0.4572
  283MOL    H3440078   2.864   1.365   5.131 -1.4197 -0.4057 -0.8666
  283MOL    H3540079   2.765   1.501   5.120 -1.3387 -1.4867 -0.8780
  283MOL    H3640080   2.721   1.464   4.872 -0.1152 -1.1058 -2.4211
  283MOL    C3740081   2.662   1.290   4.974  0.2838 -0.1274 -0.1267
  283MOL    C3840082   2.569   1.242   4.863 -0.1021  0.3585  0.1220
  283MOL    C3940083   2.538   1.355   4.777 -0.7223  0.7623 -0.4124
  283MOL    N4040084   2.520   1.444   4.710  0.3615  0.0103  0.2258
  283MOL    H4140085   2.701   1.198   5.017 -0.8353  0.0752  1.3449
  283MOL    H4240086   2.601   1.330   5.055 -0.4804  0.6059 -1.0424
  283MOL    H4340087   2.476   1.218   4.916  1.6963 -2.6740  2.0928
  283MOL    C4440088   2.626   1.125   4.780 -0.5783 -0.7508 -0.0047
  283MOL    C4540089   2.526   1.053   4.684 -0.1386 -0.1289  0.2443
  283MOL    C4640090   2.422   0.980   4.761 -0.0659 -0.1249 -0.1941
  283MOL    N4740091   2.333   0.923   4.811  0.3222 -0.1090 -0.9241
  283MOL    H4840092   2.706   1.154   4.713  0.2613  0.9592  1.6743
  283MOL    H4940093   2.660   1.048   4.849 -0.4043  0.2033  1.0078
  283MOL    H5040094   2.587   0.978   4.636  1.0812  0.2512  1.1909
  283MOL    C5140095   2.462   1.144   4.572 -0.5821  0.5255 -0.7697
  283MOL    C5240096   2.398   1.067   4.456 -0.6763  0.3544 -0.2763
  283MOL    C5340097   2.455   0.937   4.443  0.2064  0.0664  0.2552
  283MOL    N5440098   2.497   0.827   4.435  0.0695  0.1946 -0.0937
  283MOL    H5540099   2.386   1.205   4.621  0.0069  0.8037 -0.2026
  283MOL    H5640100   2.541   1.212   4.540  0.6668 -0.2730  0.5521
  283MOL    H5740101   2.406   1.122   4.362  3.7379  0.5057  0.0716
  283MOL    C5840102   2.246   1.053   4.477  0.3975  0.8470 -0.2470
  283MOL    C5940103   2.155   1.011   4.358  0.0539  0.7337  0.4709
  283MOL    C6040104   2.211   0.907   4.272 -0.5141  0.3506  0.4130
  283MOL    N6140105   2.260   0.821   4.217  0.1241 -0.1923 -0.0708
  283MOL    H6240106   2.220   0.979   4.553 -1.1577  0.1228 -1.4528
  283MOL    H6340107   2.202   1.147   4.509  0.2669  1.1698 -1.3529
  283MOL    H6440108   2.141   1.090   4.284  0.2656  1.3739  1.1058
  283MOL    C6540109   2.012   0.981   4.397 -0.0687  0.1434 -0.0499
  283MOL    C6640110   1.926   0.924   4.291  0.5350  0.7096  0.8100
  283MOL    C6740111   1.897   0.780   4.310  0.1879  0.3017  0.2006
  283MOL    N6840112   1.874   0.668   4.329 -0.0961 -0.4217 -0.2107
  283MOL    H6940113   2.010   0.913   4.482  3.2303 -0.3222 -0.2923
  283MOL    H7040114   1.961   1.070   4.434  0.2248  0.3504 -0.1530
  283MOL    H7140115   1.975   0.924   4.194  2.6633 -0.4703  1.8220
  283MOL    C7240116   1.793   1.003   4.264  0.4566  0.2467  0.7085
  283MOL    C7340117   1.816   1.144   4.205 -0.2351 -0.3216 -0.1468
  283MOL    C7440118   1.884   1.129   4.074  0.3847 -0.1988 -0.4009
  283MOL    N7540119   1.938   1.117   3.972  0.2826  0.4264 -0.0984
  283MOL    H7640120   1.747   0.945   4.184  0.2582 -1.9195  2.3724
  283MOL    H7740121   1.718   1.002   4.343 -1.5454 -3.7905 -1.0993
  283MOL    H7840122   1.894   1.188   4.266  0.4173  0.5139 -1.5638
  283MOL    C7940123   1.691   1.230   4.191  0.6006 -0.1566  0.3074
  283MOL    C8040124   1.720   1.372   4.149  0.3068 -0.4957  0.4277
  283MOL    C8140125   1.852   1.416   4.181 -0.1358 -0.0233  0.2409
  283MOL    N8240126   1.962   1.452   4.204 -0.2082  0.7252 -0.1202
  283MOL    H8340127   1.626   1.175   4.122 -1.0829  0.4124  1.4315
  283MOL    H8440128   1.637   1.242   4.284  0.6043  0.0454  0.2840
  283MOL    H8540129   1.670   1.445   4.213  1.1247  0.3098  0.1693
  283MOL    C8640130   1.702   1.399   4.002 -0.2332  0.4294 -0.2650
  283MOL    C8740131   1.552   1.406   3.946 -0.2185  0.0436  0.3068
  283MOL    C8840132   1.515   1.545   3.911 -0.0822 -1.0180 -0.1138
  283MOL    N8940133   1.484   1.653   3.895  0.5109 -0.1860  0.3372
  283MOL    H9040134   1.743   1.499   3.986 -0.5157  1.0502  2.6765
  283MOL    H9140135   1.765   1.334   3.942  0.1964  0.7067 -0.1217
  283MOL    H9240136   1.475   1.383   4.020 -1.6863  0.9506 -0.9136
  283MOL    C9340137   1.524   1.308   3.836  0.0499 -0.1908  0.3523
  283MOL    C9440138   1.377   1.292   3.792 -0.8046  0.7648 -0.1316
  283MOL    C9540139   1.309   1.405   3.728 -0.0599  0.2690  0.3507
  283MOL    N9640140   1.246   1.488   3.676  1.1637  0.4600 -0.1475
  283MOL    H9740141   1.577   1.338   3.745  0.9820 -0.6202  0.7416
  283MOL    H9840142   1.573   1.213   3.860  2.0117  0.1874 -1.9617
  283MOL    H9940143   1.316   1.275   3.881  0.7054 -0.4815  0.7074
  283MOL   C10040144   1.352   1.165   3.702 -0.1855 -0.2220 -0.1126
  283MOL   C10140145   1.446   1.148   3.580  0.0737  0.2037 -0.0188
  283MOL   C10240146   1.395   1.029   3.502  0.8237  0.0330 -0.6362
  283MOL   N10340147   1.352   0.938   3.442 -0.2763 -0.1088 -0.6317
  283MOL   H10440148   1.363   1.078   3.766 -1.5457 -0.3083  0.0146
  283MOL   H10540149   1.248   1.171   3.670 -0.4105  2.6994  0.9330
  283MOL   H10640150   1.547   1.112   3.603 -0.8164 -4.2003 -2.3461
  283MOL   C10740151   1.452   1.267   3.485 -0.4851 -0.5475  0.0968
  283MOL   C10840152   1.550   1.239   3.374 -0.0796 -0.2001 -0.6682
  283MOL   C10940153   1.528   1.324   3.259 -0.0860  0.0222 -0.4496
  283MOL   N11040154   1.508   1.385   3.160 -0.5525  0.1272 -0.5972
  283MOL   H11140155   1.357   1.277   3.434  0.1035  1.6474 -0.6318
  283MOL   H11240156   1.469   1.363   3.534 -1.5487  0.6087 -1.7120
  283MOL   H11340157   1.519   1.139   3.343 -0.1240  0.5089 -2.9644
  283MOL   C11440158   1.704   1.256   3.422 -0.2200  0.0465 -0.0096
  283MOL   C11540159   1.808   1.250   3.295 -0.0666  0.0288  0.3292
  283MOL   C11640160   1.751   1.169   3.185 -0.2137 -0.0206  0.3524
  283MOL   N11740161   1.703   1.105   3.105  0.0428 -0.0988  0.2138
  283MOL   H11840162   1.724   1.344   3.482 -3.0706  0.4092  0.4596
  283MOL   H11940163   1.712   1.172   3.491 -1.6713  2.1067  2.7191
  283MOL   H12040164   1.905   1.209   3.321 -1.0588 -2.9302 -0.4015
  283MOL   C12140165   1.841   1.398   3.251  0.7539  0.7409 -0.2213
  283MOL   C12240166   1.932   1.480   3.339 -0.0948  0.3731  0.1246
  283MOL   C12340167   2.047   1.387   3.358  0.6734 -0.3567  0.2356
  283MOL   N12440168   2.133   1.311   3.384  0.3081 -0.0836 -0.3958
  283MOL   H12540169   1.907   1.388   3.165  3.2876 -0.2704  1.7615
  283MOL   H12640170   1.752   1.458   3.230  1.2287  2.6854  2.8838
  283MOL   H12740171   1.887   1.483   3.439 -2.0687  0.0116 -0.7291
  283MOL   C12840172   1.969   1.627   3.297 -0.4562 -0.4202  0.2015
  283MOL   C12940173   2.066   1.711   3.387  0.9660 -0.3372  0.4753
  283MOL   C13040174   2.164   1.632   3.462 -0.4099  0.1893 -0.2517
  283MOL   N13140175   2.249   1.571   3.516 -0.3651 -0.7129 -0.0169
  283MOL   H13240176   2.019   1.615   3.201  0.4918 -0.8539  0.7494
  283MOL   H13340177   1.879   1.682   3.269 -0.5337 -1.7795 -2.3453
  283MOL   H13440178   2.006   1.742   3.472 -0.1929 -3.7934  0.9817
  283MOL   C13540179   2.124   1.833   3.315 -0.2748  0.2033  0.2976
  283MOL   C13640180   2.248   1.896   3.376 -0.3117  0.0074 -0.3948
  283MOL   C13740181   2.226   1.941   3.515  0.2346 -0.5214  0.0934
  283MOL   N13840182   2.203   1.982   3.619  0.1447 -0.2870 -0.1729
  283MOL   H13940183   2.141   1.810   3.210  1.0398 -0.0280  0.5516
  283MOL   H14040184   2.050   1.913   3.308 -0.0171  0.2743 -1.7978
  283MOL   H14140185   2.286   1.986   3.327 -0.7991  2.0215  2.7746
  283MOL   H14240186   2.333   1.828   3.374 -0.6545 -0.4163 -0.5475
  284MOL     C140187   1.516   0.313   5.909  0.6894 -0.0954  0.0216
  284MOL     C240188   1.436   0.391   6.013 -0.1763  0.7450  0.4271
  284MOL     C340189   1.288   0.377   5.999 -0.6745  1.0206 -0.2473
  284MOL     N440190   1.175   0.367   5.981  0.2290  0.4382  0.3481
  284MOL     H540191   1.489   0.343   5.808 -2.9700 -0.8906  0.7171
  284MOL     H640192   1.495   0.206   5.910  0.9354 -0.2117 -2.9572
  284MOL     H740193   1.461   0.496   5.994 -1.0923  1.3348  2.4101
  284MOL     H840194   1.622   0.329   5.929  0.8438 -2.1290  0.9703
  284MOL     C940195   1.484   0.363   6.156  0.5230  0.5637 -0.3027
  284MOL    C1040196   1.382   0.387   6.268 -0.1041 -1.0785  0.4122
  284MOL    C1140197   1.422   0.309   6.379  0.8895 -0.6349  0.5094
  284MOL    N1240198   1.461   0.247   6.467 -0.0435 -0.2019  0.3967
  284MOL    H1340199   1.499   0.256   6.169 -0.3662  0.3326 -1.1062
  284MOL    H1440200   1.575   0.416   6.183  0.3995  0.2398  0.7470
  284MOL    H1540201   1.285   0.345   6.242 -1.0161  0.9000  0.4806
  284MOL    C1640202   1.362   0.534   6.300  0.4291 -0.3276 -0.0786
  284MOL    C1740203   1.222   0.557   6.351 -0.5869  0.2483 -0.7762
  284MOL    C1840204   1.166   0.449   6.432  0.6433  0.4401  1.4372
  284MOL    N1940205   1.123   0.353   6.495  0.3407  0.8099  0.1473
  284MOL    H2040206   1.437   0.560   6.375 -0.2425 -1.7876  1.1411
  284MOL    H2140207   1.387   0.600   6.217  0.4133  0.6591  0.6914
  284MOL    H2240208   1.152   0.553   6.267 -1.5828 -0.3544  0.0744
  284MOL    C2340209   1.206   0.696   6.419 -0.1359  0.0336  0.5286
  284MOL    C2440210   1.195   0.820   6.332  0.1984  0.1080 -0.2299
  284MOL    C2540211   1.110   0.921   6.394 -0.1617  0.0390 -0.0083
  284MOL    N2640212   1.038   0.995   6.447  0.5231 -0.0950  0.2380
  284MOL    H2740213   1.119   0.702   6.485  0.7210  0.4685  1.6552
  284MOL    H2840214   1.299   0.706   6.476  0.8426  1.3584 -1.2732
  284MOL    H2940215   1.139   0.793   6.242 -0.1413 -1.5973  0.4598
  284MOL    C3040216   1.332   0.887   6.280 -0.1940 -0.4478  0.3850
  284MOL    C3140217   1.321   1.036   6.232 -0.3106 -0.0685  0.6775
  284MOL    C3240218   1.455   1.103   6.225 -0.5936  0.4041  0.4393
  284MOL    N3340219   1.561   1.154   6.228 -0.3469 -0.0965  0.2741
  284MOL    H3440220   1.406   0.891   6.359  0.7292  0.4536 -0.5021
  284MOL    H3540221   1.381   0.834   6.198 -1.5034  0.2716 -0.8923
  284MOL    H3640222   1.264   1.091   6.307 -0.4860 -0.8912  1.1495
  284MOL    C3740223   1.229   1.041   6.106  0.4728 -0.0669 -0.1320
  284MOL    C3840224   1.302   1.053   5.970  0.4404  0.4478 -0.0586
  284MOL    C3940225   1.377   0.933   5.937 -0.1349 -0.0451 -0.1222
  284MOL    N4040226   1.437   0.840   5.908  0.0829  0.2043 -0.4700
  284MOL    H4140227   1.167   0.952   6.100 -0.4101  0.6245 -1.3331
  284MOL    H4240228   1.148   1.114   6.117 -0.5004 -1.0895 -0.4487
  284MOL    H4340229   1.363   1.142   5.984  2.9478 -1.0831 -0.8967
  284MOL    C4440230   1.206   1.083   5.856  0.1776 -0.6189  0.1512
  284MOL    C4540231   1.261   1.146   5.732 -0.6523  0.2115  0.5045
  284MOL    C4640232   1.333   1.054   5.646 -0.3773  0.4987 -0.0180
  284MOL    N4740233   1.387   0.977   5.570 -0.1414  0.4277  0.1831
  284MOL    H4840234   1.156   0.993   5.821 -0.1186  0.1028 -1.3143
  284MOL    H4940235   1.128   1.146   5.899 -0.8927 -1.5813 -0.3463
  284MOL    H5040236   1.321   1.233   5.760 -2.6757  1.3342  1.4488
  284MOL    C5140237   1.155   1.215   5.656  0.2995  0.1154 -0.6696
  284MOL    C5240238   1.205   1.298   5.528 -0.3312  0.3827  0.7012
  284MOL    C5340239   1.133   1.244   5.408  0.4204  0.2838 -0.5675
  284MOL    N5440240   1.075   1.200   5.319 -0.6722  0.1225 -0.7911
  284MOL    H5540241   1.082   1.139   5.630 -0.2616  0.6696 -0.7287
  284MOL    H5640242   1.106   1.286   5.723 -0.5524 -1.2319  0.1625
  284MOL    H5740243   1.313   1.287   5.522 -0.3735 -0.2395  0.9554
  284MOL    C5840244   1.185   1.450   5.551 -0.4682  0.0005  0.6932
  284MOL    C5940245   1.283   1.522   5.658 -0.7631  0.3196  0.0206
  284MOL    C6040246   1.421   1.479   5.629 -0.1563  1.1087 -0.0217
  284MOL    N6140247   1.531   1.448   5.605 -0.2073  0.7146 -0.2197
  284MOL    H6240248   1.186   1.495   5.452  2.9997  0.3927  0.8666
  284MOL    H6340249   1.079   1.464   5.574 -0.5438 -0.7056  0.7654
  284MOL    H6440250   1.253   1.480   5.754 -0.1449  0.5603  0.3172
  284MOL    C6540251   1.271   1.674   5.668 -0.1465 -0.2847  0.2403
  284MOL    C6640252   1.135   1.731   5.709  0.0625 -0.4374  0.1482
  284MOL    C6740253   1.030   1.713   5.607 -0.1844 -0.4318 -0.1837
  284MOL    N6840254   0.950   1.700   5.523  0.6578 -0.4128  0.1203
  284MOL    H6940255   1.348   1.710   5.736  1.2253 -0.8623 -0.9793
  284MOL    H7040256   1.297   1.714   5.570 -0.9637  1.1701  0.5924
  284MOL    H7140257   1.143   1.839   5.707  1.1983 -0.4730  1.7030
  284MOL    C7240258   1.099   1.701   5.857 -0.8085 -0.4501 -0.3233
  284MOL    C7340259   0.954   1.675   5.874  0.3934 -0.8297 -1.1216
  284MOL    C7440260   0.917   1.539   5.833  0.0829  0.2375  0.5582
  284MOL    N7540261   0.885   1.435   5.801 -0.0807 -0.1421  0.2285
  284MOL    H7640262   1.151   1.619   5.907  1.3380  2.6663  2.7718
  284MOL    H7740263   1.129   1.798   5.896 -3.3412  0.6098 -0.8980
  284MOL    H7840264   0.899   1.734   5.800 -0.3078 -0.1542 -0.0654
  284MOL    C7940265   0.919   1.704   6.020 -0.7871  0.2937 -0.1168
  284MOL    C8040266   0.768   1.689   6.048  0.7469 -0.0828  0.1332
  284MOL    C8140267   0.738   1.623   6.180 -0.3613 -0.7959  0.1620
  284MOL    N8240268   0.725   1.574   6.281 -0.1767  0.4211  0.2830
  284MOL    H8340269   0.981   1.630   6.070 -0.0801  1.0282  0.1187
  284MOL    H8440270   0.956   1.803   6.049  0.5115  0.8537 -3.5049
  284MOL    H8540271   0.722   1.616   5.982 -0.5580  0.5360  0.3438
  284MOL    C8640272   0.695   1.829   6.031 -0.2334  0.3533  0.1961
  284MOL    C8740273   0.559   1.837   6.089 -0.3111 -0.3646  0.1269
  284MOL    C8840274   0.559   1.848   6.235  0.4025 -0.0930 -0.5530
  284MOL    N8940275   0.552   1.857   6.354 -0.0697 -0.3354  0.3211
  284MOL    H9040276   0.760   1.908   6.068  1.0523 -0.9153  0.7288
  284MOL    H9140277   0.692   1.830   5.922  0.6760 -0.5750  0.1468
  284MOL    H9240278   0.514   1.739   6.075  2.0574 -1.2535 -1.5389
  284MOL    C9340279   0.453   1.927   6.010 -0.0878  0.8949  0.5559
  284MOL    C9440280   0.446   2.076   6.062  0.6001 -0.1516 -0.0512
  284MOL    C9540281   0.574   2.137   6.074 -0.4945  0.1313  0.9078
  284MOL    N9640282   0.676   2.189   6.073  0.8123  0.1040 -0.4332
  284MOL    H9740283   0.472   1.918   5.903  0.0832  1.5774  0.5248
  284MOL    H9840284   0.355   1.885   6.029  0.0511 -0.2428 -1.1810
  284MOL    H9940285   0.400   2.082   6.161 -0.3481  0.1775 -0.5077
  284MOL   C10040286   0.352   2.158   5.979 -0.4485 -0.0018  0.7381
  284MOL   C10140287   0.351   2.311   6.002  0.0562 -0.5095  0.2348
  284MOL   C10240288   0.461   2.378   5.929 -0.2271  0.4365 -0.0892
  284MOL   N10340289   0.547   2.431   5.872 -0.1658 -0.1531 -0.4467
  284MOL   H10440290   0.391   2.150   5.877 -1.1500  0.8765  0.3959
  284MOL   H10540291   0.254   2.109   5.981 -0.4441 -0.1380 -1.1193
  284MOL   H10640292   0.372   2.334   6.107  0.6019 -0.4818  0.1209
  284MOL   C10740293   0.214   2.379   5.977 -0.4093  0.3609 -0.1364
  284MOL   C10840294   0.092   2.349   6.062  0.3517 -0.3418 -0.1706
  284MOL   C10940295   0.061   2.210   6.081  0.2980  0.9426  0.2936
  284MOL   N11040296   0.042   2.098   6.105 -0.4568  0.3307  0.8085
  284MOL   H11140297   0.228   2.487   5.976  0.4525  0.2457 -0.2866
  284MOL   H11240298   0.200   2.361   5.870  0.5032 -0.2416 -0.1594
  284MOL   H11340299   0.009   2.397   6.011  0.4157 -0.2980 -0.2350
  284MOL   C11440300   0.095   2.425   6.200 -0.6124 -0.4804 -0.0759
  284MOL   C11540301   0.092   2.584   6.201  0.1962 -0.4980 -0.3305
  284MOL   C11640302   8.287   2.643   6.135  0.7135  0.2970 -0.2831
  284MOL   N11740303   8.200   2.699   6.082 -0.2587  0.0479  0.6242
  284MOL   H11840304   0.000   2.395   6.246 -0.6591  0.4027  0.4173
  284MOL   H11940305   0.185   2.391   6.250 -0.5936  0.9945  0.9395
  284MOL   H12040306   0.176   2.614   6.138  0.7404 -0.3373  0.4706
  284MOL   C12140307   0.116   2.644   6.348  0.2801 -0.1520 -0.5650
  284MOL   C12240308   0.068   2.792   6.372 -0.3515 -0.1984  0.4562
  284MOL   C12340309   0.113   2.874   6.256  0.5899 -0.5363 -0.2192
  284MOL   N12440310   0.137   2.938   6.168 -0.5055  0.5254 -0.3566
  284MOL   H12540311   0.074   2.577   6.423 -0.1280  1.5820  0.7873
  284MOL   H12640312   0.223   2.630   6.367 -0.0603 -0.8427  0.8137
  284MOL   H12740313   0.109   2.838   6.461  0.0602  2.0202 -0.8353
  284MOL   C12840314   8.223   2.796   6.389 -0.0758  0.1596  0.3008
  284MOL   C12940315   8.164   2.808   6.531  0.3813 -0.4154  0.6314
  284MOL   C13040316   8.020   2.802   6.528  0.5489  0.6364 -0.0520
  284MOL   N13140317   7.905   2.780   6.532 -0.7450 -0.1277 -0.5247
  284MOL   H13240318   8.179   2.870   6.323 -0.1730  0.0674  0.2612
  284MOL   H13340319   8.179   2.707   6.344 -0.7352 -0.8375  2.8320
  284MOL   H13440320   8.193   2.902   6.579 -0.4678  0.2733 -0.1781
  284MOL   C13540321   8.212   2.692   6.616 -0.5007  0.3355 -0.4406
  284MOL   C13640322   8.168   2.691   6.761  0.3418 -0.1909  0.0322
  284MOL   C13740323   8.266   2.610   6.848 -0.1222  0.2228  0.7108
  284MOL   N13840324   0.012   2.541   6.914  0.2183 -0.2700 -0.2708
  284MOL   H13940325   8.177   2.600   6.568 -2.6057  0.4343  0.8420
  284MOL   H14040326   0.008   2.684   6.616 -0.5051 -0.0220 -2.6721
  284MOL   H14140327   8.067   2.649   6.769 -0.4456  1.5522 -0.7022
  284MOL   H14240328   8.177   2.789   6.807  0.9967 -1.1961  2.1640
  285MOL     C140329   5.659   1.159   5.612  0.5097 -0.5827  0.3275
  285MOL     C240330   5.775   1.068   5.588  0.3314 -0.4382 -0.2167
  285MOL     C340331   5.790   0.963   5.686 -0.5927  0.6121  0.5175
  285MOL     N440332   5.799   0.882   5.770 -0.4451 -0.8791 -0.1548
  285MOL     H540333   5.681   1.255   5.565  1.9353 -0.0361  2.0469
  285MOL     H640334   5.643   1.180   5.717 -0.8022  0.4670 -0.0731
  285MOL     H740335   5.869   1.123   5.599 -0.4688  0.9385 -0.0679
  285MOL     H840336   5.566   1.125   5.566 -0.3869  0.9989  0.9237
  285MOL     C940337   5.755   1.016   5.444  0.4339 -0.2449  0.4041
  285MOL    C1040338   5.876   0.945   5.385 -0.4712 -0.5896  0.2987
  285MOL    C1140339   5.996   1.035   5.399 -0.8626  0.3563  0.2747
  285MOL    N1240340   6.082   1.107   5.416  0.4529  0.4207  0.9030
  285MOL    H1340341   5.673   0.945   5.438 -0.5691  0.6846  2.7868
  285MOL    H1440342   5.721   1.093   5.375  0.1025 -0.0719  0.7603
  285MOL    H1540343   5.867   0.929   5.277 -0.1741  0.5674  0.0975
  285MOL    C1640344   5.889   0.805   5.445  0.0559 -0.2475  0.6024
  285MOL    C1740345   5.932   0.692   5.354  0.4342  0.2002 -0.1177
  285MOL    C1840346   5.864   0.698   5.223 -0.5449  0.1516  0.2322
  285MOL    N1940347   5.813   0.711   5.120 -0.3923  0.9676  0.5247
  285MOL    H2040348   5.961   0.806   5.527  0.2110  0.2597  0.4679
  285MOL    H2140349   5.793   0.773   5.484 -0.1352 -2.3950 -1.5196
  285MOL    H2240350   5.895   0.606   5.409  1.3896 -0.0232  0.1833
  285MOL    C2340351   6.085   0.680   5.332  0.2873  0.1457 -0.1642
  285MOL    C2440352   6.134   0.557   5.256 -0.7785  0.6175 -0.1026
  285MOL    C2540353   6.271   0.574   5.220 -0.4379  0.3781  0.6524
  285MOL    N2640354   6.386   0.595   5.192  0.8481 -0.1237 -0.2721
  285MOL    H2740355   6.130   0.770   5.291 -1.8097  1.1308 -0.3455
  285MOL    H2840356   6.137   0.681   5.429 -0.5855  1.1047  0.3030
  285MOL    H2940357   6.076   0.551   5.163 -2.3723 -1.2560  0.9756
  285MOL    C3040358   6.103   0.433   5.334 -0.1199  0.3380  0.2776
  285MOL    C3140359   6.159   0.301   5.261  0.2328  0.5220  0.2279
  285MOL    C3240360   6.140   0.189   5.350  0.5771  0.3457 -0.9374
  285MOL    N3340361   6.118   0.100   5.421  0.1855 -0.1012  0.1519
  285MOL    H3440362   6.153   0.434   5.431  2.0755  1.0252 -0.8218
  285MOL    H3540363   5.996   0.417   5.342 -0.3271  1.2954 -0.4702
  285MOL    H3640364   6.267   0.297   5.256  0.1521 -1.6153 -0.4667
  285MOL    C3740365   6.109   0.279   5.116  0.9639 -0.1150  0.4032
  285MOL    C3840366   5.962   0.284   5.080  0.6281 -0.3932 -0.4424
  285MOL    C3940367   5.960   0.304   4.934  0.0496  0.2822  0.1612
  285MOL    N4040368   5.964   0.325   4.816 -0.2658  0.2008 -0.8005
  285MOL    H4140369   6.166   0.348   5.054  0.4950 -2.0313 -2.2459
  285MOL    H4240370   6.152   0.183   5.088 -0.5872 -0.8980  0.6709
  285MOL    H4340371   5.921   0.374   5.124  3.6613  1.5082 -1.3873
  285MOL    C4440372   5.885   0.152   5.112  0.1208  0.4707  1.0607
  285MOL    C4540373   5.921   0.019   5.037  0.2090  0.2770  0.3182
  285MOL    C4640374   6.046   8.272   5.090  0.0599 -0.1608 -0.5523
  285MOL    N4740375   6.145   8.222   5.131 -0.2700 -0.1707 -0.1412
  285MOL    H4840376   5.901   0.138   5.219  0.1764 -0.9591  0.8795
  285MOL    H4940377   5.780   0.172   5.094  0.6938  0.4322 -2.7454
  285MOL    H5040378   5.949   0.034   4.933 -0.8515  2.5453  0.3197
  285MOL    C5140379   5.815   8.219   5.058 -0.4300 -0.1551  0.5224
  285MOL    C5240380   5.681   8.245   4.981 -0.0388  0.5843 -0.3480
  285MOL    C5340381   5.709   8.307   4.849 -0.3757  0.1750 -0.4747
  285MOL    N5440382   5.726   0.031   4.738  0.3539 -1.0205 -0.2281
  285MOL    H5540383   5.865   8.140   5.003  0.8085  0.1189  1.2292
  285MOL    H5640384   5.791   8.220   5.164 -1.8199  3.6483  0.2568
  285MOL    H5740385   5.622   0.008   5.033  2.8789  2.6974 -0.0243
  285MOL    C5840386   5.585   8.125   4.966 -0.1807  0.0007  0.2339
  285MOL    C5940387   5.564   8.040   5.090  0.5213  0.2919  0.5415
  285MOL    C6040388   5.479   8.094   5.193  0.2870  0.2877  0.3623
  285MOL    N6140389   5.410   8.146   5.274 -0.8086  0.2092  0.4925
  285MOL    H6240390   5.487   8.162   4.935 -1.2641  1.1109  4.6294
  285MOL    H6340391   5.627   8.072   4.880  0.2037 -3.0757  2.2507
  285MOL    H6440392   5.651   8.027   5.154 -0.7165 -0.0945  2.1570
  285MOL    C6540393   5.516   7.900   5.051 -0.4842 -0.3325  0.1162
  285MOL    C6640394   5.616   7.812   4.976 -0.9867 -0.4370  0.0533
  285MOL    C6740395   5.755   7.814   5.033  0.1263  0.1659 -0.2853
  285MOL    N6840396   5.867   7.816   5.066  0.2368 -0.6829  0.2348
  285MOL    H6940397   5.478   7.852   5.141  2.9875  1.6083  2.7044
  285MOL    H7040398   5.422   7.925   5.000 -1.1359 -2.7479  0.0799
  285MOL    H7140399   5.629   7.858   4.878 -0.1818  1.2889  0.9423
  285MOL    C7240400   5.561   7.668   4.949 -0.3647  0.5432  0.0202
  285MOL    C7340401   5.609   7.603   4.818  1.1128 -0.3097  0.0573
  285MOL    C7440402   5.758   7.584   4.810 -0.8459 -0.2851 -0.1290
  285MOL    N7540403   5.873   7.569   4.816  0.0674 -0.5538  0.2415
  285MOL    H7640404   5.594   7.603   5.030  0.2227 -1.2893 -1.6616
  285MOL    H7740405   5.454   7.674   4.967 -0.0528 -1.1624  2.7825
  285MOL    H7840406   5.574   7.649   4.725 -0.4188 -1.1479  0.2056
  285MOL    C7940407   5.547   7.464   4.797 -0.3611  0.9206 -0.6897
  285MOL    C8040408   5.396   7.462   4.797 -0.2561  0.7141  0.3449
  285MOL    C8140409   5.325   7.583   4.744  0.5804 -0.4177 -1.3319
  285MOL    N8240410   5.265   7.677   4.709 -0.1512 -0.2004  0.0127
  285MOL    H8340411   5.572   7.439   4.694  0.9767  2.8710 -0.8634
  285MOL    H8440412   5.584   7.391   4.868 -0.3664  1.4379 -0.1575
  285MOL    H8540413   5.379   7.458   4.905  3.3033  0.0091  0.9532
  285MOL    C8640414   5.337   7.328   4.745  0.4677 -0.7063  0.5135
  285MOL    C8740415   5.318   7.323   4.587  0.1011 -0.1877 -0.2988
  285MOL    C8840416   5.283   7.188   4.548  0.7354  0.5619  0.1314
  285MOL    N8940417   5.261   7.081   4.517 -0.4742 -0.6388 -0.0867
  285MOL    H9040418   5.399   7.246   4.779  0.0366 -0.5826  1.6123
  285MOL    H9140419   5.243   7.321   4.800  1.1820  2.5805  2.3241
  285MOL    H9240420   5.418   7.329   4.544  0.7806 -0.5869  1.1952
  285MOL    C9340421   5.225   7.413   4.508  0.4786  0.0320  0.9395
  285MOL    C9440422   5.077   7.408   4.557 -0.4778 -0.6953 -0.2703
  285MOL    C9540423   5.060   7.443   4.699  0.3335 -0.2705  0.6330
  285MOL    N9640424   5.048   7.466   4.812  0.8696 -0.3849 -0.0797
  285MOL    H9740425   5.277   7.509   4.506 -1.6851  1.2610  2.0439
  285MOL    H9840426   5.237   7.380   4.405  1.3619 -2.0860  1.6898
  285MOL    H9940427   5.030   7.311   4.544  0.6844 -1.7043  2.6631
  285MOL   C10040428   4.982   7.498   4.469 -0.0694 -0.1617 -0.1328
  285MOL   C10140429   4.982   7.652   4.485  0.1752  0.0619 -0.0923
  285MOL   C10240430   5.090   7.700   4.394  0.3955 -0.7335  0.0036
  285MOL   N10340431   5.184   7.735   4.333 -0.0843  0.5542 -0.0149
  285MOL   H10440432   5.000   7.482   4.363  0.6431  2.0183 -0.3582
  285MOL   H10540433   4.880   7.463   4.482  0.2973 -0.5374  1.8600
  285MOL   H10640434   5.012   7.674   4.587 -1.3895  0.8037  0.2239
  285MOL   C10740435   4.849   7.713   4.463 -0.6356  0.1721 -0.4030
  285MOL   C10840436   4.831   7.860   4.486  0.2539  0.5953 -0.4926
  285MOL   C10940437   4.692   7.894   4.447  0.4023 -0.4152  0.1959
  285MOL   N11040438   4.582   7.912   4.418 -0.0294 -0.8261 -0.3910
  285MOL   H11140439   4.831   7.689   4.359 -1.5462  0.3853 -0.2942
  285MOL   H11240440   4.777   7.661   4.526  0.4431  0.3099  0.9728
  285MOL   H11340441   4.909   7.913   4.432  2.3701  0.8495  2.6143
  285MOL   C11440442   4.843   7.892   4.639  0.1256  0.3441  0.0201
  285MOL   C11540443   4.896   8.040   4.682 -0.1034  0.2424  0.9752
  285MOL   C11640444   4.814   8.156   4.631  0.0330  0.0749  0.3001
  285MOL   N11740445   4.744   8.240   4.591 -0.2890 -0.0749  0.8266
  285MOL   H11840446   4.747   7.878   4.688  1.1060  1.5355  2.3526
  285MOL   H11940447   4.905   7.817   4.688 -0.4756  0.3342  0.7752
  285MOL   H12040448   4.992   8.073   4.644 -1.4274  1.8598 -1.1102
  285MOL   C12140449   4.922   8.050   4.833 -0.1938  0.2714 -0.0462
  285MOL   C12240450   5.041   7.969   4.890 -0.3153  0.3856 -0.3327
  285MOL   C12340451   5.174   8.013   4.836 -0.5301  0.3606  0.3907
  285MOL   N12440452   5.276   8.050   4.787 -0.4373 -0.7108 -1.0357
  285MOL   H12540453   4.937   8.150   4.873 -3.3229  0.3559  1.0609
  285MOL   H12640454   4.830   8.020   4.884  0.9671 -0.1584  1.8766
  285MOL   H12740455   5.018   7.864   4.871 -0.1991  0.4532 -0.8766
  285MOL   C12840456   5.051   7.961   5.046 -0.3183 -0.0188  0.2768
  285MOL   C12940457   5.025   7.828   5.116  0.0592 -0.4645  0.2975
  285MOL   C13040458   4.897   7.768   5.093 -0.2599 -0.4538  0.5140
  285MOL   N13140459   4.798   7.721   5.062  0.0443 -0.0730 -0.2910
  285MOL   H13240460   5.144   8.000   5.086 -0.3420  0.5482 -0.2174
  285MOL   H13340461   4.981   8.037   5.080 -0.2948  0.4952 -0.7783
  285MOL   H13440462   5.030   7.844   5.224  0.4330 -2.4976  0.6071
  285MOL   C13540463   5.137   7.733   5.079  0.0052 -0.9695  0.2575
  285MOL   C13640464   5.126   7.609   5.170 -0.4308  0.2147  0.1818
  285MOL   C13740465   5.241   7.525   5.151 -0.0591 -0.0633  0.3427
  285MOL   N13840466   5.332   7.459   5.132  0.4482 -0.4874 -0.4457
  285MOL   H13940467   5.134   7.704   4.974  0.5563  1.9090 -0.5922
  285MOL   H14040468   5.233   7.784   5.086 -0.0574 -0.4886 -2.0758
  285MOL   H14140469   5.043   7.542   5.146 -0.7147  1.1083 -1.4138
  285MOL   H14240470   5.117   7.628   5.277 -0.4485 -1.8836  0.5693
  286MOL     C140471   7.107   0.953   8.008  0.4364 -0.0607  0.1618
  286MOL     C240472   7.229   0.996   8.095  0.0455 -0.0415  0.2465
  286MOL     C340473   7.332   0.899   8.075  0.8531 -0.0015  0.6792
  286MOL     N440474   7.416   0.821   8.054 -0.3795 -0.5797 -0.6453
  286MOL     H540475   7.083   0.848   8.018 -1.1259  0.0695 -1.9649
  286MOL     H640476   7.138   0.977   7.907  0.1857 -2.6158 -0.5465
  286MOL     H740477   7.205   0.976   8.199 -2.5015  1.0722 -0.0932
  286MOL     H840478   7.011   1.000   8.031 -1.0347 -2.9394  0.0161
  286MOL     C940479   7.276   1.141   8.077 -0.8234 -0.5053  0.7504
  286MOL    C1040480   7.175   1.252   8.104 -0.0373  0.0105 -0.2113
  286MOL    C1140481   7.206   1.315   8.238 -0.0850 -0.1268  0.5029
  286MOL    N1240482   7.224   1.365   0.029 -0.0029  0.2847 -0.7576
  286MOL    H1340483   7.366   1.161   8.134 -0.7713 -0.3007  0.5982
  286MOL    H1440484   7.306   1.140   7.972 -3.9169 -1.8565 -0.2095
  286MOL    H1540485   7.085   1.191   8.111  0.6254 -1.3363 -2.6903
  286MOL    C1640486   7.142   1.343   7.987 -0.2007  0.2742  0.0643
  286MOL    C1740487   7.005   1.323   7.928  0.3900 -0.3216 -0.2923
  286MOL    C1840488   6.893   1.342   8.027  0.5265 -0.5065  0.5749
  286MOL    N1940489   6.810   1.350   8.102 -0.6692  0.0026  0.0786
  286MOL    H2040490   7.145   1.447   8.020 -1.3711  0.1772  0.4819
  286MOL    H2140491   7.217   1.332   7.908  0.3289 -0.6367  0.6788
  286MOL    H2240492   7.001   1.217   7.902  0.7387 -1.2425  3.2333
  286MOL    C2340493   6.985   1.416   7.799  0.0552  0.2027  0.1998
  286MOL    C2440494   6.858   1.413   7.715 -0.3569 -0.4037  0.1523
  286MOL    C2540495   6.890   1.460   7.577  0.4362  0.6631 -0.5568
  286MOL    N2640496   6.916   1.499   7.472  0.0461  0.2384 -0.3805
  286MOL    H2740497   7.010   1.518   7.830  0.3253  0.7440 -1.6836
  286MOL    H2840498   7.068   1.396   7.731  1.4334  1.8538  1.3518
  286MOL    H2940499   6.782   1.478   7.757  0.5840  0.4155  0.6037
  286MOL    C3040500   6.799   1.275   7.702 -0.0255  0.1414 -0.3015
  286MOL    C3140501   6.874   1.184   7.602  0.3901 -0.4017 -0.3829
  286MOL    C3240502   7.012   1.159   7.640 -0.1800 -0.3568 -0.2924
  286MOL    N3340503   7.123   1.143   7.668 -0.0108  0.1657  0.5721
  286MOL    H3440504   6.792   1.221   7.796  1.9862  1.4728  0.6628
  286MOL    H3540505   6.694   1.282   7.674 -1.0064 -1.9846  2.6288
  286MOL    H3640506   6.885   1.240   7.510 -0.0547 -1.0638 -0.8433
  286MOL    C3740507   6.802   1.053   7.563  0.5484  0.4305 -0.3600
  286MOL    C3840508   6.688   1.084   7.457  0.5168 -0.5567 -0.4767
  286MOL    C3940509   6.743   1.159   7.345 -0.4879  0.7150  0.0775
  286MOL    N4040510   6.798   1.219   7.254  0.2984  0.0819 -0.0397
  286MOL    H4140511   6.878   0.993   7.514  0.8833  0.4365  0.1432
  286MOL    H4240512   6.758   1.003   7.650  0.7406  0.5853 -0.1723
  286MOL    H4340513   6.616   1.153   7.501 -0.1700 -0.6603 -1.4083
  286MOL    C4440514   6.608   0.962   7.405 -0.1601 -0.4872 -0.1140
  286MOL    C4540515   6.456   0.996   7.369 -0.5265 -0.3374 -0.1311
  286MOL    C4640516   6.454   1.123   7.292 -0.0233  0.6137 -0.0067
  286MOL    N4740517   6.442   1.221   7.228  0.3506  0.5101 -0.4521
  286MOL    H4840518   6.664   0.917   7.323 -1.2447 -1.4521 -0.3336
  286MOL    H4940519   6.612   0.890   7.485 -3.8065  0.8983  1.4467
  286MOL    H5040520   6.401   1.025   7.458 -2.3879  1.8468 -1.9375
  286MOL    C5140521   6.381   0.878   7.298  0.7131 -0.4326 -0.2907
  286MOL    C5240522   6.384   0.750   7.384 -0.6377 -0.4191  0.2503
  286MOL    C5340523   6.375   0.784   7.529  0.2553  0.5400  1.1033
  286MOL    N5440524   6.367   0.806   7.640 -0.2332 -0.2168  0.5384
  286MOL    H5540525   6.279   0.909   7.274  0.0721 -0.7151  1.9748
  286MOL    H5640526   6.446   0.850   7.216 -0.4754 -2.0448 -0.7080
  286MOL    H5740527   6.482   0.703   7.377 -0.4019 -0.0766  1.2050
  286MOL    C5840528   6.269   0.643   7.354 -0.9130 -0.4092  0.4586
  286MOL    C5940529   6.287   0.544   7.242 -0.5714 -0.0241  0.7247
  286MOL    C6040530   6.416   0.478   7.242  0.1176  0.1675  0.6429
  286MOL    N6140531   6.519   0.422   7.230  0.5137 -0.0125  0.0529
  286MOL    H6240532   6.243   0.588   7.445  1.2673 -2.4889 -0.1116
  286MOL    H6340533   6.174   0.691   7.332 -1.3739 -0.7280  1.7287
  286MOL    H6440534   6.285   0.624   7.168 -2.0246  0.2136  1.0014
  286MOL    C6540535   6.164   0.452   7.219 -0.2828  0.5514 -0.4392
  286MOL    C6640536   6.174   0.372   7.087  0.5243 -0.2416 -0.3906
  286MOL    C6740537   6.081   0.259   7.096 -0.4884 -0.5180 -0.3900
  286MOL    N6840538   6.017   0.167   7.102 -0.1867 -1.1187 -0.3078
  286MOL    H6940539   6.158   0.385   7.305 -0.9280  0.4706 -0.5473
  286MOL    H7040540   6.071   0.509   7.218  1.2870  3.2479  1.2454
  286MOL    H7140541   6.271   0.322   7.086  0.0850 -1.1401  0.9214
  286MOL    C7240542   6.157   0.466   6.960 -0.4189 -0.1927 -0.0618
  286MOL    C7340543   6.145   0.399   6.818 -0.1145  0.9292 -0.2309
  286MOL    C7440544   6.262   0.301   6.816  0.7106 -0.0676 -0.3717
  286MOL    N7540545   6.345   0.216   6.821  0.0290 -0.3370  0.3558
  286MOL    H7640546   6.072   0.530   6.979 -0.6543 -1.1403  2.3122
  286MOL    H7740547   6.237   0.540   6.961 -1.2519  0.6937  1.5438
  286MOL    H7840548   6.155   0.466   6.733 -2.6222  2.3264  0.5085
  286MOL    C7940549   6.005   0.341   6.803 -0.1398 -0.1773  0.3962
  286MOL    C8040550   5.968   0.294   6.658  0.3297 -0.0603  0.2947
  286MOL    C8140551   5.830   0.251   6.646  0.3510  0.2799  0.2365
  286MOL    N8240552   5.719   0.217   6.638 -0.5165 -0.4632 -0.0160
  286MOL    H8340553   5.978   0.259   6.870 -2.3308  0.8003  0.7697
  286MOL    H8440554   5.935   0.422   6.826 -1.5292 -0.2660 -3.0629
  286MOL    H8540555   6.018   0.197   6.660 -1.4694 -1.0228  3.1056
  286MOL    C8640556   6.019   0.376   6.539  0.0036  0.1298  0.3205
  286MOL    C8740557   5.982   0.337   6.395  0.2002 -0.1066 -0.1439
  286MOL    C8840558   5.842   0.353   6.358 -0.2859  0.2316 -0.4190
  286MOL    N8940559   5.726   0.357   6.325  0.1742  0.1915 -0.0904
  286MOL    H9040560   5.977   0.475   6.559  0.2935  0.3017  0.0841
  286MOL    H9140561   6.127   0.383   6.551  0.0156 -0.0578  0.3264
  286MOL    H9240562   6.012   0.234   6.377 -0.0836 -0.8353  3.2141
  286MOL    C9340563   6.056   0.428   6.297  0.4786 -0.3576  0.8346
  286MOL    C9440564   6.087   0.379   6.154 -0.0327 -0.0051  0.1146
  286MOL    C9540565   5.976   0.296   6.097 -0.2729 -0.2330 -0.4440
  286MOL    N9640566   5.886   0.235   6.058 -0.8164 -0.2813  0.6690
  286MOL    H9740567   5.995   0.517   6.282  0.0604 -0.8068 -0.1721
  286MOL    H9840568   6.154   0.454   6.336  0.2137 -0.1933  1.3954
  286MOL    H9940569   6.164   0.302   6.168 -1.6284 -1.5141  0.8320
  286MOL   C10040570   6.120   0.492   6.052 -0.4628 -1.0882 -0.1793
  286MOL   C10140571   6.244   0.572   6.093  0.8360  0.3023 -0.3807
  286MOL   C10240572   6.365   0.485   6.107  0.2839  0.0033  0.6913
  286MOL   N10340573   6.459   0.417   6.120  0.1903 -0.1161 -0.4949
  286MOL   H10440574   6.128   0.452   5.951  0.6501 -0.6672 -0.2707
  286MOL   H10540575   6.032   0.556   6.043  0.5737  0.1839 -1.5721
  286MOL   H10640576   6.239   0.613   6.194 -0.6264 -0.8631  0.0342
  286MOL   C10740577   6.269   0.698   5.996  0.0209  0.1296 -0.1107
  286MOL   C10840578   6.304   0.661   5.852 -0.0547  0.4777 -0.1528
  286MOL   C10940579   6.195   0.624   5.772  0.2399  0.1627  0.2153
  286MOL   N11040580   6.105   0.598   5.699 -0.4503 -0.0027 -0.0272
  286MOL   H11140581   6.184   0.766   5.996  0.8586  1.2004  1.6566
  286MOL   H11240582   6.359   0.742   6.039  0.4342 -0.4396 -0.3954
  286MOL   H11340583   6.363   0.569   5.860 -1.8232 -0.5566  1.0657
  286MOL   C11440584   6.397   0.758   5.778  0.3415 -0.3276  0.1366
  286MOL   C11540585   6.335   0.865   5.689  0.9456  0.4018  0.6404
  286MOL   C11640586   6.219   0.924   5.759 -0.4839 -0.5162  0.1637
  286MOL   N11740587   6.130   0.976   5.812 -0.2154 -0.0131  0.2112
  286MOL   H11840588   6.463   0.805   5.849  1.2984 -0.0585 -0.9123
  286MOL   H11940589   6.473   0.705   5.721  0.5110 -0.1336  0.1842
  286MOL   H12040590   6.285   0.812   5.607  2.2740 -3.1524  2.0609
  286MOL   C12140591   6.443   0.948   5.639  0.3653 -0.1295 -0.0728
  286MOL   C12240592   6.411   1.062   5.539  0.3546 -0.6752 -0.5629
  286MOL   C12340593   6.319   1.160   5.601 -0.5965  0.4255  0.5929
  286MOL   N12440594   6.254   1.234   5.657  0.3373 -0.5698  0.0769
  286MOL   H12540595   6.494   0.996   5.722  0.3141 -2.6530  1.4398
  286MOL   H12640596   6.521   0.891   5.588 -0.9719  0.7714 -3.2430
  286MOL   H12740597   6.362   1.019   5.452  2.0311  1.0203 -2.4075
  286MOL   C12840598   6.551   1.131   5.498  0.3818 -0.0256 -0.0395
  286MOL   C12940599   6.545   1.250   5.400 -0.0553  0.1686 -0.2906
  286MOL   C13040600   6.452   1.222   5.289 -0.1918  0.3160 -1.3996
  286MOL   N13140601   6.384   1.191   5.203 -0.3629 -0.3476 -0.8216
  286MOL   H13240602   6.620   1.149   5.580 -0.5749  0.1441  0.7317
  286MOL   H13340603   6.604   1.048   5.451 -0.5860 -1.3573  1.1520
  286MOL   H13440604   6.645   1.260   5.357 -0.3225  0.1520 -0.9235
  286MOL   C13540605   6.505   1.389   5.466 -0.0093 -0.0161 -0.7899
  286MOL   C13640606   6.478   1.514   5.374  0.1182 -0.0394 -0.2776
  286MOL   C13740607   6.577   1.540   5.270 -0.7732 -0.2739  0.5507
  286MOL   N13840608   6.657   1.557   5.189  0.5308  0.1242  0.0788
  286MOL   H13940609   6.413   1.360   5.516  0.6890  0.0048  0.5279
  286MOL   H14040610   6.580   1.409   5.542  0.0439 -1.6382 -0.3937
  286MOL   H14140611   6.462   1.607   5.430 -0.8713 -0.5946  0.3882
  286MOL   H14240612   6.386   1.505   5.315  0.4148 -1.1367 -0.5889
  287MOL     C140613   3.767   1.763   1.764 -0.2287  0.5976 -0.2062
  287MOL     C240614   3.641   1.702   1.701  0.5125 -0.0495  0.1556
  287MOL     C340615   3.576   1.809   1.634  0.0522  0.3557  0.7216
  287MOL     N440616   3.524   1.897   1.579 -0.0541  0.1397  0.4245
  287MOL     H540617   3.734   1.820   1.851 -0.5922  0.5513 -0.3136
  287MOL     H640618   3.820   1.832   1.698 -1.7448  0.8000 -1.2577
  287MOL     H740619   3.566   1.678   1.776 -0.5769 -0.6735 -1.1241
  287MOL     H840620   3.828   1.688   1.814 -0.5292  0.2956 -0.2911
  287MOL     C940621   3.666   1.586   1.601  0.6478 -0.3623  0.4708
  287MOL    C1040622   3.700   1.458   1.670 -0.8351  0.0178  0.0098
  287MOL    C1140623   3.590   1.427   1.766 -0.3094 -0.3989  0.0757
  287MOL    N1240624   3.509   1.399   1.843  0.3820  0.5299  0.5801
  287MOL    H1340625   3.577   1.577   1.539  2.1276  1.4928 -2.0233
  287MOL    H1440626   3.740   1.622   1.529  0.5604 -0.9747  0.0707
  287MOL    H1540627   3.783   1.489   1.733  0.4084 -2.3232 -0.4099
  287MOL    C1640628   3.741   1.335   1.589 -0.3925 -0.3073  0.3207
  287MOL    C1740629   3.758   1.207   1.672 -0.6612  1.1448  0.9393
  287MOL    C1840630   3.779   1.084   1.590 -0.6779  0.2107 -0.1402
  287MOL    N1940631   3.794   0.984   1.531 -0.3978 -0.3143 -0.1340
  287MOL    H2040632   3.665   1.303   1.517  0.8798  0.3043 -1.3305
  287MOL    H2140633   3.838   1.349   1.541 -0.6643 -0.4355 -0.2788
  287MOL    H2240634   3.666   1.184   1.726 -0.4109 -1.7094  0.2373
  287MOL    C2340635   3.879   1.222   1.775 -0.2297  0.4240  0.6670
  287MOL    C2440636   3.887   1.124   1.893 -0.1771  0.6130 -0.3055
  287MOL    C2540637   3.770   1.133   1.978 -0.9236  0.2932  0.7207
  287MOL    N2640638   3.676   1.131   2.043 -0.4600 -0.5216 -0.7135
  287MOL    H2740639   3.963   1.215   1.706  1.2789  0.5652  2.4526
  287MOL    H2840640   3.884   1.325   1.810  3.2398  0.8459 -0.8312
  287MOL    H2940641   3.965   1.164   1.958 -0.9181  2.7537 -0.6741
  287MOL    C3040642   3.923   0.982   1.864  0.0458  0.3239  0.3190
  287MOL    C3140643   4.044   0.973   1.782  0.4899  0.5370 -0.4479
  287MOL    C3240644   4.157   1.049   1.831  0.0299  0.0763 -0.6924
  287MOL    N3340645   4.256   1.102   1.875  0.1469  0.0749  0.3147
  287MOL    H3440646   3.941   0.938   1.963 -1.0271  1.4286  1.0199
  287MOL    H3540647   3.838   0.945   1.806  1.0951 -1.1784 -0.2952
  287MOL    H3640648   4.029   1.012   1.681 -0.1650 -1.2832 -1.0907
  287MOL    C3740649   4.090   0.820   1.757  0.9775 -0.8465  0.4349
  287MOL    C3840650   4.217   0.805   1.666 -0.0607  0.1688  0.0654
  287MOL    C3940651   4.348   0.841   1.734  0.1839  0.2757 -0.1806
  287MOL    N4040652   4.450   0.859   1.779  0.1381 -1.0120 -0.6352
  287MOL    H4140653   4.106   0.761   1.847  1.5728 -0.4259  0.6102
  287MOL    H4240654   4.008   0.779   1.698  0.0640  1.3056  0.1548
  287MOL    H4340655   4.205   0.880   1.588  1.9940  1.5634  1.0545
  287MOL    C4440656   4.223   0.666   1.596  0.4216 -0.3676 -0.4458
  287MOL    C4540657   4.131   0.642   1.467  0.2580 -0.8052  1.0230
  287MOL    C4640658   3.994   0.609   1.500  0.3283 -0.6113 -0.4754
  287MOL    N4740659   3.885   0.582   1.521 -0.3401 -0.4566 -0.1500
  287MOL    H4840660   4.322   0.659   1.550  0.7811  0.4045  0.2015
  287MOL    H4940661   4.222   0.582   1.665 -0.1402  0.7895  0.9890
  287MOL    H5040662   4.155   0.550   1.414  3.4681  0.6943 -0.2938
  287MOL    C5140663   4.152   0.759   1.357  0.1174  0.1181  0.0445
  287MOL    C5240664   4.294   0.771   1.294 -0.0481  0.0004  0.6858
  287MOL    C5340665   4.342   0.639   1.251  0.2494 -0.0171  0.3836
  287MOL    N5440666   4.377   0.533   1.215 -0.1524 -0.2127 -0.5469
  287MOL    H5540667   4.086   0.731   1.275 -2.2256  1.2547  1.4993
  287MOL    H5640668   4.131   0.857   1.399 -1.4766 -0.5092  0.7391
  287MOL    H5740669   4.371   0.793   1.368  1.0566 -1.7885  0.1230
  287MOL    C5840670   4.307   0.870   1.180  0.3861  0.7634 -0.2067
  287MOL    C5940671   4.325   1.018   1.230 -0.1770  0.1209 -0.0906
  287MOL    C6040672   4.444   1.026   1.326 -0.1392  0.6730  0.3171
  287MOL    N6140673   4.536   1.032   1.398 -0.6837  0.1861 -0.0717
  287MOL    H6240674   4.390   0.839   1.116 -0.0816 -2.3270  0.5910
  287MOL    H6340675   4.217   0.868   1.118  0.0886  0.5004  0.2329
  287MOL    H6440676   4.242   1.048   1.295 -1.8101 -1.0453 -1.5859
  287MOL    C6540677   4.342   1.111   1.102  0.2301 -0.1320 -0.0894
  287MOL    C6640678   4.214   1.166   1.039  0.1678 -0.1774  0.0489
  287MOL    C6740679   4.135   1.241   1.137 -0.3940 -0.6652 -0.1370
  287MOL    N6840680   4.063   1.293   1.214  0.1163  0.3711 -0.0014
  287MOL    H6940681   4.404   1.197   1.129  0.7370 -0.5068 -0.0733
  287MOL    H7040682   4.392   1.058   1.022 -2.0470 -2.9028  0.2472
  287MOL    H7140683   4.149   1.084   1.008 -1.4388  0.9044  0.4857
  287MOL    C7240684   4.242   1.259   0.922 -0.6199  0.0202 -0.0226
  287MOL    C7340685   4.289   1.197   0.786 -0.2711  0.6946  0.8243
  287MOL    C7440686   4.193   1.095   0.738  0.1070 -0.5821 -0.1607
  287MOL    N7540687   4.120   1.018   0.701 -0.1974  0.0527 -0.2042
  287MOL    H7640688   4.163   1.334   0.912  1.1250  1.9665  0.3104
  287MOL    H7740689   4.317   1.323   0.968  1.5803 -1.8903 -0.8657
  287MOL    H7840690   4.372   1.132   0.813 -1.6699 -0.5648  2.2466
  287MOL    C7940691   4.335   1.308   0.692  0.8001  0.1827 -0.5199
  287MOL    C8040692   4.434   1.269   0.583 -0.1555  0.0507 -0.4680
  287MOL    C8140693   4.358   1.184   0.486  0.1852 -0.7461 -0.3892
  287MOL    N8240694   4.295   1.117   0.412 -0.7155 -0.5804 -0.1993
  287MOL    H8340695   4.248   1.344   0.638 -0.1224 -1.5870 -0.2480
  287MOL    H8440696   4.370   1.398   0.741 -1.1880  0.7836 -0.1701
  287MOL    H8540697   4.504   1.190   0.611 -1.4567 -0.8392  0.3261
  287MOL    C8640698   4.503   1.385   0.510 -0.2993 -1.1049  0.2478
  287MOL    C8740699   4.653   1.408   0.551  0.0085  0.1806  0.1367
  287MOL    C8840700   4.735   1.288   0.570  0.6616  0.1682 -0.4723
  287MOL    N8940701   4.799   1.197   0.590  0.0574 -0.6945  0.0628
  287MOL    H9040702   4.501   1.362   0.404  0.2616 -2.2923  0.4836
  287MOL    H9140703   4.451   1.480   0.524  0.6603 -0.0242 -3.1654
  287MOL    H9240704   4.654   1.464   0.644  0.2879 -0.8031  0.7387
  287MOL    C9340705   4.729   1.509   0.467 -0.2915  0.5618 -0.1977
  287MOL    C9440706   4.693   1.650   0.473  0.0273 -0.2963 -0.2084
  287MOL    C9540707   4.717   1.706   0.610 -0.4202 -0.0716  0.0758
  287MOL    N9640708   4.741   1.750   0.714  0.1083 -1.0045 -0.1817
  287MOL    H9740709   4.836   1.501   0.489 -0.2122  0.9664 -0.4372
  287MOL    H9840710   4.725   1.475   0.363 -1.0271 -0.3790  0.1305
  287MOL    H9940711   4.586   1.666   0.456  0.0750 -0.3253 -0.5255
  287MOL   C10040712   4.750   1.739   0.365 -0.2524  0.3053 -0.2608
  287MOL   C10140713   4.720   1.887   0.383 -0.0553  0.1978 -0.2979
  287MOL   C10240714   4.805   1.973   0.464  0.0237 -0.7964  0.0641
  287MOL   N10340715   4.876   2.048   0.524  0.3116  0.4875 -0.0017
  287MOL   H10440716   4.857   1.721   0.359 -0.4095 -0.5655 -0.5720
  287MOL   H10540717   4.714   1.692   0.273 -0.0556  0.3780 -0.3763
  287MOL   H10640718   4.619   1.888   0.422 -0.0517 -1.5838 -0.2167
  287MOL   C10740719   4.731   1.959   0.246 -0.0289  0.1671 -0.5338
  287MOL   C10840720   4.633   1.916   0.141  0.3125 -0.1068 -0.0341
  287MOL   C10940721   4.522   1.854   0.210 -0.2237  0.4526 -0.1265
  287MOL   N11040722   4.431   1.802   0.263  0.0735  0.1252  0.2065
  287MOL   H11140723   4.726   2.066   0.263 -0.0675  0.2818 -1.2622
  287MOL   H11240724   4.830   1.953   0.199 -0.2095 -0.2401 -0.8667
  287MOL   H11340725   4.668   1.839   0.071 -2.1201 -0.7746 -0.5516
  287MOL   C11440726   4.589   2.040   0.056 -0.0262 -0.6461  0.6323
  287MOL   C11540727   4.478   2.031   8.265 -0.0067  0.5317 -0.7115
  287MOL   C11640728   4.490   1.917   8.178 -0.3680 -0.4330 -0.5200
  287MOL   N11740729   4.495   1.827   8.108  0.0593  0.0542  0.2234
  287MOL   H11840730   4.547   2.115   0.124  1.1072 -0.4734  1.1507
  287MOL   H11940731   4.675   2.085   0.007 -0.7832  0.9660  0.7458
  287MOL   H12040732   4.491   2.124   8.208 -2.4019  2.8429  2.3295
  287MOL   C12140733   4.337   2.036   0.015 -0.9761  0.2915 -0.3970
  287MOL   C12240734   4.250   2.125   8.240 -0.7206  0.2636 -0.1992
  287MOL   C12340735   4.201   2.050   8.118 -0.1975  0.0769  0.5937
  287MOL   N12440736   4.159   1.986   8.033 -0.2312  0.0825 -0.4958
  287MOL   H12540737   4.292   1.941   0.043 -0.8735 -0.2769 -2.0960
  287MOL   H12640738   4.337   2.099   0.104  1.4961  0.7391 -0.6689
  287MOL   H12740739   4.308   2.212   8.210  1.1204 -0.8070  0.1317
  287MOL   C12840740   4.131   2.178   0.007 -0.2613  0.9551  0.0395
  287MOL   C12940741   4.145   2.325   0.055  0.8283  0.2848 -0.3335
  287MOL   C13040742   4.138   2.415   8.251  0.4590  0.6428  0.2677
  287MOL   N13140743   4.128   2.483   8.154  0.2473  0.5351 -0.2278
  287MOL   H13240744   4.043   2.176   8.255  0.2232 -0.7741 -0.5998
  287MOL   H13340745   4.094   2.118   0.090 -1.2277 -1.1875 -1.8871
  287MOL   H13440746   4.247   2.335   0.093  0.7340  3.0908 -0.7119
  287MOL   C13540747   4.037   2.370   0.159 -0.2394 -0.8343  0.4582
  287MOL   C13640748   3.888   2.338   0.124  0.4499 -0.0162 -0.0947
  287MOL   C13740749   3.830   2.431   0.025  0.4335  0.2085  0.0810
  287MOL   N13840750   3.782   2.503   8.262 -0.5770 -0.0769  0.4235
  287MOL   H13940751   4.052   2.307   0.247 -0.3796  0.4634  1.4176
  287MOL   H14040752   4.056   2.473   0.188 -0.4194 -0.9379  0.9511
  287MOL   H14140753   3.821   2.342   0.210  0.8485 -0.9456  0.2585
  287MOL   H14240754   3.885   2.238   0.083 -0.1656  0.0821 -0.2843
  288MOL     C140755   4.371   3.852   0.485  0.5402  0.5412 -0.4487
  288MOL     C240756   4.306   3.911   0.362 -0.4400  0.1915  0.1232
  288MOL     C340757   4.232   3.802   0.299  0.1305  0.3996  0.3534
  288MOL     N440758   4.168   3.715   0.254 -0.1202 -0.4076 -0.1916
  288MOL     H540759   4.409   3.750   0.478 -1.5249 -0.2090 -1.2148
  288MOL     H640760   4.305   3.861   0.571 -0.9407 -1.4682 -1.3314
  288MOL     H740761   4.390   3.929   0.294  0.2275 -0.9689  0.6360
  288MOL     H840762   4.460   3.906   0.516  1.8973 -1.7631 -0.2387
  288MOL     C940763   4.226   4.038   0.394 -0.3939  0.4170 -0.5288
  288MOL    C1040764   4.273   4.143   0.282  0.2865  0.0677 -0.1606
  288MOL    C1140765   4.233   4.090   0.155 -0.6729 -0.6531  0.0994
  288MOL    N1240766   4.198   4.041   0.056  0.0939  1.0511  0.8791
  288MOL    H1340767   4.119   4.018   0.388 -0.6817  1.7176  0.1061
  288MOL    H1440768   4.250   4.073   0.494  0.9270 -1.9750  0.0091
  288MOL    H1540769   4.382   4.151   0.273  0.3843 -1.1228 -0.1132
  288MOL    C1640770   4.215   4.287   0.295  0.4272 -0.0501 -0.4364
  288MOL    C1740771   4.259   4.360   0.425 -0.5347 -0.2731 -0.9135
  288MOL    C1840772   4.403   4.386   0.436 -0.9779 -0.3328  0.1147
  288MOL    N1940773   4.517   4.406   0.436  0.2983  0.7289  0.1630
  288MOL    H2040774   4.251   4.354   0.217  0.1518  0.6604  0.0393
  288MOL    H2140775   4.106   4.285   0.295  0.4335 -0.4484 -0.7567
  288MOL    H2240776   4.238   4.292   0.507  4.4566  0.7389  1.4246
  288MOL    C2340777   4.163   4.485   0.442 -0.3412  0.1843  0.2299
  288MOL    C2440778   4.189   4.584   0.562  0.0854 -0.2283  0.2348
  288MOL    C2540779   4.107   4.706   0.559  0.2745  0.0754 -0.0280
  288MOL    N2640780   4.046   4.805   0.559  0.2485  0.2166 -0.0770
  288MOL    H2740781   4.171   4.539   0.348 -0.1588  1.1081  0.7665
  288MOL    H2840782   4.059   4.451   0.439  0.4992 -2.3608 -2.9636
  288MOL    H2940783   4.289   4.627   0.551 -0.1837  0.0180 -1.3584
  288MOL    C3040784   4.169   4.518   0.696  0.0840 -0.0819 -0.1660
  288MOL    C3140785   4.182   4.621   0.827 -0.7592  0.2707  0.3522
  288MOL    C3240786   4.284   4.722   0.808 -0.0714  0.0852  0.0126
  288MOL    N3340787   4.362   4.805   0.793  0.0609 -0.0463  0.1682
  288MOL    H3440788   4.070   4.474   0.709  0.2032 -0.0084  0.9701
  288MOL    H3540789   4.237   4.433   0.697  1.6387  1.1439 -0.3107
  288MOL    H3640790   4.219   4.556   0.906  1.3627  0.8760 -0.0837
  288MOL    C3740791   4.051   4.675   0.880  0.1475  0.1360  0.0297
  288MOL    C3840792   3.966   4.568   0.955  0.2209 -0.0656 -0.2330
  288MOL    C3940793   4.026   4.522   1.073 -0.2133 -0.2980  0.3409
  288MOL    N4040794   4.068   4.480   1.174  0.0659 -0.3455  0.4867
  288MOL    H4140795   4.075   4.762   0.941  1.4642 -0.8646  0.9632
  288MOL    H4240796   3.990   4.720   0.801 -0.9020 -0.1379  0.6789
  288MOL    H4340797   3.959   4.473   0.902  1.3313 -1.1301  1.4810
  288MOL    C4440798   3.823   4.623   0.970  0.4559 -0.5306  0.0813
  288MOL    C4540799   3.727   4.519   1.038 -0.1884  0.3056  0.0687
  288MOL    C4640800   3.758   4.470   1.173  0.4614 -0.0030 -0.3290
  288MOL    N4740801   3.777   4.438   1.280 -0.1967 -0.3637 -0.3922
  288MOL    H4840802   3.830   4.708   1.038 -1.4982  0.1525 -0.5447
  288MOL    H4940803   3.792   4.660   0.872 -1.0087 -4.0291 -0.8224
  288MOL    H5040804   3.752   4.431   0.979  0.4185  1.0855 -0.8620
  288MOL    C5140805   3.581   4.551   1.017  0.8800  0.1802 -0.5660
  288MOL    C5240806   3.474   4.470   1.096  0.1088  0.5253 -0.2958
  288MOL    C5340807   3.500   4.326   1.081 -0.4179 -0.6883 -0.4686
  288MOL    N5440808   3.530   4.216   1.074 -0.2519 -0.0715 -0.2938
  288MOL    H5540809   3.560   4.653   1.047  0.6916  0.2184 -0.8313
  288MOL    H5640810   3.562   4.551   0.910 -0.4845  0.2505 -0.3334
  288MOL    H5740811   3.384   4.500   1.044 -0.1153  1.1751  0.4488
  288MOL    C5840812   3.448   4.511   1.241  0.0236 -0.1478 -0.8368
  288MOL    C5940813   3.366   4.418   1.337  0.7295  0.0667 -1.1487
  288MOL    C6040814   3.370   4.477   1.472  0.0109  0.6654  0.0877
  288MOL    N6140815   3.378   4.522   1.578 -0.1663 -0.6371  0.2819
  288MOL    H6240816   3.540   4.534   1.294 -0.3496 -1.7785  0.5716
  288MOL    H6340817   3.401   4.607   1.224  0.9418  0.4158 -0.2165
  288MOL    H6440818   3.417   4.323   1.347 -0.7480 -0.7044 -0.8055
  288MOL    C6540819   3.216   4.402   1.288  0.0216 -0.3269 -0.1062
  288MOL    C6640820   3.135   4.537   1.279 -1.1397  0.2689 -0.3460
  288MOL    C6740821   3.178   4.624   1.168  0.6120  0.8161 -0.4717
  288MOL    N6840822   3.210   4.690   1.084 -0.0144 -0.0607  0.2495
  288MOL    H6940823   3.224   4.344   1.196 -1.4929 -0.3607 -0.2263
  288MOL    H7040824   3.160   4.333   1.351  0.6686 -0.3718  0.4247
  288MOL    H7140825   3.164   4.603   1.360  0.0734 -0.5906 -0.0666
  288MOL    C7240826   2.984   4.520   1.289 -0.3731 -0.2267 -0.0532
  288MOL    C7340827   2.914   4.550   1.421  0.5811 -0.1064 -1.4769
  288MOL    C7440828   2.977   4.463   1.524  0.4773 -0.0174 -0.1723
  288MOL    N7540829   3.023   4.393   1.605 -0.2323 -0.0585 -0.2492
  288MOL    H7640830   2.924   4.574   1.215 -0.0450  0.2379  0.0206
  288MOL    H7740831   2.956   4.418   1.262 -1.1667 -0.0523  0.0715
  288MOL    H7840832   2.811   4.514   1.417  0.2053  0.6062  0.9125
  288MOL    C7940833   2.896   4.699   1.461 -0.3089 -0.5171  0.0565
  288MOL    C8040834   2.870   4.739   1.609 -0.0972  0.1531 -0.9367
  288MOL    C8140835   2.885   4.891   1.620  0.0824 -0.0432 -0.1203
  288MOL    N8240836   2.899   5.006   1.630 -0.4274  0.0916 -0.0283
  288MOL    H8340837   2.998   4.731   1.436 -0.6139 -0.2620 -0.8843
  288MOL    H8440838   2.828   4.744   1.389  0.4460  2.0911  0.9362
  288MOL    H8540839   2.933   4.691   1.684  0.2207  1.1569 -0.5453
  288MOL    C8640840   2.724   4.699   1.646  0.1990  0.1645  0.7501
  288MOL    C8740841   2.685   4.706   1.792 -0.4417 -0.0774  0.0638
  288MOL    C8840842   2.762   4.604   1.868  0.6003  0.1229  0.2248
  288MOL    N8940843   2.828   4.524   1.927 -0.2275  0.5299 -1.0622
  288MOL    H9040844   2.662   4.759   1.580  3.7467  0.4944 -2.4611
  288MOL    H9140845   2.702   4.600   1.607  1.7128  0.0418  0.1787
  288MOL    H9240846   2.586   4.661   1.801 -0.9161  1.1726  1.2004
  288MOL    C9340847   2.683   4.846   1.853  0.6993  0.1112  0.0733
  288MOL    C9440848   2.637   4.853   2.005 -0.3450  0.8894 -0.0126
  288MOL    C9540849   2.727   4.950   2.071 -0.3066  0.3333 -0.3841
  288MOL    N9640850   2.794   5.031   2.122 -0.0262 -0.1624 -0.3650
  288MOL    H9740851   2.789   4.872   1.853  0.9094 -0.7224  0.0987
  288MOL    H9840852   2.627   4.921   1.799  0.8503  0.6456  0.6540
  288MOL    H9940853   2.638   4.756   2.056 -3.0012  0.0020 -1.5507
  288MOL   C10040854   2.487   4.903   2.005 -0.0524  0.4182  0.0651
  288MOL   C10140855   2.420   4.900   2.141 -0.2292 -0.1739 -0.6285
  288MOL   C10240856   2.487   4.958   2.253 -0.3079 -0.3156  0.6938
  288MOL   N10340857   2.539   5.005   2.351  0.4136  0.1976  0.0101
  288MOL   H10440858   2.488   4.997   1.950  1.3753 -0.2750 -1.1315
  288MOL   H10540859   2.425   4.830   1.953 -0.4964 -0.2512  1.5096
  288MOL   H10640860   2.401   4.794   2.157  0.4202 -0.5812 -2.4739
  288MOL   C10740861   2.285   4.971   2.141  0.1445  0.1598  0.6707
  288MOL   C10840862   2.176   4.901   2.055 -0.6050  0.3338  0.0642
  288MOL   C10940863   2.132   4.778   2.121  0.0943 -0.1207  0.3470
  288MOL   N11040864   2.098   4.679   2.167 -0.3874  0.1465 -0.2905
  288MOL   H11140865   2.255   4.973   2.245 -0.8595 -1.1532  0.4247
  288MOL   H11240866   2.298   5.072   2.103 -1.0844  0.0019 -0.1944
  288MOL   H11340867   2.220   4.875   1.959  1.1350  0.4845  0.8096
  288MOL   C11440868   2.050   4.982   2.029  0.0967 -0.3185 -0.4755
  288MOL   C11540869   1.940   4.984   2.139  0.2451 -0.4883  0.3338
  288MOL   C11640870   1.987   5.037   2.267  0.2745 -0.4643 -0.3178
  288MOL   N11740871   2.020   5.073   2.373 -0.2581  0.1095  0.4415
  288MOL   H11840872   2.072   5.081   1.989  1.0835 -0.1909  0.3476
  288MOL   H11940873   2.007   4.941   1.938  1.0146 -1.2372 -0.5013
  288MOL   H12040874   1.901   4.884   2.155 -0.9126 -0.3775 -1.6589
  288MOL   C12140875   1.818   5.064   2.088 -0.1954 -0.1417 -0.5282
  288MOL   C12240876   1.677   5.068   2.159  0.2298 -0.1706 -0.2258
  288MOL   C12340877   1.681   5.147   2.279  0.1736 -0.1246  0.3804
  288MOL   N12440878   1.680   5.217   2.373 -0.3257  0.7120 -0.6593
  288MOL   H12540879   1.845   5.166   2.060  0.2008 -0.1547 -0.2055
  288MOL   H12640880   1.789   5.017   1.994 -0.6721  0.7196 -0.8237
  288MOL   H12740881   1.657   4.965   2.190 -0.4116 -0.6703 -2.2202
  288MOL   C12840882   1.566   5.122   2.069 -0.1262  0.1309  0.4943
  288MOL   C12940883   1.523   5.025   1.954  0.0197  0.8890 -0.1690
  288MOL   C13040884   1.508   4.890   2.005  0.4742 -0.1786 -0.1280
  288MOL   N13140885   1.494   4.779   2.043  0.5151  0.3398 -0.4825
  288MOL   H13240886   1.481   5.147   2.134  1.3384 -0.2960  2.6261
  288MOL   H13340887   1.596   5.223   2.040  0.6640  0.2627  1.7409
  288MOL   H13440888   1.605   5.036   1.883  0.5651  2.0079  0.6041
  288MOL   C13540889   1.395   5.082   1.892  0.0770 -0.8194 -0.2576
  288MOL   C13640890   1.341   5.009   1.767 -0.1908 -0.0072 -0.1155
  288MOL   C13740891   1.449   4.990   1.672 -0.4284  0.9387  0.0747
  288MOL   N13840892   1.537   4.972   1.600  0.2023  0.2416  0.5483
  288MOL   H13940893   1.325   5.103   1.974  0.2474  1.7816 -0.7259
  288MOL   H14040894   1.419   5.180   1.850  0.5714 -0.1857  1.4366
  288MOL   H14140895   1.282   5.089   1.724  1.3782  0.4773 -1.4161
  288MOL   H14240896   1.290   4.914   1.785 -0.8351 -0.0894 -2.3389
  289MOL     C140897   3.699   3.791   4.815 -0.1570 -0.7322 -0.2457
  289MOL     C240898   3.729   3.769   4.964 -0.4654 -0.0098  0.0340
  289MOL     C340899   3.812   3.874   5.018  0.0055 -0.1919  0.2625
  289MOL     N440900   3.870   3.959   5.068  0.0093 -0.3757 -0.1963
  289MOL     H540901   3.783   3.831   4.757 -1.0631 -2.1950 -2.6661
  289MOL     H640902   3.626   3.871   4.804 -1.8470 -2.6311 -3.5478
  289MOL     H740903   3.790   3.679   4.972  2.7432  2.0699 -0.1361
  289MOL     H840904   3.647   3.704   4.774  1.5719 -1.8265 -0.1668
  289MOL     C940905   3.603   3.740   5.050 -0.1057 -0.0587 -0.0149
  289MOL    C1040906   3.611   3.629   5.152  0.2922  0.0819 -0.8639
  289MOL    C1140907   3.637   3.496   5.097 -0.4116 -0.1717 -0.4530
  289MOL    N1240908   3.655   3.390   5.052  0.7989 -0.4814 -0.2455
  289MOL    H1340909   3.568   3.832   5.096  0.8265  0.1277  0.3370
  289MOL    H1440910   3.529   3.711   4.976  0.8676 -0.7738 -0.7282
  289MOL    H1540911   3.513   3.612   5.197  0.5321 -1.4694 -0.9243
  289MOL    C1640912   3.692   3.661   5.277 -0.3338  0.0701 -0.5201
  289MOL    C1740913   3.701   3.551   5.379  0.2980 -0.5787  0.0420
  289MOL    C1840914   3.787   3.596   5.489 -0.3372  0.4243  0.1272
  289MOL    N1940915   3.851   3.628   5.579 -0.0775  0.1363 -0.4172
  289MOL    H2040916   3.792   3.677   5.239 -0.0842  1.1925  0.5824
  289MOL    H2140917   3.637   3.743   5.324  0.4278  0.5853 -0.5215
  289MOL    H2240918   3.756   3.463   5.346  0.9819 -0.6595  1.3646
  289MOL    C2340919   3.560   3.504   5.426 -0.5533 -0.4433 -0.6431
  289MOL    C2440920   3.548   3.429   5.562  0.6411 -0.3860  0.5349
  289MOL    C2540921   3.648   3.326   5.564  0.4041 -0.1909  0.9902
  289MOL    N2640922   3.732   3.250   5.568 -0.7587  0.3107  0.0020
  289MOL    H2740923   3.512   3.599   5.448  0.6364  0.2590 -1.0419
  289MOL    H2840924   3.523   3.439   5.347  0.8204 -0.1002 -1.5955
  289MOL    H2940925   3.448   3.385   5.558  0.6203 -0.4099  1.2171
  289MOL    C3040926   3.543   3.514   5.692  0.0345  0.0626 -0.0319
  289MOL    C3140927   3.570   3.439   5.821 -0.4337  1.1423 -0.0643
  289MOL    C3240928   3.571   3.531   5.933 -0.5313 -0.0771  0.1534
  289MOL    N3340929   3.573   3.609   6.019 -0.3468  0.5661  0.2388
  289MOL    H3440930   3.614   3.596   5.687  0.4830 -0.1787  2.0667
  289MOL    H3540931   3.445   3.560   5.699  0.1890  0.2641  0.9327
  289MOL    H3640932   3.671   3.398   5.823 -0.8316 -0.0611 -2.7341
  289MOL    C3740933   3.482   3.321   5.833  0.2133 -0.5259 -0.4766
  289MOL    C3840934   3.489   3.258   5.971  0.0008  0.4029 -0.6362
  289MOL    C3940935   3.372   3.166   5.982 -0.1877  0.1903 -0.4815
  289MOL    N4040936   3.279   3.093   5.984  0.3869 -0.2902  0.4185
  289MOL    H4140937   3.383   3.363   5.814  0.1774 -0.2818  0.2231
  289MOL    H4240938   3.509   3.247   5.758  0.2430  0.0616 -1.0494
  289MOL    H4340939   3.484   3.341   6.041  2.3005  1.1629 -1.3369
  289MOL    C4440940   3.611   3.172   6.008  0.4902 -0.3258  0.3330
  289MOL    C4540941   3.633   3.157   6.158 -0.1426  0.2305  0.6220
  289MOL    C4640942   3.527   3.081   6.220 -0.8180  0.0353 -0.2187
  289MOL    N4740943   3.443   3.018   6.272 -0.8913 -0.9278 -0.3099
  289MOL    H4840944   3.602   3.080   5.949  4.6207 -0.4071 -0.3666
  289MOL    H4940945   3.701   3.214   5.962  2.5411 -2.4681  2.2200
  289MOL    H5040946   3.618   3.253   6.207 -0.1762  0.3184  0.4375
  289MOL    C5140947   3.777   3.095   6.176 -0.1624  0.3175 -0.3704
  289MOL    C5240948   3.861   3.175   6.268 -0.0980  0.5254 -0.9358
  289MOL    C5340949   3.977   3.093   6.309 -0.2839  0.5328 -0.2540
  289MOL    N5440950   4.074   3.032   6.339  0.1172  0.3461  0.0071
  289MOL    H5540951   3.774   2.993   6.214  1.6899  0.1307 -0.6850
  289MOL    H5640952   3.834   3.089   6.083  0.8165 -1.5741  0.3066
  289MOL    H5740953   3.813   3.201   6.363  0.6195  0.2495 -0.4954
  289MOL    C5840954   3.907   3.306   6.208  1.0236  0.2823 -0.3035
  289MOL    C5940955   3.986   3.401   6.298  0.3678 -0.2454  0.2955
  289MOL    C6040956   4.128   3.402   6.254  0.7511  0.1323  0.5248
  289MOL    N6140957   4.239   3.408   6.214  0.1685  0.2200 -0.3221
  289MOL    H6240958   3.967   3.277   6.121 -0.4592  0.7032 -1.4901
  289MOL    H6340959   3.820   3.357   6.166 -0.2091 -0.2129  1.5854
  289MOL    H6440960   3.970   3.358   6.397  2.9169 -0.1562  0.7736
  289MOL    C6540961   3.924   3.541   6.299  0.1799  0.2314 -0.0954
  289MOL    C6640962   3.784   3.543   6.367  0.4902 -0.2261  0.4942
  289MOL    C6740963   3.783   3.511   6.513  0.2915 -0.0948 -0.2426
  289MOL    N6840964   3.785   3.494   6.632 -0.2428 -0.1996  0.4247
  289MOL    H6940965   3.994   3.614   6.340 -0.8266  0.4940  1.1920
  289MOL    H7040966   3.897   3.567   6.197  0.3828 -1.4807 -0.6074
  289MOL    H7140967   3.735   3.457   6.321 -1.2286  0.8443  0.2847
  289MOL    C7240968   3.705   3.669   6.339  0.0293  0.0143  0.2898
  289MOL    C7340969   3.550   3.661   6.354  0.2448  0.1282 -0.7864
  289MOL    C7440970   3.505   3.620   6.487 -0.0131  0.2423  0.3658
  289MOL    N7540971   3.474   3.578   6.589  0.4149  0.3639 -0.5717
  289MOL    H7640972   3.748   3.756   6.388  0.3966  0.7253 -1.2703
  289MOL    H7740973   3.722   3.697   6.235 -1.8175  0.3924  0.0850
  289MOL    H7840974   3.531   3.577   6.287  1.3308 -1.5096  0.8954
  289MOL    C7940975   3.464   3.776   6.292 -0.8104  0.2850  0.8359
  289MOL    C8040976   3.315   3.744   6.275 -0.4094  0.2553 -0.0539
  289MOL    C8140977   3.245   3.693   6.393  0.9801  0.2660 -0.1401
  289MOL    N8240978   3.186   3.645   6.480  0.2970 -0.2518  0.7686
  289MOL    H8340979   3.489   3.870   6.342  1.0398  0.3312 -0.1396
  289MOL    H8440980   3.512   3.798   6.197 -1.4014 -0.4132  0.3767
  289MOL    H8540981   3.318   3.665   6.199 -0.9737  1.3548 -1.2276
  289MOL    C8640982   3.233   3.865   6.208  0.3027 -0.6338  0.0427
  289MOL    C8740983   3.265   3.898   6.061 -0.0237  0.6120  0.2326
  289MOL    C8840984   3.243   3.776   5.984 -0.0691 -0.8073  0.3103
  289MOL    N8940985   3.221   3.682   5.922 -0.4739  0.0109  0.1128
  289MOL    H9040986   3.127   3.842   6.197  0.4812 -0.7256 -1.6254
  289MOL    H9140987   3.254   3.957   6.262 -0.5327  0.0054 -0.7145
  289MOL    H9240988   3.373   3.909   6.053 -0.0516 -0.7628 -2.3429
  289MOL    C9340989   3.196   4.022   6.001 -0.0064  0.6101  0.1423
  289MOL    C9440990   3.058   3.995   5.941 -0.3421 -1.1009 -0.3838
  289MOL    C9540991   2.960   3.960   6.043 -0.1440  0.2111  0.5099
  289MOL    N9640992   2.877   3.934   6.121  0.1125  0.2645 -0.3361
  289MOL    H9740993   3.187   4.107   6.069 -0.5620  0.3766  0.3679
  289MOL    H9840994   3.264   4.050   5.921  1.5102 -2.0232  0.4559
  289MOL    H9940995   3.055   3.920   5.861  0.8929  1.2993 -2.7696
  289MOL   C10040996   3.008   4.109   5.852 -0.1863 -0.5786 -0.7769
  289MOL   C10140997   3.037   4.257   5.897  0.3423 -0.0431  0.3345
  289MOL   C10240998   3.176   4.296   5.876 -0.4086 -0.3169  0.2338
  289MOL   N10340999   3.288   4.322   5.863 -0.0728  0.6789  0.2986
  289MOL   H10441000   3.050   4.090   5.753  0.4213 -1.1058 -0.4205
  289MOL   H10541001   2.901   4.099   5.833 -0.1117 -1.1182 -0.9228
  289MOL   H10641002   3.027   4.252   6.005 -2.7542  2.3401  0.2193
  289MOL   C10741003   2.933   4.356   5.848 -0.2048 -0.5305 -0.2238
  289MOL   C10841004   2.936   4.492   5.921  0.1691  0.1189  0.6595
  289MOL   C10941005   3.061   4.575   5.906 -0.1701 -0.2677 -0.3504
  289MOL   N11041006   3.158   4.635   5.899 -0.2631 -0.5350  0.8262
  289MOL   H11141007   2.938   4.372   5.740 -2.9903 -0.1094 -0.3419
  289MOL   H11241008   2.836   4.311   5.871 -1.3548  2.5881  1.1762
  289MOL   H11341009   2.933   4.465   6.027  2.4818 -1.8412  0.2750
  289MOL   C11441010   2.816   4.589   5.890  0.9532 -0.1768 -0.0992
  289MOL   C11541011   2.681   4.525   5.918 -0.2372  0.2863 -0.1750
  289MOL   C11641012   2.679   4.419   6.026  0.0553 -0.1284  0.6153
  289MOL   N11741013   2.676   4.344   6.120  0.0267 -0.0913 -0.1077
  289MOL   H11841014   2.834   4.678   5.950  0.9076  1.7622 -2.8621
  289MOL   H11941015   2.811   4.638   5.792 -0.3487  2.8438  1.4220
  289MOL   H12041016   2.658   4.463   5.831  1.4171 -1.4473  0.5730
  289MOL   C12141017   2.588   4.650   5.932 -0.2219 -0.5010 -0.4295
  289MOL   C12241018   2.440   4.619   5.937  0.2262  0.0481  0.6228
  289MOL   C12341019   2.395   4.606   6.077  0.5024  0.5336 -1.0555
  289MOL   N12441020   2.359   4.607   6.185 -0.8187  0.0155 -0.3071
  289MOL   H12541021   2.619   4.713   6.016 -0.2479 -1.5570  0.3807
  289MOL   H12641022   2.604   4.708   5.841 -1.8496  1.9159  0.7456
  289MOL   H12741023   2.421   4.526   5.883 -1.9096  1.2303 -0.7274
  289MOL   C12841024   2.357   4.736   5.882  0.0624  0.0544 -0.0418
  289MOL   C12941025   2.343   4.754   5.731 -0.5146 -1.1148  0.2272
  289MOL   C13041026   2.258   4.653   5.670  0.6553 -0.1849  0.5460
  289MOL   N13141027   2.190   4.571   5.631  0.0431  0.4552 -0.7955
  289MOL   H13241028   2.252   4.727   5.907  0.0752 -0.3158 -0.1057
  289MOL   H13341029   2.389   4.833   5.920  2.2757 -0.8270  0.4779
  289MOL   H13441030   2.439   4.737   5.681 -0.7966  0.9134 -1.0681
  289MOL   C13541031   2.307   4.900   5.689 -0.5146 -1.2539  0.4256
  289MOL   C13641032   2.302   4.937   5.539 -0.5076  0.0273  0.4831
  289MOL   C13741033   2.428   4.928   5.462  0.0088 -0.5341  0.1322
  289MOL   N13841034   2.534   4.917   5.406  0.6687 -0.2591  0.5446
  289MOL   H13941035   2.211   4.917   5.738  0.9419  1.0687  2.5882
  289MOL   H14041036   2.367   4.975   5.740  0.0883 -1.3820 -0.0867
  289MOL   H14141037   2.279   5.043   5.530 -2.2308 -0.4228 -0.7138
  289MOL   H14241038   2.229   4.871   5.492 -0.1285  1.4348 -2.1782
  290MOL     C141039   7.470   3.410   0.939  0.0252 -0.1585 -0.6410
  290MOL     C241040   7.598   3.489   0.902 -1.0213  0.9369  0.1247
  290MOL     C341041   7.565   3.600   0.817  0.4817 -0.3895 -0.1674
  290MOL     N441042   7.539   3.688   0.750  0.3990  0.1182  0.1861
  290MOL     H541043   7.497   3.310   0.974  3.2009 -0.1739 -2.8889
  290MOL     H641044   7.399   3.380   0.863 -2.5795  0.0233  1.6597
  290MOL     H741045   7.659   3.417   0.846 -0.5937  2.0581 -0.8791
  290MOL     H841046   7.410   3.452   1.019  0.4364  0.4338 -0.6442
  290MOL     C941047   7.674   3.521   1.031 -0.0273  0.1625  0.1914
  290MOL    C1041048   7.751   3.404   1.096 -0.3601  0.3268  0.5450
  290MOL    C1141049   7.838   3.324   1.007 -0.9898  0.1634  0.3515
  290MOL    N1241050   7.910   3.260   0.946 -0.2049 -0.1720  0.5010
  290MOL    H1341051   7.745   3.601   1.011 -0.4196  0.3464 -0.4981
  290MOL    H1441052   7.603   3.563   1.102 -0.7215  1.9202 -1.5034
  290MOL    H1541053   7.677   3.333   1.132 -0.8030  0.6715  0.3179
  290MOL    C1641054   7.817   3.448   1.226  0.4641  0.6455  0.2637
  290MOL    C1741055   7.866   3.331   1.310 -0.0047 -0.3883 -0.1826
  290MOL    C1841056   8.009   3.318   1.318 -0.4844 -0.5049 -0.2283
  290MOL    N1941057   8.125   3.296   1.330 -0.0326  0.7181 -0.0610
  290MOL    H2041058   7.886   3.532   1.213  2.3370 -1.0765 -1.4478
  290MOL    H2141059   7.741   3.493   1.289 -1.4178  0.4601 -1.8332
  290MOL    H2241060   7.834   3.238   1.263  0.6180 -0.5614 -0.2612
  290MOL    C2341061   7.820   3.333   1.455  0.1927  1.1924 -0.5977
  290MOL    C2441062   7.862   3.211   1.540  0.0050  0.8752 -0.1879
  290MOL    C2541063   7.786   3.217   1.669  0.0006  0.0838 -0.8008
  290MOL    N2641064   7.724   3.231   1.766 -0.2612  0.1213 -0.6356
  290MOL    H2741065   7.853   3.409   1.526 -0.8942  1.0294  0.0997
  290MOL    H2841066   7.712   3.338   1.466  0.1534 -0.4546 -0.0728
  290MOL    H2941067   7.967   3.224   1.566  0.2008 -0.8179 -0.0717
  290MOL    C3041068   7.842   3.072   1.464 -0.2053 -0.1013  0.0486
  290MOL    C3141069   7.854   2.947   1.546  0.0639  0.0426  0.1431
  290MOL    C3241070   7.721   2.918   1.602 -0.2066 -1.0046  0.0804
  290MOL    N3341071   7.616   2.900   1.644  0.2617  0.1951  0.0092
  290MOL    H3441072   7.747   3.070   1.411 -0.2482 -0.8586  0.1379
  290MOL    H3541073   7.925   3.071   1.394 -0.0104 -1.2246  0.2843
  290MOL    H3641074   7.925   2.978   1.623  0.4686 -1.1946  0.2907
  290MOL    C3741075   7.910   2.821   1.475 -0.2371  0.3103 -0.6656
  290MOL    C3841076   7.930   2.696   1.556 -0.2822  0.1139  0.0271
  290MOL    C3941077   7.924   2.573   1.470 -0.5920 -0.0170 -0.0185
  290MOL    N4041078   7.921   2.473   1.410  0.4216 -0.2852  0.0669
  290MOL    H4141079   7.846   2.789   1.393  1.0763 -1.0267 -1.1841
  290MOL    H4241080   8.003   2.857   1.432 -0.5371  1.8839 -0.0037
  290MOL    H4341081   7.849   2.688   1.628  0.4592 -3.1293  0.6054
  290MOL    C4441082   8.055   2.689   1.643 -0.2734  0.1423  0.0576
  290MOL    C4541083   8.044   2.607   1.773  0.2428  0.8949  0.8723
  290MOL    C4641084   8.039   2.464   1.732 -0.8777 -0.2364  0.5114
  290MOL    N4741085   8.038   2.354   1.699 -0.1646  0.7669 -0.3742
  290MOL    H4841086   8.137   2.652   1.582 -1.5555 -1.2300 -0.8714
  290MOL    H4941087   8.081   2.790   1.676  1.2931 -0.7121  1.5061
  290MOL    H5041088   7.945   2.625   1.817  0.2336 -1.2113  1.7794
  290MOL    C5141089   8.156   2.638   1.864  0.3403  0.4216  0.1382
  290MOL    C5241090   8.123   2.749   1.969 -0.5133 -0.4949  0.4695
  290MOL    C5341091   7.997   2.723   2.040  0.2673 -0.2212 -0.3396
  290MOL    N5441092   7.900   2.701   2.099  0.2174 -0.0792  0.4660
  290MOL    H5541093   8.175   2.549   1.925  0.4622  0.4213  0.0997
  290MOL    H5641094   8.251   2.656   1.813  0.2985 -1.8766 -0.8202
  290MOL    H5741095   8.115   2.851   1.930 -0.8737 -0.7044 -0.0110
  290MOL    C5841096   8.248   2.769   2.061  0.0388 -0.0558 -0.4811
  290MOL    C5941097   8.224   2.846   2.189 -0.4371  0.3341  0.0058
  290MOL    C6041098   8.180   2.985   2.173 -0.6554 -0.4011  0.3962
  290MOL    N6141099   8.141   3.094   2.157 -0.0053  0.3775 -0.0667
  290MOL    H6241100   8.281   2.667   2.083  1.1649  0.5209  0.5745
  290MOL    H6341101   0.016   2.813   2.003 -0.2777  0.9655 -0.1642
  290MOL    H6441102   0.015   2.862   2.219 -0.0532  2.9230 -2.4565
  290MOL    C6541103   8.159   2.775   2.307  0.2729 -0.1736 -0.1062
  290MOL    C6641104   8.248   2.782   2.439  1.1145 -0.5564 -0.0357
  290MOL    C6741105   8.270   2.920   2.486 -0.3017 -0.2218  0.2214
  290MOL    N6841106   8.294   3.021   2.526  0.5455  0.0906 -0.1847
  290MOL    H6941107   8.053   2.797   2.323  0.4031  0.3600  0.0503
  290MOL    H7041108   8.158   2.672   2.272 -1.0515 -0.4937  0.8214
  290MOL    H7141109   0.035   2.750   2.409  1.1828 -0.3872  0.0100
  290MOL    C7241110   8.186   2.694   2.554 -0.8697 -0.3989  0.6989
  290MOL    C7341111   8.281   2.650   2.667  0.2729 -0.2523  0.7362
  290MOL    C7441112   0.089   2.584   2.608 -0.6088  0.2538 -0.5115
  290MOL    N7541113   0.176   2.533   2.562 -0.7419 -0.0415  0.3393
  290MOL    H7641114   8.092   2.739   2.587 -1.0259  1.1214 -1.7324
  290MOL    H7741115   8.149   2.604   2.506 -2.0577 -0.4271  1.6275
  290MOL    H7841116   8.230   2.564   2.712 -1.1528  0.0971 -0.1760
  290MOL    C7941117   8.310   2.759   2.770  0.5272 -0.2994 -0.0188
  290MOL    C8041118   0.141   2.815   2.786  0.0423  0.7986  0.4506
  290MOL    C8141119   0.218   2.837   2.656  0.4146 -0.4084 -0.0729
  290MOL    N8241120   0.271   2.851   2.554  0.4598  0.3177  0.3018
  290MOL    H8341121   8.239   2.842   2.763 -0.9412 -1.7158 -2.3136
  290MOL    H8441122   8.284   2.711   2.864 -0.4386 -1.4842 -0.8786
  290MOL    H8541123   0.195   2.733   2.834 -1.7042 -0.3623  0.4983
  290MOL    C8641124   0.146   2.933   2.886 -0.6380  0.1345 -0.2700
  290MOL    C8741125   0.289   2.954   2.935  0.2346 -0.8949  0.4558
  290MOL    C8841126   0.376   3.014   2.831 -0.4175  0.2894 -0.2015
  290MOL    N8941127   0.443   3.060   2.751 -0.2186 -0.1647  0.0667
  290MOL    H9041128   0.120   3.026   2.835 -1.2160  1.2791  2.0637
  290MOL    H9141129   0.085   2.905   2.972  0.0646  1.8092  0.7825
  290MOL    H9241130   0.336   2.859   2.957  0.5125 -0.9328 -0.2716
  290MOL    C9341131   0.293   3.043   3.070  0.4770 -0.5817  0.0810
  290MOL    C9441132   0.203   3.169   3.077  1.2999 -0.2446  0.2107
  290MOL    C9541133   0.059   3.145   3.089 -0.3552 -0.0329 -0.2337
  290MOL    N9641134   8.258   3.127   3.107 -0.2894  0.3895  0.2753
  290MOL    H9741135   0.245   2.974   3.140 -0.7312 -0.5854 -0.7246
  290MOL    H9841136   0.388   3.076   3.112 -0.4665 -0.1541  1.9166
  290MOL    H9941137   0.214   3.217   2.979  0.4500  0.0388  0.2515
  290MOL   C10041138   0.243   3.278   3.173  0.5117  0.3373  0.3642
  290MOL   C10141139   0.350   3.386   3.122  0.1188 -0.4553 -0.6878
  290MOL   C10241140   0.365   3.498   3.216  0.4941  0.8211 -0.3180
  290MOL   N10341141   0.384   3.584   3.293 -0.2133 -0.4620 -0.1872
  290MOL   H10441142   0.157   3.327   3.219  0.5764  2.1809 -1.4003
  290MOL   H10541143   0.284   3.222   3.257  0.9942 -0.1275 -0.1777
  290MOL   H10641144   0.308   3.428   3.031  0.7471 -0.5651 -1.0245
  290MOL   C10741145   0.499   3.327   3.099  0.2085  0.4338  0.5413
  290MOL   C10841146   0.554   3.315   2.960 -0.2128 -0.1140  0.1014
  290MOL   C10941147   0.526   3.445   2.891  0.5205  0.6608 -0.4877
  290MOL   N11041148   0.498   3.548   2.848  0.2815 -0.3604 -0.1680
  290MOL   H11141149   0.557   3.405   3.148  0.4461  0.9663 -0.5749
  290MOL   H11241150   0.521   3.239   3.160 -0.5112  0.0755  0.2852
  290MOL   H11341151   0.490   3.249   2.901  0.3753  1.6411 -2.5969
  290MOL   C11441152   0.700   3.256   2.944  0.0680  0.5953  0.3917
  290MOL   C11541153   0.777   3.327   2.826 -0.7190 -0.2116 -0.4076
  290MOL   C11641154   0.922   3.297   2.819 -0.2419  0.3283  0.3322
  290MOL   N11741155   1.031   3.271   2.807  1.2496  0.4698 -0.1106
  290MOL   H11841156   0.744   3.260   3.043  0.5861  0.6920  0.1573
  290MOL   H11941157   0.696   3.151   2.916 -1.4020  1.0616 -1.2842
  290MOL   H12041158   0.769   3.435   2.836  1.3592 -0.1995  1.5578
  290MOL   C12141159   0.711   3.282   2.691  0.1492 -0.4817  0.0741
  290MOL   C12241160   0.752   3.366   2.570  0.1113 -0.5735  0.2395
  290MOL   C12341161   0.900   3.361   2.530  0.2249  0.0075  0.2507
  290MOL   N12441162   1.014   3.359   2.498  0.0948 -0.1202  0.2054
  290MOL   H12541163   0.730   3.176   2.674 -2.2508 -0.7797 -0.9302
  290MOL   H12641164   0.603   3.292   2.702 -0.0438 -0.6470 -1.6160
  290MOL   H12741165   0.728   3.470   2.591  0.6523 -0.7095  1.5782
  290MOL   C12841166   0.661   3.328   2.451 -0.2698 -0.5754 -0.3237
  290MOL   C12941167   0.516   3.352   2.471 -0.1388  0.1061  0.3693
  290MOL   C13041168   0.465   3.444   2.367  0.3051  0.2771  0.5032
  290MOL   N13141169   0.431   3.515   2.289  0.0608 -0.8624  0.7682
  290MOL   H13241170   0.694   3.376   2.359  4.6808 -1.5980  0.7514
  290MOL   H13341171   0.672   3.220   2.437  0.6279 -0.2751 -2.1226
  290MOL   H13441172   0.498   3.414   2.560  2.1483  1.9195 -0.3889
  290MOL   C13541173   0.438   3.218   2.463  0.6040 -0.4089 -0.0627
  290MOL   C13641174   0.285   3.237   2.474 -0.5484  0.2062 -0.6695
  290MOL   C13741175   0.231   3.267   2.609  0.0665 -0.1860  0.5912
  290MOL   N13841176   0.191   3.292   2.713  0.5125 -0.0287 -0.1336
  290MOL   H13941177   0.446   3.172   2.364  0.5416 -0.6944  0.0626
  290MOL   H14041178   0.473   3.139   2.530 -1.2871  1.0262  2.7363
  290MOL   H14141179   0.244   3.138   2.452  0.1901 -0.8836  2.6045
  290MOL   H14241180   0.252   3.317   2.407  0.9984  1.9980  0.6640
  291MOL     C141181   8.268   1.892   5.525  0.1962 -0.4906 -0.4281
  291MOL     C241182   8.226   1.955   5.395  0.8554  0.6161  0.1398
  291MOL     C341183   0.032   1.999   5.322 -0.2416 -0.7043 -0.9475
  291MOL     N441184   0.127   2.031   5.260 -0.3801  0.4492 -0.3101
  291MOL     H541185   0.028   1.811   5.517  1.5362  0.6411  0.1460
  291MOL     H641186   8.176   1.850   5.566 -1.5134  3.9496  0.6107
  291MOL     H741187   8.173   2.046   5.421  0.1439  0.3118 -0.2411
  291MOL     H841188   8.301   1.970   5.593  3.1261 -1.0942 -1.0946
  291MOL     C941189   8.136   1.867   5.296 -0.5464  0.0957  0.1215
  291MOL    C1041190   8.068   1.941   5.179  0.1020 -0.1091  0.5489
  291MOL    C1141191   7.974   2.036   5.236  0.2300 -0.1115  0.0806
  291MOL    N1241192   7.899   2.110   5.284 -0.5327  0.0511 -0.0969
  291MOL    H1341193   8.202   1.788   5.259  0.4716  0.3540  1.3765
  291MOL    H1441194   8.054   1.835   5.360 -1.3450 -0.1174 -0.9884
  291MOL    H1541195   8.006   1.884   5.110  0.9850 -0.9224  0.4041
  291MOL    C1641196   8.161   1.994   5.072 -0.0080  0.6832  0.8729
  291MOL    C1741197   8.269   1.898   5.025  0.0381 -0.1791  0.0816
  291MOL    C1841198   8.208   1.771   4.996 -0.4591  0.2178 -0.3300
  291MOL    N1941199   8.156   1.670   4.975 -0.3161 -0.2568  0.1088
  291MOL    H2041200   8.093   2.012   4.988 -0.9040  1.6408  1.7773
  291MOL    H2141201   8.205   2.088   5.105  3.0093 -0.8911  1.5526
  291MOL    H2241202   0.036   1.875   5.097 -0.0501  0.5429  0.4166
  291MOL    C2341203   0.050   1.965   4.922  0.6307  0.4235 -0.0618
  291MOL    C2441204   0.178   1.887   4.902  0.0396  0.6996 -0.1421
  291MOL    C2541205   0.163   1.764   4.826  0.2302 -0.0005  0.4533
  291MOL    N2641206   0.147   1.663   4.772  0.1832  0.0994 -0.5709
  291MOL    H2741207   8.303   1.988   4.833  2.2801  0.8424 -1.0700
  291MOL    H2841208   0.073   2.065   4.960 -1.2876 -0.1872  2.8621
  291MOL    H2941209   0.228   1.865   4.997 -0.8316  1.5028  0.5084
  291MOL    C3041210   0.278   1.978   4.836  0.8724 -0.1850 -0.0287
  291MOL    C3141211   0.427   1.943   4.871  0.3705  0.1628  0.6033
  291MOL    C3241212   0.452   1.941   5.017 -0.3750  0.4711  0.5327
  291MOL    N3341213   0.479   1.940   5.130  0.3240 -0.0047 -0.4486
  291MOL    H3441214   0.261   1.965   4.729  0.2611 -0.9431  0.1513
  291MOL    H3541215   0.269   2.084   4.861  1.6098 -0.3186  0.7952
  291MOL    H3641216   0.493   2.009   4.815 -0.6675  1.5036  0.9163
  291MOL    C3741217   0.472   1.813   4.800  0.3621  0.5921 -0.5270
  291MOL    C3841218   0.623   1.782   4.795  0.4798 -0.4456  0.6849
  291MOL    C3941219   0.655   1.641   4.798 -0.7188 -0.0844 -0.3368
  291MOL    N4041220   0.687   1.527   4.800 -0.4201  0.1411 -0.3798
  291MOL    H4141221   0.421   1.729   4.848  0.8626  0.7905  0.3580
  291MOL    H4241222   0.434   1.816   4.698 -1.7191 -1.1596  0.1515
  291MOL    H4341223   0.660   1.809   4.894 -2.9916  0.6429  1.7655
  291MOL    C4441224   0.708   1.861   4.688  0.3097  0.4450 -0.1401
  291MOL    C4541225   0.867   1.855   4.707  0.8393  0.3193  0.6919
  291MOL    C4641226   0.921   1.721   4.680  0.1831  0.8642 -0.3071
  291MOL    N4741227   0.963   1.614   4.659  0.1634  0.2143  0.1262
  291MOL    H4841228   0.677   1.840   4.586  1.5324  1.9802 -0.8552
  291MOL    H4941229   0.678   1.965   4.700 -0.6527  0.1907 -0.3178
  291MOL    H5041230   0.881   1.873   4.813  0.7389  2.2280  0.3963
  291MOL    C5141231   0.947   1.966   4.631  0.0344 -0.0092  0.0493
  291MOL    C5241232   0.949   2.099   4.697 -0.3951 -0.6319  0.2933
  291MOL    C5341233   1.061   2.088   4.796  0.2212  0.0796  0.2174
  291MOL    N5441234   1.149   2.066   4.868  0.5842 -0.2403  0.2102
  291MOL    H5541235   1.051   1.938   4.619  0.7076  2.5793 -0.3729
  291MOL    H5641236   0.903   1.972   4.531  2.1456 -1.0130 -0.9664
  291MOL    H5741237   0.866   2.104   4.768 -0.5497 -2.3845  0.2466
  291MOL    C5841238   0.944   2.207   4.589 -0.1687 -0.2490  0.8067
  291MOL    C5941239   0.955   2.350   4.646 -0.0325 -0.3294 -0.1641
  291MOL    C6041240   1.052   2.433   4.575  0.0900  0.7561 -0.6748
  291MOL    N6141241   1.131   2.502   4.518 -0.3178 -0.3376  0.3447
  291MOL    H6241242   1.019   2.186   4.512 -1.3458  0.2041 -0.4857
  291MOL    H6341243   0.851   2.201   4.533  0.2739 -1.3164  0.1631
  291MOL    H6441244   0.996   2.342   4.747  1.1467  1.3761 -0.4682
  291MOL    C6541245   0.819   2.409   4.672 -0.0353  0.2334  0.0812
  291MOL    C6641246   0.813   2.554   4.724 -0.9607 -0.5535 -0.5099
  291MOL    C6741247   0.791   2.640   4.609  0.2130 -0.8116  0.3993
  291MOL    N6841248   0.772   2.706   4.515  0.3362  0.1394 -0.1647
  291MOL    H6941249   0.757   2.395   4.583 -0.9214  2.5171  0.3148
  291MOL    H7041250   0.778   2.338   4.744  2.5689 -0.3777  1.0149
  291MOL    H7141251   0.915   2.576   4.755 -1.5080 -0.3956  1.2555
  291MOL    C7241252   0.709   2.571   4.834  0.4051 -0.4008 -0.1467
  291MOL    C7341253   0.757   2.613   4.977  0.2400 -0.2973 -1.3296
  291MOL    C7441254   0.651   2.655   5.065  0.0313 -0.5615 -0.1251
  291MOL    N7541255   0.561   2.686   5.132  0.4473 -0.0457  0.1723
  291MOL    H7641256   0.650   2.657   4.802  1.6518 -0.2219 -1.9781
  291MOL    H7741257   0.634   2.491   4.839  2.4850 -2.2973  2.2772
  291MOL    H7841258   0.818   2.703   4.968  1.3836 -1.0300 -0.9133
  291MOL    C7941259   0.818   2.486   5.038 -0.0010 -0.4145 -0.3186
  291MOL    C8041260   0.892   2.512   5.173  0.9090  0.1564  0.5225
  291MOL    C8141261   0.931   2.383   5.236  1.0376  0.4279 -0.1095
  291MOL    N8241262   0.964   2.284   5.284 -0.5790  0.3261  0.2728
  291MOL    H8341263   0.742   2.409   5.048 -0.0813 -0.3683 -0.5676
  291MOL    H8441264   0.890   2.441   4.970 -0.3291 -1.9669  0.3284
  291MOL    H8541265   0.822   2.557   5.244  1.5772 -0.2988  1.4849
  291MOL    C8641266   1.020   2.597   5.190  0.5671 -0.6449  0.3183
  291MOL    C8741267   1.149   2.523   5.149 -0.1621  0.9331  0.3522
  291MOL    C8841268   1.148   2.469   5.009  0.4061  0.0642 -0.4674
  291MOL    N8941269   1.144   2.428   4.905 -0.2544 -0.1911  0.5688
  291MOL    H9041270   1.023   2.693   5.138 -2.1195 -0.7002 -0.0235
  291MOL    H9141271   1.011   2.627   5.294 -1.9096  0.5918 -0.2124
  291MOL    H9241272   1.170   2.428   5.197  2.5903  0.1790 -2.1747
  291MOL    C9341273   1.276   2.605   5.199 -0.3459  0.0338  0.4443
  291MOL    C9441274   1.403   2.579   5.118  0.0889 -0.1842  0.4317
  291MOL    C9541275   1.406   2.666   5.003  0.0712 -0.1732  0.5253
  291MOL    N9641276   1.409   2.736   4.912 -0.3711 -0.9069 -0.3168
  291MOL    H9741277   1.249   2.711   5.199  0.6390  0.2988  1.8462
  291MOL    H9841278   1.288   2.585   5.305 -0.4917  0.9386  0.6338
  291MOL    H9941279   1.401   2.483   5.065  1.6579  1.6021 -2.9935
  291MOL   C10041280   1.533   2.603   5.200 -0.0451 -0.2573 -0.4788
  291MOL   C10141281   1.559   2.499   5.309 -0.0686 -0.4356  0.4473
  291MOL   C10241282   1.512   2.360   5.294 -0.5755  0.5048  0.0579
  291MOL   N10341283   1.470   2.255   5.279 -0.3526  0.1755  0.1159
  291MOL   H10441284   1.612   2.609   5.125  0.2980 -0.2428 -0.1188
  291MOL   H10541285   1.524   2.700   5.250 -3.0955 -0.6637 -0.1675
  291MOL   H10641286   1.512   2.524   5.404  2.3650 -2.6982  2.3108
  291MOL   C10741287   1.713   2.510   5.352  0.6189  0.4077  0.1552
  291MOL   C10841288   1.811   2.420   5.287  0.1779  0.3421  0.2041
  291MOL   C10941289   1.794   2.404   5.141 -0.4016 -0.1601  0.4266
  291MOL   N11041290   1.779   2.392   5.025 -0.7989 -0.1014 -0.2920
  291MOL   H11141291   1.746   2.613   5.342 -0.6432  0.9096  0.9455
  291MOL   H11241292   1.728   2.495   5.459  0.3374 -1.3693 -0.0283
  291MOL   H11341293   1.793   2.316   5.314 -1.0068  0.1503 -1.2791
  291MOL   C11441294   1.959   2.443   5.323  0.7483 -0.7911  0.2107
  291MOL   C11541295   1.996   2.584   5.349  0.3972  0.5416  0.2084
  291MOL   C11641296   2.136   2.576   5.397  0.1255 -0.7973  0.0146
  291MOL   N11741297   2.241   2.578   5.441  0.1644 -0.1066 -0.3413
  291MOL   H11841298   1.963   2.386   5.417  1.0194 -0.0974  0.6202
  291MOL   H11941299   2.030   2.401   5.252  1.4955 -0.6365  0.8611
  291MOL   H12041300   1.943   2.611   5.440  0.5827 -1.3503  0.9109
  291MOL   C12141301   1.984   2.676   5.227 -0.3047  0.2522 -0.7170
  291MOL   C12241302   1.929   2.815   5.266  0.5064 -0.1248  0.4012
  291MOL   C12341303   1.954   2.853   5.403  0.2627  0.7587 -0.5163
  291MOL   N12441304   1.975   2.877   5.513 -0.0658  0.0448 -0.6263
  291MOL   H12541305   2.086   2.684   5.190  0.1115  1.8368  0.7384
  291MOL   H12641306   1.934   2.638   5.138  1.5921 -0.5191 -1.4971
  291MOL   H12741307   1.820   2.821   5.260  0.3975 -2.5977 -0.6546
  291MOL   C12841308   1.989   2.922   5.171 -0.4972 -0.2161 -0.0780
  291MOL   C12941309   1.958   3.067   5.200 -0.1271 -0.4208  0.0119
  291MOL   C13041310   2.034   3.149   5.105  0.1777  1.0150  0.1387
  291MOL   N13141311   2.087   3.215   5.027  0.3305 -0.0784 -0.4834
  291MOL   H13241312   2.097   2.913   5.169 -0.4235  0.3673  1.1457
  291MOL   H13341313   1.951   2.903   5.070  0.1845  3.6901 -1.1770
  291MOL   H13441314   2.002   3.081   5.298  0.7560 -1.4055 -0.2234
  291MOL   C13541315   1.811   3.106   5.196 -0.0309  0.5496  0.1887
  291MOL   C13641316   1.790   3.260   5.225 -0.0597  0.1198  0.8185
  291MOL   C13741317   1.649   3.292   5.250 -0.3921 -0.0469  0.4861
  291MOL   N13841318   1.537   3.318   5.270  0.0668 -1.0982  0.2384
  291MOL   H13941319   1.755   3.091   5.104 -0.4452  0.8612  0.3847
  291MOL   H14041320   1.765   3.051   5.278  0.4698 -0.4158 -0.1696
  291MOL   H14141321   1.828   3.308   5.135  1.0973 -0.7721  0.8216
  291MOL   H14241322   1.846   3.277   5.317  0.1860 -2.9631  1.3169
  292MOL     C141323   6.198   5.259   2.701 -0.8952 -0.3410 -0.0064
  292MOL     C241324   6.175   5.397   2.778  0.1836  0.3284  0.6917
  292MOL     C341325   6.294   5.452   2.848 -0.8191 -0.1816  0.1107
  292MOL     N441326   6.384   5.496   2.907 -1.2153 -0.5549  0.9126
  292MOL     H541327   6.106   5.211   2.667 -0.2998 -2.6714  1.5444
  292MOL     H641328   6.237   5.175   2.758 -0.2911  1.1841  1.8564
  292MOL     H741329   6.098   5.376   2.852  0.2507 -1.5994  0.2487
  292MOL     H841330   6.253   5.271   2.608  1.2619 -1.7439  1.0452
  292MOL     C941331   6.104   5.498   2.679 -0.0243  0.5061 -0.4463
  292MOL    C1041332   6.111   5.649   2.715 -0.1501 -0.1675 -0.4430
  292MOL    C1141333   6.060   5.730   2.604 -0.1172 -0.4527  0.1255
  292MOL    N1241334   6.020   5.798   2.519  0.4815  0.9862 -0.2004
  292MOL    H1341335   6.160   5.482   2.586 -0.5504 -2.1589 -0.3384
  292MOL    H1441336   6.006   5.466   2.645  0.4331 -0.5140 -0.8391
  292MOL    H1541337   6.215   5.681   2.720 -0.0733 -0.4785  0.0775
  292MOL    C1641338   6.041   5.684   2.856 -0.7545 -0.6149  0.5435
  292MOL    C1741339   5.886   5.669   2.860 -0.4118  0.2327  0.6657
  292MOL    C1841340   5.837   5.539   2.818  0.5312 -0.3024  0.8061
  292MOL    N1941341   5.798   5.430   2.789 -0.1778 -0.5744  0.1373
  292MOL    H2041342   6.087   5.621   2.932  0.4761  0.9317  1.1153
  292MOL    H2141343   6.063   5.790   2.872  0.0692 -0.6424 -0.3647
  292MOL    H2241344   5.854   5.732   2.777  2.5937  0.6603 -0.2084
  292MOL    C2341345   5.814   5.711   2.991 -0.2383  0.5066 -0.1060
  292MOL    C2441346   5.837   5.610   3.110 -0.0326 -0.7634  0.4742
  292MOL    C2541347   5.974   5.626   3.156  0.0024  1.0733  0.1776
  292MOL    N2641348   6.087   5.638   3.185  0.6747  0.7650 -0.5454
  292MOL    H2741349   5.852   5.808   3.025  1.8818 -0.9275  1.6904
  292MOL    H2841350   5.710   5.721   2.960 -0.2695 -1.0675 -0.5434
  292MOL    H2941351   5.835   5.509   3.067 -0.5390 -0.4630 -0.2138
  292MOL    C3041352   5.742   5.643   3.236  0.2234 -0.1166  0.1722
  292MOL    C3141353   5.734   5.539   3.346 -0.5741 -0.2778 -0.0345
  292MOL    C3241354   5.610   5.559   3.419  0.8928 -0.1317 -0.2798
  292MOL    N3341355   5.517   5.579   3.484  0.7472  0.1618 -0.0537
  292MOL    H3441356   5.766   5.741   3.278  1.7645  0.1459 -1.2803
  292MOL    H3541357   5.640   5.659   3.201 -0.2069  0.3360  1.5887
  292MOL    H3641358   5.812   5.559   3.419 -1.9746  3.2069  0.5839
  292MOL    C3741359   5.761   5.388   3.317  0.6208  0.7241  0.4286
  292MOL    C3841360   5.644   5.307   3.265  0.3103  0.0252  0.2952
  292MOL    C3941361   5.603   5.366   3.138  0.5382  0.9205 -0.7584
  292MOL    N4041362   5.573   5.413   3.041  0.3067  0.6121 -0.0557
  292MOL    H4141363   5.840   5.381   3.242  1.5567 -0.9391  1.5480
  292MOL    H4241364   5.791   5.340   3.410  1.1164  2.1260  1.0052
  292MOL    H4341365   5.559   5.311   3.334 -0.0445  1.6396 -0.1976
  292MOL    C4441366   5.680   5.165   3.252  0.0374  0.2321  0.0403
  292MOL    C4541367   5.563   5.082   3.195 -0.6518 -0.2567  0.2152
  292MOL    C4641368   5.610   4.955   3.142 -0.0693 -0.1461  0.2684
  292MOL    N4741369   5.648   4.859   3.093 -0.1297 -0.0979  0.0891
  292MOL    H4841370   5.774   5.150   3.199 -0.1937  2.0487 -0.9114
  292MOL    H4941371   5.712   5.123   3.348  1.6157 -0.0340 -0.5828
  292MOL    H5041372   5.517   5.123   3.106  0.3753  0.9447  0.2222
  292MOL    C5141373   5.461   5.062   3.307  0.1080  1.2605  0.0445
  292MOL    C5241374   5.321   5.002   3.272  0.1026 -0.0921  0.0717
  292MOL    C5341375   5.313   4.888   3.179  0.4225  0.1470 -0.2278
  292MOL    N5441376   5.302   4.801   3.108  0.2858 -0.8274 -0.3913
  292MOL    H5541377   5.510   4.985   3.367 -0.8972  0.0387 -0.6678
  292MOL    H5641378   5.441   5.156   3.358  0.9290  0.5472  1.7143
  292MOL    H5741379   5.259   5.075   3.220  1.3942 -0.2979 -1.8001
  292MOL    C5841380   5.233   4.952   3.392  0.3206  1.2445  1.0628
  292MOL    C5941381   5.184   5.069   3.481  0.4185  0.0314  0.8295
  292MOL    C6041382   5.108   5.167   3.412  0.1551 -0.1856  0.0485
  292MOL    N6141383   5.043   5.249   3.356  0.1114  0.1232 -0.4660
  292MOL    H6241384   5.141   4.904   3.356  0.8502  1.2820 -0.3979
  292MOL    H6341385   5.286   4.875   3.448 -1.0747  0.7197  1.7034
  292MOL    H6441386   5.272   5.116   3.525  0.6634 -0.8928  1.3297
  292MOL    C6541387   5.108   5.017   3.601  0.2511  0.3767 -0.4029
  292MOL    C6641388   5.076   5.107   3.725 -0.0111 -0.3726 -0.0960
  292MOL    C6741389   4.972   5.209   3.701  0.4987 -0.2052 -0.0639
  292MOL    N6841390   4.888   5.291   3.682 -0.2063 -0.1875 -0.4481
  292MOL    H6941391   5.017   4.975   3.558  0.5130 -1.1943  0.5300
  292MOL    H7041392   5.175   4.938   3.634 -0.7222 -0.2689  0.0685
  292MOL    H7141393   5.164   5.159   3.762  0.1704 -0.7516  0.0059
  292MOL    C7241394   5.028   5.015   3.833  0.2270  0.3476 -0.0383
  292MOL    C7341395   5.051   5.059   3.980 -0.1682 -0.2907  0.2567
  292MOL    C7441396   4.962   5.171   4.016 -0.6820  0.0310 -1.2632
  292MOL    N7541397   4.891   5.259   4.040  0.6221  0.0044  0.4908
  292MOL    H7641398   4.922   4.996   3.823  0.1164  0.8108  0.2006
  292MOL    H7741399   5.078   4.920   3.816 -1.2278 -0.7762  1.7742
  292MOL    H7841400   5.152   5.098   3.993  0.5239 -1.3955 -1.5941
  292MOL    C7941401   5.015   4.938   4.074  0.6871  0.8715 -0.5380
  292MOL    C8041402   5.058   4.966   4.216  0.3677 -0.1808 -0.2537
  292MOL    C8141403   5.005   4.862   4.301 -0.3779 -0.1393 -0.8715
  292MOL    N8241404   4.960   4.780   4.364  0.1967  0.5034  0.2114
  292MOL    H8341405   4.913   4.901   4.077  1.1787 -0.3895  0.8013
  292MOL    H8441406   5.066   4.846   4.049 -0.5989  0.5702 -2.1437
  292MOL    H8541407   5.016   5.064   4.239 -0.1218 -0.3402 -0.4577
  292MOL    C8641408   5.222   4.965   4.235 -0.2094 -0.4578 -0.3203
  292MOL    C8741409   5.274   4.989   4.374 -0.3102 -0.1783  0.0814
  292MOL    C8841410   5.268   4.869   4.459 -0.3060 -0.0660 -0.2982
  292MOL    N8941411   5.265   4.776   4.533 -0.1065  0.1496  0.7698
  292MOL    H9041412   5.262   4.872   4.195  0.9098  0.0919 -0.4844
  292MOL    H9141413   5.259   5.044   4.169 -1.2164  0.8160  0.6035
  292MOL    H9241414   5.210   5.067   4.415  0.1064  0.4458 -0.4441
  292MOL    C9341415   5.416   5.052   4.375  0.3674  0.7339 -0.1842
  292MOL    C9441416   5.462   5.081   4.515  0.2025 -0.6337 -0.2530
  292MOL    C9541417   5.607   5.102   4.527 -0.6280  0.0664 -0.6456
  292MOL    N9641418   5.722   5.120   4.538 -0.3640 -0.8853 -0.1267
  292MOL    H9741419   5.474   4.980   4.317 -0.8859  0.7233 -1.4429
  292MOL    H9841420   5.404   5.152   4.333  1.2449  0.6385 -0.6808
  292MOL    H9941421   5.434   4.996   4.576  0.0509  0.5383  1.3366
  292MOL   C10041422   5.393   5.206   4.577  0.6193  0.2054  0.1817
  292MOL   C10141423   5.402   5.223   4.730 -1.0444 -0.1684  0.3690
  292MOL   C10241424   5.363   5.359   4.771  1.1515 -0.0534  0.2177
  292MOL   N10341425   5.337   5.467   4.802 -0.4830  0.3405 -0.1237
  292MOL   H10441426   5.426   5.295   4.524  1.6621  0.1891  0.7867
  292MOL   H10541427   5.288   5.189   4.554  0.5645  0.1539  0.4615
  292MOL   H10641428   5.510   5.205   4.736 -0.6951  1.7940  0.3422
  292MOL   C10741429   5.341   5.105   4.812  0.3673 -0.0367 -0.2697
  292MOL   C10841430   5.313   5.139   4.956 -0.5852  0.2753 -0.2353
  292MOL   C10941431   5.205   5.060   5.012  0.7212 -0.3197 -0.4251
  292MOL   N11041432   5.120   4.994   5.057 -0.0541 -0.1733  0.0237
  292MOL   H11141433   5.246   5.096   4.760  0.2166  2.1225 -0.4405
  292MOL   H11241434   5.390   5.009   4.801  2.4757  0.7442  1.8309
  292MOL   H11341435   5.286   5.243   4.971  1.8134  0.7055  1.4542
  292MOL   C11441436   5.441   5.117   5.036  0.2106 -0.0115 -0.2608
  292MOL   C11541437   5.429   5.112   5.195 -0.4531  0.0698  0.4532
  292MOL   C11641438   5.565   5.079   5.248 -0.7371  0.3366 -0.2154
  292MOL   N11741439   5.663   5.045   5.295 -0.6591 -0.2977  0.1263
  292MOL   H11841440   5.511   5.037   5.013 -3.5242 -3.3917 -0.3885
  292MOL   H11941441   5.503   5.204   5.013  1.4007 -0.7664  0.0845
  292MOL   H12041442   5.373   5.020   5.210  2.1823 -1.6343  0.0971
  292MOL   C12141443   5.358   5.236   5.254 -0.1065 -0.4298  0.2043
  292MOL   C12241444   5.285   5.215   5.397 -0.2866  0.4979  0.4086
  292MOL   C12341445   5.375   5.139   5.491  0.4395 -0.2470  0.2634
  292MOL   N12441446   5.438   5.074   5.565  0.6903  0.4587  0.3270
  292MOL   H12541447   5.435   5.312   5.264  0.3453 -0.9797  0.9785
  292MOL   H12641448   5.284   5.277   5.185 -1.5115  1.5839  2.8001
  292MOL   H12741449   5.199   5.148   5.385  0.0935 -0.3096  2.1219
  292MOL   C12841450   5.226   5.343   5.449  0.5584  0.0176 -0.8820
  292MOL   C12941451   5.101   5.317   5.536  0.4039  0.5982 -0.5608
  292MOL   C13041452   5.133   5.242   5.662 -0.1500  0.0501 -0.0620
  292MOL   N13141453   5.152   5.187   5.760 -0.6926 -0.0370 -0.3876
  292MOL   H13241454   5.297   5.413   5.492  3.5213 -1.5807 -2.9825
  292MOL   H13341455   5.202   5.409   5.365  0.5836 -0.2940 -1.1311
  292MOL   H13441456   5.025   5.267   5.475  1.5192 -1.0494 -0.6634
  292MOL   C13541457   5.026   5.449   5.566 -0.1308 -0.2148 -1.0454
  292MOL   C13641458   5.097   5.522   5.681 -0.3711 -0.2965 -0.0139
  292MOL   C13741459   5.056   5.661   5.688  0.4177 -0.3428  0.2120
  292MOL   N13841460   5.012   5.770   5.700 -0.1668  0.5179 -0.1482
  292MOL   H13941461   5.026   5.509   5.474 -1.7946 -0.7331 -1.3916
  292MOL   H14041462   4.924   5.426   5.595  1.3039 -4.6653  0.8188
  292MOL   H14141463   5.206   5.516   5.670 -0.4276 -0.7238 -0.3441
  292MOL   H14241464   5.074   5.472   5.775  0.7318 -1.0120 -0.1107
  293MOL     C141465   8.018   5.945   1.848 -0.7313  0.5897 -0.2461
  293MOL     C241466   7.949   5.830   1.766 -0.5200 -0.0468 -0.1264
  293MOL     C341467   7.805   5.836   1.777  0.7991 -0.0104  0.1372
  293MOL     N441468   7.686   5.845   1.787  0.4801  0.4895 -0.7791
  293MOL     H541469   8.125   5.924   1.858 -1.2470 -1.2549  1.8773
  293MOL     H641470   7.973   5.950   1.947 -1.2172  1.8561 -0.5222
  293MOL     H741471   7.980   5.736   1.813  1.4967 -0.6190 -2.5204
  293MOL     H841472   8.005   6.038   1.792 -0.0148  0.7061 -0.2212
  293MOL     C941473   8.001   5.826   1.622  0.6365 -0.7587 -0.0700
  293MOL    C1041474   7.932   5.930   1.533 -0.2547 -0.3162  0.6171
  293MOL    C1141475   8.008   6.055   1.537 -0.1508 -0.3381  0.5200
  293MOL    N1241476   8.067   6.156   1.544 -0.2715  0.4071  0.7913
  293MOL    H1341477   8.109   5.843   1.625  0.2466  1.8226  0.2156
  293MOL    H1441478   7.987   5.725   1.581 -1.6303 -0.3728 -0.3240
  293MOL    H1541479   7.839   5.973   1.570  0.0841  1.6715 -0.7458
  293MOL    C1641480   7.923   5.881   1.386 -0.7433 -0.1830 -0.8123
  293MOL    C1741481   7.816   5.771   1.368 -0.7333  0.7561  0.5391
  293MOL    C1841482   7.688   5.820   1.417  0.0484  0.0148 -0.1115
  293MOL    N1941483   7.584   5.856   1.457 -0.2649  0.2358 -0.1345
  293MOL    H2041484   7.879   5.959   1.324  1.8634  0.2700 -2.1739
  293MOL    H2141485   8.011   5.841   1.336 -0.0786  0.5393 -0.2241
  293MOL    H2241486   7.843   5.691   1.437 -1.1034  0.9250  0.8871
  293MOL    C2341487   7.822   5.704   1.226 -0.0956 -0.2806  0.2839
  293MOL    C2441488   7.715   5.599   1.184 -0.0409 -0.7790  0.2072
  293MOL    C2541489   7.625   5.658   1.084  0.1333  0.0172 -0.1819
  293MOL    N2641490   7.559   5.700   1.004 -0.3019  0.3545 -0.8553
  293MOL    H2741491   7.809   5.794   1.164  0.0947  0.0864  0.7772
  293MOL    H2841492   7.925   5.677   1.205  0.2552  1.8494 -0.9653
  293MOL    H2941493   7.650   5.579   1.269 -0.4571  0.2523  0.1358
  293MOL    C3041494   7.786   5.476   1.134 -0.1191 -0.2717  0.2719
  293MOL    C3141495   7.687   5.370   1.080 -0.3602  0.4886 -0.0361
  293MOL    C3241496   7.711   5.347   0.935  0.7891 -0.4619  0.4263
  293MOL    N3341497   7.734   5.323   0.825 -0.4293 -0.1053 -0.9433
  293MOL    H3441498   7.853   5.509   1.054 -1.9760 -0.4230 -1.3928
  293MOL    H3541499   7.823   5.436   1.228  1.9919 -0.1561 -0.4970
  293MOL    H3641500   7.584   5.407   1.072 -0.3783  0.6602  0.9145
  293MOL    C3741501   7.672   5.245   1.166 -1.1589 -0.1688  0.7352
  293MOL    C3841502   7.593   5.120   1.109 -0.5346  0.2144 -0.3039
  293MOL    C3941503   7.594   4.998   1.194  0.1176 -0.1183  0.2900
  293MOL    N4041504   7.594   4.905   1.264  0.2491  0.3904  0.4929
  293MOL    H4141505   7.767   5.200   1.195 -2.0363 -1.5997  1.4937
  293MOL    H4241506   7.636   5.275   1.265 -0.3157  0.1270  0.9516
  293MOL    H4341507   7.647   5.096   1.017 -1.2866 -1.7038 -0.2639
  293MOL    C4441508   7.449   5.147   1.065 -0.6077  0.2439  0.4603
  293MOL    C4541509   7.354   5.174   1.179 -0.1263 -0.6917  0.3833
  293MOL    C4641510   7.384   5.305   1.241 -0.3474  0.1760  0.6345
  293MOL    N4741511   7.405   5.409   1.291  0.1279  0.1131 -0.5113
  293MOL    H4841512   7.454   5.218   0.983  0.7079 -2.3209 -1.7177
  293MOL    H4941513   7.414   5.061   1.009 -2.8539  0.9204  0.7594
  293MOL    H5041514   7.382   5.102   1.256  1.1336 -0.3224  0.2765
  293MOL    C5141515   7.202   5.167   1.139  0.1332  0.2316 -0.3745
  293MOL    C5241516   7.098   5.141   1.255  0.2804  0.1219 -0.1692
  293MOL    C5341517   7.147   5.196   1.381 -0.6788 -0.6544  0.8001
  293MOL    N5441518   7.182   5.235   1.480 -0.0050  0.7714  0.1663
  293MOL    H5541519   7.171   5.261   1.095 -1.7216 -0.0960  0.2042
  293MOL    H5641520   7.199   5.103   1.050 -1.0519  0.5520 -0.5653
  293MOL    H5741521   7.112   5.033   1.267  1.4050  0.2816  0.0400
  293MOL    C5841522   6.957   5.186   1.212  0.9736  0.0468 -0.7132
  293MOL    C5941523   6.891   5.113   1.092  0.7196  0.2214  0.1630
  293MOL    C6041524   6.875   4.970   1.112 -0.1107 -0.0982 -0.2858
  293MOL    N6141525   6.867   4.855   1.129  0.1042 -1.1318  0.0901
  293MOL    H6241526   6.892   5.164   1.297  1.6752  0.1203 -0.1518
  293MOL    H6341527   6.932   5.292   1.215 -2.4933 -0.7391  2.6161
  293MOL    H6441528   6.972   5.109   1.018 -2.2697 -0.4314 -3.2377
  293MOL    C6541529   6.763   5.184   1.043  0.1457 -0.5254 -0.1521
  293MOL    C6641530   6.698   5.146   0.905  0.2284  0.0887  0.8354
  293MOL    C6741531   6.631   5.012   0.917  0.6539  0.0283  0.4232
  293MOL    N6841532   6.581   4.909   0.928  0.2049 -0.0223 -0.1871
  293MOL    H6941533   6.691   5.188   1.124  0.5230  0.7837  0.1214
  293MOL    H7041534   6.789   5.290   1.041 -3.3519  0.5524  3.6086
  293MOL    H7141535   6.775   5.138   0.828  0.7694 -1.0118  1.4741
  293MOL    C7241536   6.587   5.245   0.865 -0.1581  0.2655 -0.0509
  293MOL    C7341537   6.560   5.276   0.716 -0.4992 -0.0248 -0.3169
  293MOL    C7441538   6.662   5.352   0.652 -0.3780  0.0080 -0.6820
  293MOL    N7541539   6.750   5.412   0.598  0.5356 -0.2399  0.4103
  293MOL    H7641540   6.496   5.222   0.919 -0.4482  1.4637 -0.0044
  293MOL    H7741541   6.623   5.334   0.916  0.9428 -0.0135 -0.3202
  293MOL    H7841542   6.468   5.333   0.712 -0.7444 -0.3395  0.7757
  293MOL    C7941543   6.525   5.143   0.637 -0.2113  0.1220 -0.6493
  293MOL    C8041544   6.468   5.156   0.501  0.2096 -0.2115 -0.6588
  293MOL    C8141545   6.500   5.032   0.421  0.2403 -0.0491  0.1188
  293MOL    N8241546   6.518   4.933   0.367 -0.2159 -0.5090  0.2060
  293MOL    H8341547   6.619   5.089   0.621  0.8782  1.5084  0.9459
  293MOL    H8441548   6.458   5.078   0.694 -0.8902  1.5347  0.1815
  293MOL    H8541549   6.524   5.240   0.461 -0.5843  1.5429  1.8155
  293MOL    C8641550   6.320   5.190   0.493  0.4695  0.4210 -0.1354
  293MOL    C8741551   6.271   5.243   0.358  0.1538 -0.1653  0.3222
  293MOL    C8841552   6.285   5.156   0.242 -0.7302  0.8145  0.3748
  293MOL    N8941553   6.301   5.088   0.147 -0.0652 -0.2184 -0.1820
  293MOL    H9041554   6.265   5.098   0.511  1.8540 -0.4786 -0.4146
  293MOL    H9141555   6.305   5.256   0.579 -0.3843 -1.2180  1.0030
  293MOL    H9241556   6.320   5.334   0.326 -0.8473  0.8487  1.6212
  293MOL    C9341557   6.127   5.282   0.377  0.5326 -0.7414  0.3058
  293MOL    C9441558   6.072   5.379   0.272  0.1377 -0.0229  0.7153
  293MOL    C9541559   6.103   5.358   0.132  0.0963  0.1875  0.5639
  293MOL    N9641560   6.130   5.346   0.019 -0.1622  0.8203 -0.4014
  293MOL    H9741561   6.057   5.201   0.398  1.4806 -1.3350  1.2006
  293MOL    H9841562   6.121   5.333   0.474  0.1178 -0.2960  0.0444
  293MOL    H9941563   6.111   5.478   0.297 -0.0729  0.1219  0.4793
  293MOL   C10041564   5.922   5.391   0.295  0.0838  0.8956 -0.5018
  293MOL   C10141565   5.840   5.452   0.176 -0.1706  0.4760 -0.1639
  293MOL   C10241566   5.809   5.353   0.076  0.4163 -0.5670 -0.1204
  293MOL   N10341567   5.781   5.275   8.306  0.1781 -0.3648 -0.2216
  293MOL   H10441568   5.870   5.299   0.321  0.2860  0.7812 -0.5078
  293MOL   H10541569   5.911   5.460   0.379  1.2645 -0.4918  0.8139
  293MOL   H10641570   5.905   5.520   0.122  2.1693 -2.1245 -0.7140
  293MOL   C10741571   5.714   5.521   0.224 -0.8040 -0.2556  0.3221
  293MOL   C10841572   5.649   5.618   0.122  0.1392  0.4049  0.4046
  293MOL   C10941573   5.502   5.634   0.146  0.2640 -0.0246  0.7059
  293MOL   N11041574   5.386   5.638   0.175  0.2482 -0.1082 -0.0320
  293MOL   H11141575   5.634   5.451   0.248 -0.0063 -1.5147 -0.6430
  293MOL   H11241576   5.724   5.568   0.322  0.3069  1.0061 -0.3715
  293MOL   H11341577   5.662   5.555   0.034 -0.6867 -0.3596  0.8197
  293MOL   C11441578   5.711   5.759   0.124  0.2889  0.4464 -0.8167
  293MOL   C11541579   5.736   5.811   8.297  0.3470 -0.4499 -0.1687
  293MOL   C11641580   5.646   5.754   8.188 -0.6002 -0.0072 -0.4116
  293MOL   N11741581   5.568   5.709   8.110  0.2601 -0.5603 -0.0121
  293MOL   H11841582   5.650   5.830   0.179 -0.2949 -2.1625  2.0175
  293MOL   H11941583   5.810   5.757   0.171  0.0943 -0.5289 -0.4359
  293MOL   H12041584   5.821   5.761   8.251 -0.5850 -1.5788 -0.7042
  293MOL   C12141585   5.761   5.964   8.280 -0.6201  1.0478 -0.4224
  293MOL   C12241586   5.890   6.011   0.035 -0.5257 -0.4335 -0.1007
  293MOL   C12341587   5.995   5.912   0.024  0.6512  0.2691  0.2993
  293MOL   N12441588   6.082   5.838   0.023  0.2320  0.1484  0.4631
  293MOL   H12541589   5.781   5.970   8.173  0.4038 -1.2070 -0.4056
  293MOL   H12641590   5.677   6.028   8.305 -0.8026  1.6417 -2.4963
  293MOL   H12741591   5.866   6.016   0.141  0.7079  1.7582  0.1118
  293MOL   C12841592   5.937   6.152   8.307 -0.1138 -0.0356 -0.2551
  293MOL   C12941593   6.066   6.204   0.044  0.0874 -0.0875  0.0482
  293MOL   C13041594   6.117   6.306   8.260 -0.3336 -0.4415 -0.4805
  293MOL   N13141595   6.167   6.383   8.185  0.0317  0.6999  0.1062
  293MOL   H13241596   5.946   6.161   8.199  0.8229  0.1129 -0.1701
  293MOL   H13341597   5.856   6.222   0.016  0.6361  1.1589 -1.2390
  293MOL   H13441598   6.145   6.129   0.043 -1.2885 -1.5689  0.9523
  293MOL   C13541599   6.070   6.259   0.191 -0.7465 -0.0930  0.0413
  293MOL   C13641600   6.215   6.225   0.239 -0.3426 -0.3833 -0.1073
  293MOL   C13741601   6.257   6.287   0.366 -0.6634  0.0380  0.7007
  293MOL   N13841602   6.295   6.328   0.467 -0.5129  0.1008  0.1588
  293MOL   H13941603   6.053   6.366   0.184 -0.5361 -0.1631 -1.5658
  293MOL   H14041604   6.000   6.223   0.267  0.3572 -1.1839  0.5633
  293MOL   H14141605   6.289   6.235   0.160  1.4957 -1.5115  1.4449
  293MOL   H14241606   6.227   6.119   0.258  0.0090 -0.5204 -1.0952
  294MOL     C141607   3.606   6.206   0.035  0.6952  0.0967 -0.5169
  294MOL     C241608   3.480   6.156   8.268 -0.5249  0.5333 -0.4702
  294MOL     C341609   3.497   6.180   8.120 -0.2548 -0.7587 -1.2185
  294MOL     N441610   3.511   6.198   8.006 -0.0599 -0.4057 -0.1549
  294MOL     H541611   3.609   6.315   0.029 -1.9662  0.2262 -0.2352
  294MOL     H641612   3.694   6.159   8.304  0.9231 -0.1088  0.1756
  294MOL     H741613   3.388   6.198   8.307 -1.0968 -0.2241 -0.9992
  294MOL     H841614   3.593   6.161   0.134 -0.6290 -1.1163 -1.2115
  294MOL     C941615   3.457   6.008   8.295 -0.0719  0.6646  0.0660
  294MOL    C1041616   3.528   5.896   8.221 -0.1613 -0.0714 -0.0494
  294MOL    C1141617   3.670   5.895   8.232  0.0232  0.3856  0.7637
  294MOL    N1241618   3.783   5.902   8.238 -0.0746 -0.0307 -0.6482
  294MOL    H1341619   3.460   5.988   0.090  1.4528  1.0776  0.1125
  294MOL    H1441620   3.355   6.007   8.256  0.3936 -1.6658 -1.1358
  294MOL    H1541621   3.514   5.912   8.114 -0.0441  1.0188  0.0902
  294MOL    C1641622   3.469   5.765   8.274  0.0407 -0.4464 -0.1955
  294MOL    C1741623   3.536   5.638   8.212 -0.6611  0.1539 -0.4981
  294MOL    C1841624   3.470   5.527   8.276 -0.9190 -0.2783  0.2383
  294MOL    N1941625   3.407   5.443   0.020  0.1617 -0.2975  0.2646
  294MOL    H2041626   3.490   5.761   0.069 -0.6687 -0.6731 -0.0640
  294MOL    H2141627   3.362   5.762   8.253 -0.0122 -1.1439  0.1723
  294MOL    H2241628   3.642   5.623   8.233 -0.1386  2.4351 -1.3814
  294MOL    C2341629   3.516   5.631   8.059 -0.2656  0.1218  0.1206
  294MOL    C2441630   3.582   5.513   7.982 -0.7298  0.5007  0.2105
  294MOL    C2541631   3.522   5.387   8.011  0.4950  0.2031 -0.3867
  294MOL    N2641632   3.474   5.285   8.033 -0.7114 -0.2275  0.1403
  294MOL    H2741633   3.408   5.630   8.041 -0.0860  2.1930 -1.1843
  294MOL    H2841634   3.550   5.727   8.019  0.7508 -0.5276 -0.5646
  294MOL    H2941635   3.676   5.503   8.036  0.3963  0.3150 -1.7315
  294MOL    C3041636   3.610   5.527   7.834  0.3151 -0.3079  0.1882
  294MOL    C3141637   3.499   5.484   7.739  0.4977  0.1933  0.2174
  294MOL    C3241638   3.377   5.560   7.773 -0.2437  0.1040  0.4369
  294MOL    N3341639   3.283   5.617   7.794 -0.3109  0.7041 -0.3738
  294MOL    H3441640   3.632   5.631   7.810 -1.2447  0.4147  1.7612
  294MOL    H3541641   3.689   5.462   7.798  0.3672 -0.2806  0.2538
  294MOL    H3641642   3.464   5.381   7.748 -0.0246  0.2504 -1.1550
  294MOL    C3741643   3.536   5.471   7.589 -0.3697  0.1044 -1.0478
  294MOL    C3841644   3.425   5.420   7.496 -0.5989 -0.0360 -0.1314
  294MOL    C3941645   3.447   5.465   7.366 -0.7352 -0.3132  0.6355
  294MOL    N4041646   3.477   5.500   7.259 -0.1741 -0.4798 -0.5682
  294MOL    H4141647   3.569   5.572   7.563  0.6543  0.2839  0.8491
  294MOL    H4241648   3.630   5.416   7.582 -0.2027  0.1967  0.3336
  294MOL    H4341649   3.327   5.458   7.524 -1.9303 -2.6343 -1.0508
  294MOL    C4441650   3.426   5.260   7.512 -0.1155 -0.8667 -0.2463
  294MOL    C4541651   3.315   5.181   7.436 -0.0395  0.6882  0.2404
  294MOL    C4641652   3.189   5.253   7.411 -0.6686 -0.3304  0.0491
  294MOL    N4741653   3.088   5.305   7.390 -0.4254 -0.8479 -0.2637
  294MOL    H4841654   3.525   5.220   7.493  0.3762 -0.4502  1.3524
  294MOL    H4941655   3.419   5.247   7.620  0.1617  0.4540 -0.0537
  294MOL    H5041656   3.287   5.095   7.497 -1.2462  0.0301 -1.2288
  294MOL    C5141657   3.382   5.145   7.300  0.7220  0.1683  0.1731
  294MOL    C5241658   3.322   5.040   7.204 -0.3737  0.2775  0.1476
  294MOL    C5341659   3.231   4.947   7.269 -0.3741 -0.6771  0.2233
  294MOL    N5441660   3.158   4.875   7.323  0.2548  0.8934  0.5869
  294MOL    H5541661   3.392   5.239   7.247 -0.7118 -1.0373 -2.3226
  294MOL    H5641662   3.484   5.110   7.316  0.3823 -0.2518  1.4665
  294MOL    H5741663   3.413   4.991   7.169 -0.4318  0.2668  0.0130
  294MOL    C5841664   3.268   5.106   7.074 -0.1430 -0.1199 -0.3575
  294MOL    C5941665   3.370   5.173   6.976  1.1194 -0.0807 -0.4047
  294MOL    C6041666   3.415   5.068   6.882  0.2821  0.5592  0.8528
  294MOL    N6141667   3.456   4.991   6.805 -0.5136 -0.7176 -0.4221
  294MOL    H6241668   3.194   5.046   7.020  0.1135 -0.7004 -0.0755
  294MOL    H6341669   3.212   5.191   7.113  0.5171 -0.9783  2.6165
  294MOL    H6441670   3.466   5.212   7.011  1.1521  0.8554 -1.4946
  294MOL    C6541671   3.311   5.290   6.894  0.5543 -0.2519 -0.2493
  294MOL    C6641672   3.250   5.409   6.970  0.4809  0.5907  0.5860
  294MOL    C6741673   3.309   5.530   6.905  0.3885  0.1023  0.2845
  294MOL    N6841674   3.350   5.630   6.858  0.3387  0.5662 -0.2268
  294MOL    H6941675   3.385   5.319   6.819 -0.0890  4.5497  0.8297
  294MOL    H7041676   3.230   5.242   6.840  1.9886 -2.7704 -0.2607
  294MOL    H7141677   3.279   5.414   7.075  0.7601 -1.3039  0.6253
  294MOL    C7241678   3.094   5.409   6.985  0.2925  0.3826 -0.6866
  294MOL    C7341679   3.021   5.528   7.049  0.9252  0.5904 -0.1987
  294MOL    C7441680   2.882   5.492   7.083 -0.2181 -0.4303 -0.1819
  294MOL    N7541681   2.775   5.467   7.109 -0.0928 -0.0533 -0.1552
  294MOL    H7641682   3.050   5.392   6.887 -1.6022 -1.5897  0.4786
  294MOL    H7741683   3.062   5.320   7.038  2.1278  2.3266  3.9508
  294MOL    H7841684   3.011   5.601   6.970  0.2652  0.6859 -0.0262
  294MOL    C7941685   3.107   5.590   7.168  0.0610  0.0569 -0.0335
  294MOL    C8041686   3.045   5.707   7.239 -0.6716 -0.2103 -0.7624
  294MOL    C8141687   3.139   5.760   7.344 -0.2332  0.0235  0.6259
  294MOL    N8241688   3.210   5.801   7.419 -0.0511  0.2631 -0.4582
  294MOL    H8341689   3.114   5.506   7.237 -1.3682  0.5328  0.7063
  294MOL    H8441690   3.211   5.602   7.138 -0.3497 -1.5599 -2.3052
  294MOL    H8541691   2.956   5.674   7.292 -0.4336  2.5022  1.4438
  294MOL    C8641692   3.004   5.818   7.145 -0.9020 -0.4320 -0.5060
  294MOL    C8741693   2.934   5.935   7.219  0.7560  0.7229 -0.1521
  294MOL    C8841694   3.022   6.049   7.244 -0.2743  0.4422  0.2939
  294MOL    N8941695   3.093   6.141   7.265  0.3753 -0.1782 -0.1332
  294MOL    H9041696   3.092   5.856   7.094 -0.5421  0.6462  0.8948
  294MOL    H9141697   2.949   5.795   7.054  1.1506 -0.2834 -1.8104
  294MOL    H9241698   2.914   5.904   7.321 -0.5003 -1.1233 -0.9301
  294MOL    C9341699   2.788   5.964   7.160 -0.3293  0.3797 -0.5459
  294MOL    C9441700   2.706   6.067   7.243 -0.0339 -0.3196 -0.1641
  294MOL    C9541701   2.637   6.165   7.154  0.0708  0.1919  0.7972
  294MOL    N9641702   2.582   6.244   7.096 -0.1884  0.0718  0.7648
  294MOL    H9741703   2.791   6.000   7.057 -0.4159  1.4200 -0.1885
  294MOL    H9841704   2.741   5.867   7.144  0.3976  0.1770 -1.5473
  294MOL    H9941705   2.775   6.137   7.290  2.2077 -2.3372 -0.3827
  294MOL   C10041706   2.615   5.995   7.348  0.4211 -0.5103 -0.8265
  294MOL   C10141707   2.545   6.082   7.453  0.0449 -1.1202  0.2161
  294MOL   C10241708   2.435   6.151   7.386  0.6620 -0.8291  0.6262
  294MOL   N10341709   2.340   6.203   7.339 -0.7921  0.4958  0.1957
  294MOL   H10441710   2.547   5.923   7.301 -0.7213 -1.0261  1.5696
  294MOL   H10541711   2.695   5.941   7.398 -1.0913 -1.0784  1.0206
  294MOL   H10641712   2.627   6.147   7.483  1.9901 -3.2228 -0.4084
  294MOL   C10741713   2.497   6.005   7.579  0.7093 -0.8355  0.0273
  294MOL   C10841714   2.437   6.093   7.695 -0.1301 -0.4219 -0.1889
  294MOL   C10941715   2.328   6.188   7.675 -0.1791  0.3449  0.2543
  294MOL   N11041716   2.236   6.258   7.664 -0.0634 -0.4195 -0.3159
  294MOL   H11141717   2.425   5.933   7.542  0.4234 -0.3630 -0.3471
  294MOL   H11241718   2.578   5.950   7.626  0.3306 -1.6948 -0.3144
  294MOL   H11341719   2.522   6.157   7.722  0.6190 -0.3864 -2.5428
  294MOL   C11441720   2.400   6.013   7.821 -0.4811 -0.4300 -0.5274
  294MOL   C11541721   2.503   5.918   7.885  0.1612 -0.6290  0.1851
  294MOL   C11641722   2.642   5.974   7.882  0.6611  0.1073 -0.0042
  294MOL   N11741723   2.749   6.018   7.866  0.3871 -0.5595  0.1307
  294MOL   H11841724   2.367   6.082   7.899  1.6696  0.5785 -0.4997
  294MOL   H11941725   2.301   5.968   7.807  0.3881 -2.0255 -1.6198
  294MOL   H12041726   2.513   5.837   7.813 -0.6325  0.2145 -0.8792
  294MOL   C12141727   2.458   5.860   8.019 -0.0665 -0.2999 -0.0534
  294MOL   C12241728   2.312   5.804   8.022  0.3836 -0.1255  0.7829
  294MOL   C12341729   2.305   5.698   7.917  0.4425  0.4281 -0.4602
  294MOL   N12441730   2.290   5.614   7.842  0.0559  0.1691 -0.0522
  294MOL   H12541731   2.516   5.777   8.058  0.8100  0.8457  1.1445
  294MOL   H12641732   2.474   5.933   8.098  1.6540 -0.8314  0.1199
  294MOL   H12741733   2.245   5.886   7.998  0.2469 -0.6271 -0.6000
  294MOL   C12841734   2.280   5.729   8.158 -0.1005 -0.9253  0.6087
  294MOL   C12941735   2.132   5.702   8.186  0.0179  0.1024 -0.7325
  294MOL   C13041736   2.083   5.583   8.106 -1.2436 -0.1558  0.3132
  294MOL   N13141737   2.045   5.494   8.038  0.5855  0.2301 -0.2206
  294MOL   H13241738   2.334   5.635   8.155  0.8670 -0.3974  1.0794
  294MOL   H13341739   2.313   5.797   8.237  0.6090  1.0706 -1.3433
  294MOL   H13441740   2.075   5.794   8.168 -1.5639 -0.6733  0.2126
  294MOL   C13541741   2.103   5.677   0.026  0.0137 -0.4750  0.0317
  294MOL   C13641742   1.958   5.690   0.068 -0.3857  0.3071  1.2458
  294MOL   C13741743   1.889   5.820   0.054  0.8557 -0.8688 -0.3272
  294MOL   N13841744   1.833   5.921   0.042  0.6685  0.7727  0.7656
  294MOL   H13941745   2.148   5.581   0.050  0.5687 -0.4212 -0.7575
  294MOL   H14041746   2.156   5.745   0.093 -0.4288 -2.7510  2.7668
  294MOL   H14141747   1.942   5.667   0.173 -0.6119 -0.1660  1.1083
  294MOL   H14241748   1.896   5.619   0.013 -0.2314  0.0224  1.4411
  295MOL     C141749   5.996   7.907   2.030 -0.7216  0.6870  0.0259
  295MOL     C241750   5.937   7.940   2.163  0.0502 -0.3658  0.4205
  295MOL     C341751   5.996   7.856   2.268 -0.2116  0.3341 -0.0842
  295MOL     N441752   6.042   7.787   2.345 -0.4894 -0.3556  0.4324
  295MOL     H541753   5.975   7.806   1.996 -0.3505  0.7529 -0.3949
  295MOL     H641754   6.104   7.917   2.038 -0.3062 -1.2058 -2.6468
  295MOL     H741755   5.830   7.921   2.174  0.2206 -0.3888  2.1660
  295MOL     H841756   5.965   7.982   1.957 -3.2467 -1.2434 -0.9738
  295MOL     C941757   5.958   8.086   2.199  0.2055  0.2374 -0.2966
  295MOL    C1041758   6.099   8.141   2.221  0.0742 -0.1052 -0.3941
  295MOL    C1141759   6.106   8.286   2.231 -0.3427  0.7280  0.1974
  295MOL    N1241760   6.112   0.090   2.244 -0.6275 -0.0500  0.6073
  295MOL    H1341761   5.917   8.146   2.117  0.8392  1.8086  0.5197
  295MOL    H1441762   5.901   8.116   2.287  0.2282  0.1020 -0.2355
  295MOL    H1541763   6.163   8.129   2.134  0.8176  0.2005  0.1008
  295MOL    C1641764   6.178   8.075   2.342  0.4690 -0.2116 -0.3853
  295MOL    C1741765   6.297   7.985   2.324 -0.1548  0.3762  0.1395
  295MOL    C1841766   6.386   8.029   2.212 -0.1259  0.1385 -0.1041
  295MOL    N1941767   6.462   8.066   2.130 -0.6968 -0.2974  0.5017
  295MOL    H2041768   6.221   8.162   2.392 -2.7218  0.8174  0.6814
  295MOL    H2141769   6.116   8.046   2.427  2.5994 -0.8924  0.9706
  295MOL    H2241770   6.256   7.890   2.290 -2.8197  1.2937  0.7184
  295MOL    C2341771   6.362   7.968   2.458 -0.7015  0.3561  0.0553
  295MOL    C2441772   6.499   7.894   2.462 -0.2404 -0.3635 -0.7202
  295MOL    C2541773   6.599   7.947   2.552 -0.3523 -1.4204 -0.2407
  295MOL    N2641774   6.677   7.989   2.621  0.3451  0.0310  0.2522
  295MOL    H2741775   6.373   8.064   2.509 -3.2285  0.2744  0.8170
  295MOL    H2841776   6.286   7.928   2.525 -1.4307  0.8417 -0.4642
  295MOL    H2941777   6.540   7.899   2.361 -1.2691 -0.8286 -1.1639
  295MOL    C3041778   6.481   7.747   2.507  0.0319 -0.4434 -0.1060
  295MOL    C3141779   6.387   7.664   2.422 -0.7631 -0.1221 -0.3908
  295MOL    C3241780   6.414   7.668   2.277  0.3973 -0.3046 -0.9009
  295MOL    N3341781   6.433   7.680   2.165  0.5335 -0.3109 -0.0250
  295MOL    H3441782   6.581   7.707   2.490  0.6610  1.9307 -2.2114
  295MOL    H3541783   6.446   7.746   2.610 -1.4570 -1.3390 -0.5991
  295MOL    H3641784   6.288   7.707   2.436  0.0525  1.6004  0.1553
  295MOL    C3741785   6.381   7.520   2.484  0.3201  0.9177 -0.3128
  295MOL    C3841786   6.290   7.421   2.410 -1.3101  0.0905 -0.0580
  295MOL    C3941787   6.302   7.279   2.457  0.0006  0.3435  0.2553
  295MOL    N4041788   6.301   7.170   2.496  0.3799  0.6225  0.3706
  295MOL    H4141789   6.480   7.475   2.498 -0.1584 -0.3800 -1.0973
  295MOL    H4241790   6.345   7.536   2.586  2.0682  1.0144  0.3147
  295MOL    H4341791   6.332   7.405   2.311  0.1115 -2.1701  0.8604
  295MOL    C4441792   6.147   7.456   2.390 -0.4409 -0.7460  0.7197
  295MOL    C4541793   6.056   7.472   2.508 -0.3061  0.2083 -0.4036
  295MOL    C4641794   6.090   7.578   2.602 -0.1734  0.0168  0.1098
  295MOL    N4741795   6.119   7.664   2.675  0.6908 -0.3827 -0.0952
  295MOL    H4841796   6.146   7.549   2.333  0.2202 -0.9826  0.3133
  295MOL    H4941797   6.108   7.381   2.320 -1.1077  1.4792 -1.3570
  295MOL    H5041798   6.064   7.375   2.556 -0.1497  1.0089  1.2136
  295MOL    C5141799   5.911   7.497   2.464  0.0022  0.1400  0.0064
  295MOL    C5241800   5.811   7.502   2.577  0.5180 -0.7024  0.2910
  295MOL    C5341801   5.678   7.558   2.543  0.0034 -0.1258  0.3235
  295MOL    N5441802   5.577   7.605   2.512  0.3250  0.2321 -0.3768
  295MOL    H5541803   5.910   7.592   2.410 -0.7732 -0.3798 -0.8914
  295MOL    H5641804   5.887   7.424   2.388  1.3582  0.8024 -1.0930
  295MOL    H5741805   5.847   7.576   2.648  0.2607 -1.0643  0.8081
  295MOL    C5841806   5.801   7.377   2.666 -0.6980  0.7714 -0.1631
  295MOL    C5941807   5.691   7.351   2.773 -0.5171 -0.2330 -0.1058
  295MOL    C6041808   5.660   7.485   2.837 -0.2692  0.4489  0.3937
  295MOL    N6141809   5.631   7.589   2.886  0.1717 -0.4851  0.4650
  295MOL    H6241810   5.790   7.297   2.593  1.3600 -0.0720  0.4312
  295MOL    H6341811   5.892   7.355   2.721  0.2444 -1.9008 -2.6913
  295MOL    H6441812   5.740   7.297   2.854  0.5098  0.7235 -0.0803
  295MOL    C6541813   5.562   7.269   2.737 -0.4909 -0.4274  0.1149
  295MOL    C6641814   5.452   7.253   2.837 -0.8372  0.3320 -0.5038
  295MOL    C6741815   5.341   7.204   2.754 -0.2448  0.3885  0.5671
  295MOL    N6841816   5.251   7.171   2.692  0.7379  0.1112 -0.2501
  295MOL    H6941817   5.523   7.327   2.654 -0.1701 -0.2372  0.0947
  295MOL    H7041818   5.578   7.170   2.694  1.2974 -1.1660  2.3739
  295MOL    H7141819   5.415   7.343   2.887  1.3027  2.4702 -2.6098
  295MOL    C7241820   5.493   7.147   2.949 -0.1197 -0.0893 -0.3566
  295MOL    C7341821   5.411   7.157   3.081 -0.3250  1.1662 -0.2318
  295MOL    C7441822   5.267   7.171   3.058 -0.6983  0.4167 -0.7819
  295MOL    N7541823   5.152   7.187   3.032 -0.5169  0.2911 -0.6773
  295MOL    H7641824   5.472   7.046   2.914 -0.6078  0.3816 -1.4394
  295MOL    H7741825   5.598   7.160   2.976 -0.3838  0.5132  0.3713
  295MOL    H7841826   5.430   7.259   3.113  1.3485  0.9397 -0.4487
  295MOL    C7941827   5.450   7.054   3.194  0.5229 -0.2397 -0.0745
  295MOL    C8041828   5.431   6.898   3.151 -0.5101 -0.7777  0.2171
  295MOL    C8141829   5.543   6.860   3.061  0.2517 -0.5334  0.0206
  295MOL    N8241830   5.630   6.825   2.994  0.0332 -0.0444  0.4607
  295MOL    H8341831   5.556   7.074   3.212  0.3004  2.0845 -1.1543
  295MOL    H8441832   5.398   7.087   3.284  0.6362 -0.6527  0.1408
  295MOL    H8541833   5.335   6.881   3.105 -0.2289  2.0247 -1.5452
  295MOL    C8641834   5.438   6.802   3.272 -0.4233  0.0383 -0.1082
  295MOL    C8741835   5.386   6.660   3.262  0.2314  0.4751 -0.0922
  295MOL    C8841836   5.382   6.591   3.391  0.3188  0.2538  0.5381
  295MOL    N8941837   5.383   6.538   3.494 -0.1648  0.6984  0.6120
  295MOL    H9041838   5.542   6.795   3.305  0.1404  0.1837 -1.8439
  295MOL    H9141839   5.386   6.856   3.352 -1.2800  0.9444 -1.2727
  295MOL    H9241840   5.462   6.603   3.208 -0.3375  1.7809 -2.3275
  295MOL    C9341841   5.257   6.638   3.191 -0.5635  1.3105 -0.5115
  295MOL    C9441842   5.138   6.698   3.258 -0.5241 -0.0695 -0.1941
  295MOL    C9541843   5.148   6.839   3.297  0.3917 -0.6757  0.5049
  295MOL    N9641844   5.153   6.954   3.319  0.9741  0.3889  0.0375
  295MOL    H9741845   5.259   6.664   3.085 -1.8423  0.9132 -0.6458
  295MOL    H9841846   5.247   6.530   3.189 -1.8445  1.4325 -1.4312
  295MOL    H9941847   5.139   6.656   3.358  0.5255  1.7952  0.6224
  295MOL   C10041848   5.002   6.656   3.200 -0.1221  0.6955 -0.1896
  295MOL   C10141849   4.966   6.512   3.195  0.4107  0.6724 -0.8433
  295MOL   C10241850   5.029   6.427   3.093 -0.5066 -0.1222  0.6832
  295MOL   N10341851   5.075   6.362   3.008 -0.3545  0.5781  0.6532
  295MOL   H10441852   4.942   6.717   3.268  2.4217  3.3401 -0.1938
  295MOL   H10541853   4.990   6.705   3.103  0.2903 -0.0994 -0.6459
  295MOL   H10641854   4.861   6.519   3.165 -0.5254  0.5729  2.2434
  295MOL   C10741855   4.984   6.447   3.336  0.1514  0.3662  0.0769
  295MOL   C10841856   4.909   6.308   3.342  0.0832  0.0828  0.4391
  295MOL   C10941857   4.962   6.214   3.444 -0.0101  0.1518  0.4808
  295MOL   N11041858   5.003   6.140   3.521 -0.1438  0.0260 -0.2685
  295MOL   H11141859   5.090   6.431   3.352  0.2768  1.7267  0.7101
  295MOL   H11241860   4.939   6.499   3.421 -2.7613 -4.2392  1.5455
  295MOL   H11341861   4.910   6.261   3.244  0.6292  2.5003 -0.7307
  295MOL   C11441862   4.761   6.342   3.362  0.6153  0.1163 -0.6235
  295MOL   C11541863   4.663   6.223   3.380  0.1799  0.0358 -0.5805
  295MOL   C11641864   4.696   6.125   3.488  0.0125  0.3037  0.7783
  295MOL   N11741865   4.721   6.048   3.568  0.1977 -0.3559  0.3480
  295MOL   H11841866   4.763   6.397   3.456  0.4025 -1.4029  0.2797
  295MOL   H11941867   4.722   6.412   3.288  0.4315  2.2008  1.3922
  295MOL   H12041868   4.662   6.164   3.289 -1.6297 -1.8107  0.5940
  295MOL   C12141869   4.518   6.284   3.401 -0.3314 -0.5411 -0.4777
  295MOL   C12241870   4.415   6.198   3.329 -0.6224 -0.2005 -0.1096
  295MOL   C12341871   4.376   6.081   3.413 -0.7370  0.5464  0.6094
  295MOL   N12441872   4.350   5.989   3.479  0.4018  0.1642 -0.2738
  295MOL   H12541873   4.483   6.298   3.503  1.2502 -1.7409  0.2443
  295MOL   H12641874   4.524   6.385   3.360 -1.4145  1.0763  3.1888
  295MOL   H12741875   4.453   6.162   3.234 -0.2197 -0.9858  0.3473
  295MOL   C12841876   4.291   6.275   3.303  0.3093  0.2365  0.1268
  295MOL   C12941877   4.292   6.384   3.191 -0.0246 -0.4797  0.3797
  295MOL   C13041878   4.310   6.330   3.060 -0.3317  0.2373  0.0216
  295MOL   N13141879   4.321   6.288   2.954 -0.9649  0.0555  0.4318
  295MOL   H13241880   4.205   6.213   3.278  0.0925  0.8899 -0.7776
  295MOL   H13341881   4.258   6.329   3.392  1.0319 -0.0952  0.6016
  295MOL   H13441882   4.373   6.453   3.213 -1.1699  0.6065  1.2370
  295MOL   C13541883   4.160   6.464   3.185 -0.4994  0.1956  0.2385
  295MOL   C13641884   4.161   6.567   3.070  0.1684  0.0073  0.3756
  295MOL   C13741885   4.043   6.652   3.045 -0.2711  0.3499 -0.1362
  295MOL   N13841886   3.962   6.722   3.024 -0.5130 -0.6495 -0.1840
  295MOL   H13941887   4.068   6.405   3.181  0.1230 -0.9602  2.1285
  295MOL   H14041888   4.149   6.518   3.279  2.0267  1.3120 -0.0756
  295MOL   H14141889   4.195   6.533   2.972  3.0466  1.1122  0.9283
  295MOL   H14241890   4.229   6.641   3.114 -0.4012 -0.5943  2.2910
  296MOL     C141891   7.047   2.626   3.463 -0.0753  0.3322  0.6246
  296MOL     C241892   7.179   2.662   3.528 -1.0372  0.0237 -0.4277
  296MOL     C341893   7.184   2.807   3.557 -0.2528  0.5620  0.5130
  296MOL     N441894   7.187   2.920   3.584 -0.7242  0.3858 -0.2629
  296MOL     H541895   7.018   2.703   3.391  1.1656 -0.2425 -0.5067
  296MOL     H641896   6.965   2.625   3.535 -1.4431  0.9468 -0.8884
  296MOL     H741897   7.259   2.638   3.458 -0.8384  3.6947 -1.5519
  296MOL     H841898   7.047   2.542   3.394 -1.7752  1.4435 -0.7760
  296MOL     C941899   7.210   2.585   3.661  0.3620 -0.3078  0.3183
  296MOL    C1041900   7.358   2.546   3.687  0.2030  0.3167  0.3930
  296MOL    C1141901   7.436   2.672   3.717 -0.0847 -0.0016  0.6434
  296MOL    N1241902   7.498   2.766   3.749 -0.3514  0.4874 -1.2373
  296MOL    H1341903   7.163   2.645   3.739  0.6369  1.8667 -1.1326
  296MOL    H1441904   7.153   2.493   3.673 -1.5617  0.3227 -3.1854
  296MOL    H1541905   7.401   2.506   3.595  0.9786  0.0550  0.8653
  296MOL    C1641906   7.373   2.443   3.798  0.1524 -0.2364  0.1741
  296MOL    C1741907   7.519   2.416   3.848 -0.2228 -0.3113 -0.4154
  296MOL    C1841908   7.502   2.306   3.942  0.0482 -0.5397  0.1033
  296MOL    N1941909   7.496   2.216   4.010 -0.1952 -0.3117  0.4301
  296MOL    H2041910   7.333   2.491   3.888  2.5587  1.0183  0.5991
  296MOL    H2141911   7.325   2.347   3.779 -0.4352 -0.1697  1.2222
  296MOL    H2241912   7.551   2.503   3.905 -1.6248  0.1612 -0.3285
  296MOL    C2341913   7.616   2.388   3.731 -0.1017  0.1815  0.4397
  296MOL    C2441914   7.763   2.382   3.785 -0.3760  0.2499 -0.4347
  296MOL    C2541915   7.789   2.281   3.886 -0.2156  0.1983 -0.2137
  296MOL    N2641916   7.814   2.201   3.968 -0.3767 -0.0264 -0.0797
  296MOL    H2741917   7.588   2.303   3.670  0.3383  0.0357  0.4403
  296MOL    H2841918   7.621   2.473   3.664  0.2885  1.3639  1.9354
  296MOL    H2941919   7.782   2.479   3.832 -2.6696  0.1810  0.7185
  296MOL    C3041920   7.861   2.343   3.672 -0.1988 -0.0155  0.0876
  296MOL    C3141921   8.000   2.399   3.686 -0.4234 -0.3524  0.2151
  296MOL    C3241922   7.999   2.543   3.674  0.1436 -0.6231 -0.7340
  296MOL    N3341923   8.001   2.654   3.664 -0.8969 -0.2490  0.1585
  296MOL    H3441924   7.881   2.236   3.673 -0.0404  0.0248  2.8094
  296MOL    H3541925   7.834   2.383   3.574  0.9595 -0.5677 -0.4728
  296MOL    H3641926   8.064   2.372   3.602 -0.9805  2.3181 -1.1560
  296MOL    C3741927   8.070   2.356   3.813  0.0289 -0.4527 -0.4307
  296MOL    C3841928   8.219   2.383   3.820 -0.0735  0.1677 -0.2948
  296MOL    C3941929   8.258   2.516   3.780 -0.3740 -0.8484 -0.3028
  296MOL    N4041930   8.294   2.626   3.750  0.4465 -0.2299  0.3564
  296MOL    H4141931   8.031   2.404   3.903 -0.2036 -0.9149 -0.2888
  296MOL    H4241932   8.059   2.250   3.833  2.0564 -0.4525  0.8007
  296MOL    H4341933   8.266   2.320   3.744  0.7747  2.0119 -1.3455
  296MOL    C4441934   8.275   2.340   3.964  0.2387  0.0355  0.1418
  296MOL    C4541935   0.101   2.396   4.012 -0.0180 -0.2761  1.1261
  296MOL    C4641936   0.119   2.358   4.154 -0.7388  0.0073  0.4034
  296MOL    N4741937   0.127   2.322   4.264 -0.7532  0.3195  0.5098
  296MOL    H4841938   8.191   2.366   4.029 -1.6643  0.9759 -2.6221
  296MOL    H4941939   8.267   2.232   3.971  0.1318 -0.1410 -2.2124
  296MOL    H5041940   0.108   2.504   4.000 -2.9013  0.0177  1.6112
  296MOL    C5141941   0.219   2.330   3.935 -0.1575 -0.0915 -0.0894
  296MOL    C5241942   0.354   2.398   3.950 -0.0234  0.4324  0.4945
  296MOL    C5341943   0.396   2.424   4.085 -0.5773  0.3076  0.1172
  296MOL    N5441944   0.434   2.444   4.192 -0.1188  0.4429 -0.1761
  296MOL    H5541945   0.229   2.227   3.970  0.8615  0.3132  0.8410
  296MOL    H5641946   0.207   2.327   3.827 -0.7952 -0.7225 -0.0104
  296MOL    H5741947   0.350   2.499   3.910 -1.6263  0.6991  1.2898
  296MOL    C5841948   0.459   2.317   3.868  0.5418 -0.3689 -0.5678
  296MOL    C5941949   0.460   2.320   3.709 -0.3502  0.0683  0.6041
  296MOL    C6041950   0.500   2.442   3.645 -0.0177 -0.4054  1.0745
  296MOL    N6141951   0.536   2.544   3.600 -0.0322 -0.2224  0.1725
  296MOL    H6241952   0.554   2.341   3.917 -0.2674 -1.0243  1.3815
  296MOL    H6341953   0.437   2.214   3.898 -1.1113  0.1989  0.2291
  296MOL    H6441954   0.358   2.312   3.670  0.5798  1.2559 -2.1443
  296MOL    C6541955   0.551   2.205   3.649  0.0170  0.4276 -0.0405
  296MOL    C6641956   0.470   2.147   3.525 -0.3137  0.5506  0.7602
  296MOL    C6741957   0.449   2.236   3.405  0.8069  0.0514  0.2798
  296MOL    N6841958   0.437   2.303   3.309  0.4424 -0.7901 -0.1649
  296MOL    H6941959   0.646   2.254   3.629  0.0891  0.8793  1.3147
  296MOL    H7041960   0.558   2.128   3.726 -1.1483  0.1439 -0.1981
  296MOL    H7141961   0.367   2.123   3.553 -0.3381 -3.3411 -2.1787
  296MOL    C7241962   0.535   2.016   3.478  0.0770 -0.3690  0.0467
  296MOL    C7341963   0.642   2.023   3.371  0.5424  0.5830  0.3519
  296MOL    C7441964   0.729   2.140   3.399 -0.6321 -0.0351  0.0364
  296MOL    N7541965   0.805   2.222   3.425 -0.9418 -0.1429  0.4787
  296MOL    H7641966   0.579   1.961   3.561 -1.2200  1.1035  1.7419
  296MOL    H7741967   0.455   1.957   3.434 -0.4439  0.0202  0.4627
  296MOL    H7841968   0.589   2.062   3.284  1.5487  0.0925 -0.4749
  296MOL    C7941969   0.705   1.892   3.347  0.5725  0.2989 -0.1109
  296MOL    C8041970   0.786   1.896   3.209 -0.7439 -0.2093 -0.6877
  296MOL    C8141971   0.892   2.000   3.198  0.1980 -0.0778 -1.6076
  296MOL    N8241972   0.975   2.076   3.188 -0.6819  0.1080  0.9856
  296MOL    H8341973   0.782   1.878   3.424  1.5146  0.4481 -1.0165
  296MOL    H8441974   0.637   1.808   3.337  0.3130  0.5798 -0.6949
  296MOL    H8541975   0.711   1.928   3.137  0.2121 -1.0989 -2.1080
  296MOL    C8641976   0.824   1.752   3.164  0.5894  0.1479  0.0729
  296MOL    C8741977   0.887   1.722   3.029  0.0774 -0.5897  0.1334
  296MOL    C8841978   0.798   1.764   2.920  0.6061  0.7626  0.0193
  296MOL    N8941979   0.729   1.799   2.838  0.3936 -0.4109 -0.1115
  296MOL    H9041980   0.880   1.709   3.247  1.3653  1.5278  0.2785
  296MOL    H9141981   0.731   1.695   3.171 -0.6660  2.0871 -0.5009
  296MOL    H9241982   0.884   1.614   3.016  1.9504 -0.8691  1.8518
  296MOL    C9341983   1.034   1.765   3.005  0.1325 -0.1498  0.4861
  296MOL    C9441984   1.127   1.664   2.946 -0.0630 -0.4410  0.0352
  296MOL    C9541985   1.075   1.609   2.822  0.9678 -0.2842 -0.3610
  296MOL    N9641986   1.027   1.562   2.725  0.2867  0.2861 -0.2954
  296MOL    H9741987   1.023   1.854   2.942 -0.3860 -1.2742 -1.0467
  296MOL    H9841988   1.086   1.788   3.098 -1.3092 -0.7430  1.4624
  296MOL    H9941989   1.126   1.590   3.026 -1.4999  1.3278  1.7036
  296MOL   C10041990   1.279   1.693   2.926  0.6043  0.4446  0.2652
  296MOL   C10141991   1.379   1.568   2.951  0.4888 -0.5281  0.1185
  296MOL   C10241992   1.313   1.442   2.898  0.2671 -0.0903  0.2368
  296MOL   N10341993   1.257   1.350   2.859 -0.7514  0.0833 -1.0972
  296MOL   H10441994   1.296   1.743   2.830 -0.3963 -1.7659 -1.0974
  296MOL   H10541995   1.312   1.759   3.006  3.1302  0.4951 -0.7454
  296MOL   H10641996   1.379   1.562   3.060  0.1787  2.3877  0.3137
  296MOL   C10741997   1.526   1.575   2.898 -0.3889  0.1012  0.5684
  296MOL   C10841998   1.606   1.695   2.959  0.0836 -0.9027  0.1595
  296MOL   C10941999   1.615   1.692   3.102 -0.4360 -0.7900  0.5577
  296MOL   N11042000   1.622   1.681   3.221  0.4320 -0.2294 -0.4321
  296MOL   H11142001   1.575   1.480   2.919  1.2799  0.7573 -0.2290
  296MOL   H11242002   1.528   1.580   2.789  0.1408 -0.6586  0.5342
  296MOL   H11342003   1.549   1.785   2.935 -0.4428 -1.0311  0.9299
  296MOL   C11442004   1.750   1.704   2.899 -0.4364 -0.9455  0.8311
  296MOL   C11542005   1.839   1.825   2.932 -0.3563  0.2966 -0.3471
  296MOL   C11642006   1.977   1.792   2.908 -0.2235  0.1090 -0.5404
  296MOL   N11742007   2.092   1.774   2.887 -0.9238  0.2656  0.3353
  296MOL   H11842008   1.797   1.615   2.942  3.4387  0.3196 -0.5973
  296MOL   H11942009   1.752   1.692   2.791 -0.5418  2.0587  0.4718
  296MOL   H12042010   1.850   1.861   3.034 -1.2390  0.4306 -0.2904
  296MOL   C12142011   1.800   1.953   2.856  0.3558 -0.4639  0.1275
  296MOL   C12242012   1.880   2.078   2.899 -0.4263 -0.9852  0.4729
  296MOL   C12342013   1.856   2.102   3.043  0.4814  1.3039  0.4144
  296MOL   N12442014   1.842   2.114   3.156 -0.3151 -0.5250  0.4517
  296MOL   H12542015   1.802   1.934   2.749  2.3575  0.0315  0.0662
  296MOL   H12642016   1.693   1.962   2.878 -0.2589 -1.3927 -2.2960
  296MOL   H12742017   1.830   2.161   2.849  1.9385 -0.2046 -0.6745
  296MOL   C12842018   2.024   2.101   2.846 -0.5234  0.0774 -0.0961
  296MOL   C12942019   2.081   2.241   2.819 -0.4447  0.1672  0.3510
  296MOL   C13042020   1.989   2.327   2.743 -0.1951  0.6804  0.2570
  296MOL   N13142021   1.923   2.405   2.687  0.5947  0.3329  0.3345
  296MOL   H13242022   2.093   2.050   2.914 -0.3211 -0.2144 -0.5205
  296MOL   H13342023   2.029   2.047   2.752  1.4357  2.9576 -1.7153
  296MOL   H13442024   2.168   2.236   2.752 -0.8286  0.0843 -0.1440
  296MOL   C13542025   2.122   2.310   2.950  0.0195  0.0172  0.0775
  296MOL   C13642026   2.194   2.442   2.924  0.0369 -0.1867  0.9034
  296MOL   C13742027   2.323   2.428   2.852 -0.1064 -0.1131  0.9793
  296MOL   N13842028   2.416   2.415   2.793  0.4076  0.2082  0.0742
  296MOL   H13942029   2.037   2.327   3.016  0.0853  0.6487  0.0075
  296MOL   H14042030   2.190   2.246   3.007 -0.2062  1.8261  2.4611
  296MOL   H14142031   2.217   2.483   3.022  2.0749 -0.5487  0.5989
  296MOL   H14242032   2.127   2.513   2.875  0.3801 -0.0208  0.6754
  297MOL     C142033   0.108   4.682   1.541  0.0361 -0.5131  0.5925
  297MOL     C242034   0.191   4.710   1.417 -0.0762 -0.6689  0.3792
  297MOL     C342035   0.105   4.756   1.313 -0.3767 -0.7709 -0.1969
  297MOL     N442036   0.039   4.794   1.231  0.0562  0.2565  0.2393
  297MOL     H542037   0.154   4.713   1.635 -0.5839 -0.9900  1.0607
  297MOL     H642038   0.060   4.584   1.543 -0.0334 -0.4725  0.9788
  297MOL     H742039   0.248   4.625   1.379  0.7745  0.8576 -1.8712
  297MOL     H842040   0.027   4.754   1.537  0.0230 -0.5929 -0.7720
  297MOL     C942041   0.292   4.821   1.456  1.0018 -0.2219 -0.1539
  297MOL    C1042042   0.385   4.880   1.343  0.1106  0.2229  0.4188
  297MOL    C1142043   0.401   4.792   1.227 -0.2878  0.5916 -0.5298
  297MOL    N1242044   0.410   4.719   1.136  0.0964  1.3575  0.4841
  297MOL    H1342045   0.235   4.901   1.504 -0.2254 -0.3549 -1.3820
  297MOL    H1442046   0.351   4.792   1.543 -0.5314  0.9905  1.3315
  297MOL    H1542047   0.483   4.886   1.390  0.8564 -2.2160 -0.7086
  297MOL    C1642048   0.350   5.022   1.305  0.1405 -0.2832 -0.4160
  297MOL    C1742049   0.366   5.125   1.414  0.1837 -0.1335 -0.3398
  297MOL    C1842050   0.509   5.143   1.458 -0.7468 -0.0499  0.6524
  297MOL    N1942051   0.621   5.156   1.480  0.3134  0.2623 -0.7573
  297MOL    H2042052   0.413   5.055   1.222  2.0663  1.8917  1.8335
  297MOL    H2142053   0.247   5.022   1.269 -0.2238 -1.3649  0.5867
  297MOL    H2242054   0.317   5.075   1.497  0.7458 -0.5839 -0.2804
  297MOL    C2342055   0.283   5.256   1.388  0.2246 -0.0109 -0.2344
  297MOL    C2442056   0.375   5.377   1.357  0.0157  0.2460  0.7373
  297MOL    C2542057   0.449   5.345   1.230  0.1094  0.2217 -0.5804
  297MOL    N2642058   0.499   5.317   1.130 -0.1832  0.0967  0.0989
  297MOL    H2742059   0.199   5.243   1.320  0.5488 -3.2173 -0.0851
  297MOL    H2842060   0.233   5.280   1.482  1.2271 -0.6257  0.4651
  297MOL    H2942061   0.446   5.385   1.440 -0.8437  1.1171  1.4033
  297MOL    C3042062   0.285   5.503   1.338 -0.4180  0.1014 -0.3759
  297MOL    C3142063   0.224   5.553   1.474 -0.2020  0.3493 -0.0352
  297MOL    C3242064   0.334   5.586   1.564  0.7179 -0.4119  0.3019
  297MOL    N3342065   0.422   5.605   1.638  0.3524 -0.0908 -0.2340
  297MOL    H3442066   0.353   5.580   1.301 -1.0834  1.8710  1.9683
  297MOL    H3542067   0.201   5.489   1.269 -0.0136 -3.0237 -0.2972
  297MOL    H3642068   0.173   5.470   1.524 -0.9378  0.4670 -0.5781
  297MOL    C3742069   0.131   5.679   1.458 -1.6559  0.1310  0.6790
  297MOL    C3842070   0.195   5.803   1.393  0.0582 -0.0631 -0.0422
  297MOL    C3942071   0.218   5.798   1.242  0.1082  0.3483 -0.8028
  297MOL    N4042072   0.239   5.796   1.128 -1.0075 -0.1193  0.3965
  297MOL    H4142073   0.038   5.654   1.406 -2.0008  0.4292  1.1460
  297MOL    H4242074   0.098   5.710   1.557 -0.5618  0.4043  0.9579
  297MOL    H4342075   0.292   5.813   1.442  0.2785 -3.9529  0.4747
  297MOL    C4442076   0.109   5.926   1.433  0.4022 -0.8662  0.8631
  297MOL    C4542077   0.153   6.065   1.372  0.2691  0.5520 -0.1601
  297MOL    C4642078   0.296   6.083   1.346 -0.5529  0.4703 -0.5785
  297MOL    N4742079   0.409   6.098   1.325 -0.3268 -1.1756 -0.6365
  297MOL    H4842080   0.005   5.913   1.404  0.8971 -0.8801 -0.9581
  297MOL    H4942081   0.107   5.946   1.540 -2.4346  1.0257  0.5159
  297MOL    H5042082   0.144   6.145   1.445 -0.5062  1.2825 -1.0408
  297MOL    C5142083   0.066   6.099   1.250  0.2350  0.4209  0.3979
  297MOL    C5242084   0.057   6.250   1.207 -0.5590 -0.7941 -0.2413
  297MOL    C5342085   8.311   6.330   1.311 -0.5433  0.5676  0.1727
  297MOL    N5442086   8.265   6.394   1.393 -0.1357 -0.7769 -0.1921
  297MOL    H5542087   0.082   6.028   1.169 -1.0918  0.8127 -0.2276
  297MOL    H5642088   8.274   6.081   1.278  0.1211 -0.3264 -0.4666
  297MOL    H5742089   8.299   6.249   1.123 -1.9008 -4.6416  0.8194
  297MOL    C5842090   0.181   6.321   1.151 -0.4129 -0.3391  0.4245
  297MOL    C5942091   0.235   6.260   1.013  0.1201 -0.5594  0.6589
  297MOL    C6042092   0.133   6.277   0.904 -0.8496 -0.5571 -0.9153
  297MOL    N6142093   0.058   6.296   0.822  0.1183  0.1917 -0.2455
  297MOL    H6242094   0.154   6.424   1.128  1.5054  0.5042  1.8201
  297MOL    H6342095   0.269   6.330   1.215  2.4511  0.5500 -3.4302
  297MOL    H6442096   0.253   6.153   1.023  3.2459 -0.2010 -0.5385
  297MOL    C6542097   0.374   6.319   0.974  0.2650 -0.7335 -0.1786
  297MOL    C6642098   0.457   6.234   0.875  0.1978  0.6629 -0.1064
  297MOL    C6742099   0.566   6.321   0.830 -0.5413 -0.2259 -0.1439
  297MOL    N6842100   0.652   6.384   0.787  0.0472 -0.5337 -0.3913
  297MOL    H6942101   0.379   6.421   0.936 -0.4318  0.3977  2.6560
  297MOL    H7042102   0.433   6.321   1.066 -1.2918 -0.7247  0.8260
  297MOL    H7142103   0.383   6.204   0.800 -0.3840  0.9952  0.3241
  297MOL    C7242104   0.525   6.115   0.943  1.0392 -0.4002 -0.3196
  297MOL    C7342105   0.585   6.014   0.843  0.1232 -0.1812 -0.0500
  297MOL    C7442106   0.687   6.065   0.757  1.0884  0.4420 -0.1435
  297MOL    N7542107   0.764   6.105   0.680 -0.3262 -0.8657  0.8521
  297MOL    H7642108   0.608   6.148   1.005  1.2010 -1.2136 -0.0955
  297MOL    H7742109   0.447   6.063   1.000  0.3606 -0.4783 -1.3009
  297MOL    H7842110   0.502   5.990   0.776 -1.0776 -0.7844  1.6092
  297MOL    C7942111   0.617   5.876   0.915  0.0043  0.2476  0.4858
  297MOL    C8042112   0.719   5.781   0.842  0.2762  0.0749  0.1308
  297MOL    C8142113   0.763   5.679   0.934 -0.6146 -0.3111  0.0712
  297MOL    N8242114   0.790   5.599   1.014 -0.8771  0.0061 -0.7385
  297MOL    H8342115   0.641   5.896   1.019 -0.0420  1.1703  0.3226
  297MOL    H8442116   0.525   5.817   0.923  0.3026 -0.5776 -1.8927
  297MOL    H8542117   0.809   5.842   0.828  1.0320 -1.1596 -0.5350
  297MOL    C8642118   0.666   5.737   0.707  0.2481 -0.1112 -0.6087
  297MOL    C8742119   0.773   5.676   0.620 -0.1447 -0.1880 -0.3194
  297MOL    C8842120   0.720   5.604   0.503  0.6061  0.0710  0.3512
  297MOL    N8942121   0.675   5.548   0.413  0.2353 -0.2318 -0.6076
  297MOL    H9042122   0.586   5.664   0.718  0.9012 -1.1511 -2.4991
  297MOL    H9142123   0.630   5.824   0.652  0.5538  0.1614 -0.3744
  297MOL    H9242124   0.824   5.607   0.688 -1.5882 -1.0438 -0.0959
  297MOL    C9342125   0.880   5.777   0.574 -0.2259 -0.4746 -0.1012
  297MOL    C9442126   0.994   5.716   0.493 -0.1203  0.6500  0.2601
  297MOL    C9542127   0.973   5.657   0.358  0.2731 -0.1050  0.0823
  297MOL    N9642128   0.963   5.609   0.251 -0.3026  0.7582 -0.8824
  297MOL    H9742129   0.829   5.849   0.510 -0.6446 -1.0404 -0.4028
  297MOL    H9842130   0.932   5.822   0.658  0.6258  0.4005 -1.0731
  297MOL    H9942131   1.036   5.624   0.534  1.5748 -0.0120 -2.7729
  297MOL   C10042132   1.114   5.814   0.474 -1.3471  1.0081 -0.4609
  297MOL   C10142133   1.245   5.759   0.410  0.4177 -0.2656 -0.1099
  297MOL   C10242134   1.255   5.616   0.386  0.2686 -0.9995 -0.5841
  297MOL   N10342135   1.262   5.500   0.363  0.1206 -0.0057  0.4440
  297MOL   H10442136   1.080   5.904   0.424  1.3498  0.8462 -2.6819
  297MOL   H10542137   1.142   5.838   0.576  1.8806 -0.6865 -0.8791
  297MOL   H10642138   1.323   5.771   0.485  0.2743 -1.6074  0.2727
  297MOL   C10742139   1.274   5.845   0.293 -0.3289  0.3827 -0.3034
  297MOL   C10842140   1.408   5.822   0.215  0.1762 -0.4361 -0.2472
  297MOL   C10942141   1.393   5.908   0.093 -0.2909 -0.1988  0.3673
  297MOL   N11042142   1.395   5.981   0.003 -0.0077  0.0856 -0.2390
  297MOL   H11142143   1.190   5.835   0.223  0.2604  1.4097 -1.1699
  297MOL   H11242144   1.269   5.949   0.324 -0.4871  0.3355 -0.1686
  297MOL   H11342145   1.410   5.719   0.180 -1.4438 -1.7562  3.3643
  297MOL   C11442146   1.542   5.842   0.298 -0.1327 -0.4005  0.2814
  297MOL   C11542147   1.591   5.978   0.344 -0.8713  0.2386  0.6806
  297MOL   C11642148   1.488   6.069   0.392 -0.6816 -0.2059  0.0314
  297MOL   N11742149   1.408   6.140   0.435  0.5472 -0.0766 -0.7151
  297MOL   H11842150   1.541   5.771   0.381  0.0574 -0.7384 -0.0031
  297MOL   H11942151   1.631   5.809   0.244 -1.1257  0.3012 -1.8420
  297MOL   H12042152   1.639   6.015   0.253  3.2505  1.1005  3.0850
  297MOL   C12142153   1.707   5.969   0.448  0.3600  0.3100 -0.4358
  297MOL   C12242154   1.670   5.980   0.596 -0.1901  0.3483 -1.0533
  297MOL   C12342155   1.573   5.876   0.642  0.7021  0.0705  0.1971
  297MOL   N12442156   1.491   5.800   0.673 -0.4758  0.1556  0.3170
  297MOL   H12542157   1.764   5.878   0.434 -0.1111  0.1283 -1.1896
  297MOL   H12642158   1.776   6.051   0.427 -0.8566  2.1398  2.4070
  297MOL   H12742159   1.628   6.077   0.621 -0.8306 -0.7524  2.4397
  297MOL   C12842160   1.799   5.967   0.678 -0.0939  0.5427  0.4731
  297MOL   C12942161   1.781   5.973   0.826 -0.2298 -0.2784 -0.2183
  297MOL   C13042162   1.910   5.939   0.888  1.0145  0.6076  0.0351
  297MOL   N13142163   2.009   5.910   0.934 -0.1418  0.0285 -0.3338
  297MOL   H13242164   1.842   5.872   0.646  0.3549  1.0739 -0.5055
  297MOL   H13342165   1.864   6.042   0.633  0.7086 -0.6573 -0.4110
  297MOL   H13442166   1.705   5.901   0.856 -0.6804 -0.0874 -0.8837
  297MOL   C13542167   1.750   6.117   0.861  0.0358  0.3249  0.6891
  297MOL   C13642168   1.679   6.128   0.999  0.2100 -0.1151  0.6608
  297MOL   C13742169   1.554   6.053   0.989  0.4543 -0.4797 -0.1868
  297MOL   N13842170   1.456   5.997   0.978 -0.3302 -0.2175 -0.3763
  297MOL   H13942171   1.835   6.179   0.834 -0.2597  1.2993  1.9348
  297MOL   H14042172   1.670   6.161   0.803 -0.3860  1.5633  2.1794
  297MOL   H14142173   1.650   6.231   1.023 -0.5421 -0.8239  2.9693
  297MOL   H14242174   1.743   6.085   1.076  0.6604  0.8172  0.8187
  298MOL     C142175   2.940   4.052   6.413  0.5303  0.8080 -0.0025
  298MOL     C242176   3.023   4.011   6.539  0.1891 -0.3111 -0.3073
  298MOL     C342177   3.163   4.059   6.537 -0.3136  0.1221 -0.2590
  298MOL     N442178   3.272   4.104   6.537  0.8813 -0.0642 -0.5197
  298MOL     H542179   2.913   4.158   6.421  2.0568  1.2321 -0.3278
  298MOL     H642180   2.852   3.989   6.406  0.6480  0.6161  0.2497
  298MOL     H742181   3.035   3.903   6.537  0.1200 -0.3351  0.4017
  298MOL     H842182   3.014   4.038   6.335  1.8469 -0.3244  1.4121
  298MOL     C942183   2.950   4.057   6.671 -0.3703  0.1071  0.3678
  298MOL    C1042184   3.023   4.011   6.802  0.7217 -0.2998 -0.2269
  298MOL    C1142185   3.048   3.871   6.800 -0.0640  0.2852 -0.1210
  298MOL    N1242186   3.063   3.759   6.795  0.0410 -0.0198  0.0363
  298MOL    H1342187   2.915   4.159   6.660  0.4802  0.3980  0.3037
  298MOL    H1442188   2.867   3.987   6.666 -0.5376  0.3508 -0.4240
  298MOL    H1542189   2.943   4.020   6.875 -0.7172  0.0505 -1.8238
  298MOL    C1642190   3.138   4.112   6.847  0.2783 -0.6186  0.2837
  298MOL    C1742191   3.148   4.130   7.001  0.5325 -0.0445 -0.1090
  298MOL    C1842192   3.148   3.998   7.069  0.4733  0.1033  0.1937
  298MOL    N1942193   3.148   3.899   7.124  0.2319 -0.9053  0.6372
  298MOL    H2042194   3.230   4.065   6.812  1.2250  1.2545  0.2000
  298MOL    H2142195   3.126   4.214   6.811 -1.6953  0.0897  2.7671
  298MOL    H2242196   3.058   4.182   7.036 -0.4361 -1.2918 -0.7048
  298MOL    C2342197   3.265   4.218   7.042  0.5566 -0.1211  0.0682
  298MOL    C2442198   3.226   4.309   7.163 -0.0760 -0.0829 -0.3934
  298MOL    C2542199   3.154   4.236   7.270 -0.3989 -0.1585 -1.2901
  298MOL    N2642200   3.107   4.178   7.358  0.2379  0.1235 -0.6719
  298MOL    H2742201   3.346   4.153   7.074  1.2654  0.6683 -0.0962
  298MOL    H2842202   3.302   4.279   6.960 -0.7043  0.8534  0.2027
  298MOL    H2942203   3.163   4.385   7.117  0.7890  0.8475 -0.0559
  298MOL    C3042204   3.356   4.376   7.214 -0.0225  0.1422  0.5402
  298MOL    C3142205   3.352   4.516   7.288 -0.1320 -0.4282  0.8350
  298MOL    C3242206   3.358   4.628   7.193  0.4378 -0.0200  0.3432
  298MOL    N3342207   3.362   4.722   7.121 -0.4253 -0.0546  0.6194
  298MOL    H3442208   3.405   4.302   7.278  0.2369  1.7324  2.2350
  298MOL    H3542209   3.427   4.385   7.132  0.4736 -1.1278  0.8131
  298MOL    H3642210   3.449   4.524   7.338  0.7207  1.1754 -0.9746
  298MOL    C3742211   3.234   4.531   7.383  0.0120  0.4558 -0.0527
  298MOL    C3842212   3.246   4.439   7.511  0.2739 -0.8429 -0.2911
  298MOL    C3942213   3.380   4.480   7.568  0.1587  0.7316  0.4449
  298MOL    N4042214   3.486   4.509   7.606  0.0332  0.1075 -0.0287
  298MOL    H4142215   3.236   4.635   7.413 -0.7235  0.4804 -0.0665
  298MOL    H4242216   3.140   4.532   7.327  1.5672  2.1734 -2.7853
  298MOL    H4342217   3.263   4.335   7.485 -1.4922 -0.7581 -1.9056
  298MOL    C4442218   3.128   4.437   7.599  0.3802 -0.0961 -0.7319
  298MOL    C4542219   3.160   4.371   7.738 -0.0830  0.0058  0.2108
  298MOL    C4642220   3.050   4.389   7.832  0.1997 -0.5260 -0.2108
  298MOL    N4742221   2.967   4.417   7.909 -0.1198  0.1226  0.8037
  298MOL    H4842222   3.107   4.542   7.616  1.9780  0.1057  0.1553
  298MOL    H4942223   3.037   4.392   7.559  0.3809  0.8241 -1.7662
  298MOL    H5042224   3.240   4.426   7.788  0.4373  0.8652 -1.5193
  298MOL    C5142225   3.208   4.227   7.727 -0.5258  0.7114 -0.7267
  298MOL    C5242226   3.220   4.159   7.862 -0.3177  0.2658  0.6686
  298MOL    C5342227   3.233   4.012   7.835 -0.4956  0.5985 -0.1024
  298MOL    N5442228   3.249   3.896   7.816  0.3679 -0.1667 -0.4148
  298MOL    H5542229   3.139   4.179   7.658 -1.2454 -0.0262  0.4921
  298MOL    H5642230   3.307   4.230   7.682  0.0376 -1.4237  0.3013
  298MOL    H5742231   3.125   4.159   7.917  0.8355 -0.4727  2.7272
  298MOL    C5842232   3.325   4.210   7.960  0.5210 -0.0949 -0.0760
  298MOL    C5942233   3.352   4.120   8.083  0.3568 -0.5284 -0.2295
  298MOL    C6042234   3.489   4.153   8.122  0.2211  0.3838 -0.7543
  298MOL    N6142235   3.599   4.176   8.158  0.0731 -0.2389 -0.0891
  298MOL    H6242236   3.419   4.221   7.907  0.4947 -1.6008 -0.4733
  298MOL    H6342237   3.298   4.312   7.988 -1.8739 -0.0121 -2.4551
  298MOL    H6442238   3.340   4.022   8.038  1.4930 -0.6670 -0.2532
  298MOL    C6542239   3.249   4.125   8.196 -0.7133  0.2351  0.0717
  298MOL    C6642240   3.257   4.003   8.289 -0.7745 -1.0513  0.0226
  298MOL    C6742241   3.385   3.990   0.042  0.2134  0.8271 -0.2209
  298MOL    N6842242   3.487   3.982   0.092  0.2563  0.5555  0.2747
  298MOL    H6942243   3.260   4.214   8.259 -0.2384 -0.5293  1.0913
  298MOL    H7042244   3.144   4.121   8.164 -0.5185 -1.1163 -0.3982
  298MOL    H7142245   3.251   3.910   8.233  0.0508 -0.7833 -0.5242
  298MOL    C7242246   3.152   4.014   0.097  0.6790 -0.1240  0.3489
  298MOL    C7342247   3.167   3.915   0.218 -0.6077 -0.0307  0.3162
  298MOL    C7442248   3.039   3.936   0.291 -0.8515 -0.1591 -0.0201
  298MOL    N7542249   2.940   3.955   0.339  0.2949 -0.4857 -0.4018
  298MOL    H7642250   3.148   4.116   0.133 -0.2600 -0.5020  1.3251
  298MOL    H7742251   3.056   3.993   0.051  0.4810  0.4508  0.5012
  298MOL    H7842252   3.252   3.952   0.276 -0.3118  1.1232 -0.8165
  298MOL    C7942253   3.177   3.764   0.187  0.4050 -0.5761 -0.2345
  298MOL    C8042254   3.187   3.669   0.307 -0.5583  0.6555 -0.1897
  298MOL    C8142255   3.318   3.691   0.362 -0.4309 -0.3767 -0.4062
  298MOL    N8242256   3.425   3.706   0.402 -0.1953 -0.0066 -0.2458
  298MOL    H8342257   3.085   3.729   0.138 -0.5892  1.4398  0.1378
  298MOL    H8442258   3.261   3.744   0.121  0.5002  0.5773 -0.4678
  298MOL    H8542259   3.192   3.572   0.258 -2.9398 -1.6220  3.7819
  298MOL    C8642260   3.066   3.670   0.407 -0.1106  0.3884  0.1411
  298MOL    C8742261   3.046   3.539   0.486  0.4003 -0.2946  0.1235
  298MOL    C8842262   3.173   3.489   0.537 -0.6862  0.2988 -0.9615
  298MOL    N8942263   3.272   3.444   0.578 -0.4986  0.4843  0.5614
  298MOL    H9042264   3.082   3.757   0.471  1.0001  1.0536 -1.0272
  298MOL    H9142265   2.978   3.681   0.343 -0.0406 -0.7356 -0.1601
  298MOL    H9242266   3.019   3.455   0.423  2.3496  1.2649 -2.8927
  298MOL    C9342267   2.932   3.549   0.589 -0.1183 -0.0794  0.2774
  298MOL    C9442268   2.799   3.605   0.533  0.4606 -0.5591  0.2572
  298MOL    C9542269   2.746   3.495   0.449  0.8114  0.8310 -0.5160
  298MOL    N9642270   2.707   3.407   0.389 -0.1916  0.2009 -0.2158
  298MOL    H9742271   2.910   3.448   0.622 -1.6736 -0.0114 -0.5368
  298MOL    H9842272   2.972   3.599   0.678 -2.6704  0.3689  1.2038
  298MOL    H9942273   2.814   3.680   0.455 -0.3849 -2.8301 -2.1625
  298MOL   C10042274   2.700   3.654   0.638  0.0558 -0.0728 -0.1603
  298MOL   C10142275   2.593   3.749   0.590  0.4092 -0.1510 -0.3029
  298MOL   C10242276   2.491   3.772   0.700 -0.7790 -0.4643  0.3632
  298MOL   N10342277   2.412   3.786   0.778  0.0859  0.2321 -0.5539
  298MOL   H10442278   2.657   3.574   0.698 -1.0491  1.3829  1.0182
  298MOL   H10542279   2.756   3.712   0.712 -0.7091 -0.7431  0.9649
  298MOL   H10642280   2.544   3.703   0.504 -1.9958  1.7509 -0.0061
  298MOL   C10742281   2.654   3.881   0.540 -0.6159 -0.2670 -0.5669
  298MOL   C10842282   2.556   3.983   0.479 -0.4114 -0.0605 -0.2696
  298MOL   C10942283   2.485   4.048   0.591  0.2763  0.8872 -0.4234
  298MOL   N11042284   2.427   4.099   0.678 -0.4181 -0.0264  0.3420
  298MOL   H11142285   2.710   3.923   0.623 -0.7272 -1.0100 -0.1120
  298MOL   H11242286   2.728   3.860   0.462 -0.9792  1.0656 -1.3017
  298MOL   H11342287   2.487   3.933   0.412  1.3094 -0.7067 -1.5954
  298MOL   C11442288   2.634   4.083   0.390  0.0350 -0.0578 -0.4570
  298MOL   C11542289   2.555   4.170   0.295 -0.1527  0.5794  0.1215
  298MOL   C11642290   2.463   4.266   0.371  0.3879 -0.4353 -0.0909
  298MOL   N11742291   2.388   4.340   0.424  0.1150  0.0962  0.6775
  298MOL   H11842292   2.696   4.134   0.463  0.9106  0.1474 -1.3410
  298MOL   H11942293   2.691   4.014   0.329 -0.4840 -0.1483 -0.8511
  298MOL   H12042294   2.485   4.119   0.229 -0.7577  1.6482 -0.0708
  298MOL   C12142295   2.646   4.262   0.206  0.5197 -0.2032 -0.0707
  298MOL   C12242296   2.725   4.184   0.093 -0.0706 -0.0141  0.2437
  298MOL   C12342297   2.649   4.086   0.017 -0.1610  0.2744  0.0811
  298MOL   N12442298   2.588   4.013   8.265 -0.4720 -0.6594 -0.9649
  298MOL   H12542299   2.600   4.353   0.169 -1.4907 -1.6852 -1.3743
  298MOL   H12642300   2.725   4.305   0.267  0.6946 -0.5496 -0.0490
  298MOL   H12742301   2.804   4.124   0.137  0.6354  0.0269 -0.9327
  298MOL   C12842302   2.807   4.269   8.306 -0.2691 -0.1735 -0.4111
  298MOL   C12942303   2.886   4.384   0.054 -0.4082 -0.3553 -0.1394
  298MOL   C13042304   2.953   4.359   0.182 -0.5801  0.8298 -0.1633
  298MOL   N13142305   3.006   4.337   0.281 -0.4477 -0.3899 -0.4458
  298MOL   H13242306   2.860   4.197   8.243  1.9572  1.1998 -0.1738
  298MOL   H13342307   2.738   4.305   8.230 -0.3832 -0.3627 -0.3990
  298MOL   H13442308   2.818   4.462   0.089 -0.8502 -0.5165 -0.6260
  298MOL   C13542309   2.983   4.450   8.264  0.0045  0.2638  0.7205
  298MOL   C13642310   3.086   4.547   0.009  0.6680 -0.2353  0.9761
  298MOL   C13742311   3.029   4.664   0.086  0.0688 -0.0449  0.2289
  298MOL   N13842312   2.989   4.750   0.154 -0.0777  0.7276 -0.1439
  298MOL   H13942313   3.037   4.371   8.212  2.1920  2.4575 -0.4418
  298MOL   H14042314   2.928   4.503   8.185  0.6340  3.7565  2.5293
  298MOL   H14142315   3.169   4.583   8.261  0.4839 -1.3800  0.0100
  298MOL   H14242316   3.129   4.475   0.078 -0.5015  0.0326  1.9996
  299MOL     C142317   3.259   8.172   3.028 -0.0930 -0.0357  0.7447
  299MOL     C242318   3.407   8.134   2.998 -0.0230 -0.3135  0.5283
  299MOL     C342319   3.461   8.057   3.111  0.0494 -0.0196 -0.2890
  299MOL     N442320   3.505   7.990   3.198  0.8080 -0.3486  0.1575
  299MOL     H542321   3.220   8.234   2.947 -1.7728 -1.5475  0.3857
  299MOL     H642322   3.249   8.211   3.129 -2.5715  0.9147  0.1629
  299MOL     H742323   3.461   8.229   2.999 -0.8118  0.1594 -0.3268
  299MOL     H842324   3.198   8.083   3.023 -0.6291  0.2546  1.9422
  299MOL     C942325   3.421   8.064   2.867  0.4813 -0.0412 -0.3673
  299MOL    C1042326   3.566   8.053   2.797  0.0675 -0.6415 -0.4070
  299MOL    C1142327   3.622   8.191   2.771  0.0537  0.1329  0.4535
  299MOL    N1242328   3.667   8.297   2.756 -0.3479 -1.0553  0.0621
  299MOL    H1342329   3.384   7.961   2.869  0.2748  0.0374  3.1683
  299MOL    H1442330   3.352   8.110   2.796  0.7511  2.4862  0.9687
  299MOL    H1542331   3.535   8.022   2.697 -0.2174  0.6047 -0.7108
  299MOL    C1642332   3.671   7.959   2.860 -0.4358  0.1969  0.2767
  299MOL    C1742333   3.805   7.960   2.783  0.3340  0.6371  0.0061
  299MOL    C1842334   3.903   7.895   2.868  0.2363  0.1973 -0.1284
  299MOL    N1942335   3.984   7.847   2.939 -0.5830  0.8516  0.4236
  299MOL    H2042336   3.700   7.988   2.961 -0.2750  2.3103 -0.3436
  299MOL    H2142337   3.623   7.863   2.842  2.5739 -1.0684 -1.4816
  299MOL    H2242338   3.848   8.060   2.790 -0.1796  0.7968  1.0363
  299MOL    C2342339   3.792   7.925   2.631  0.1955  0.2020 -0.1458
  299MOL    C2442340   3.918   7.946   2.544  0.4930 -0.2767 -0.0700
  299MOL    C2542341   4.046   7.905   2.604  0.6294  0.5102  0.0365
  299MOL    N2642342   4.149   7.879   2.650 -0.4230 -0.1685 -0.0634
  299MOL    H2742343   3.768   7.820   2.614 -0.3733  0.1134  1.1327
  299MOL    H2842344   3.715   7.977   2.574  1.1200 -0.4311 -1.9998
  299MOL    H2942345   3.928   8.054   2.542 -1.7239 -0.0511 -1.4631
  299MOL    C3042346   3.903   7.882   2.402 -0.5880 -0.2391 -0.2266
  299MOL    C3142347   3.825   7.971   2.303 -0.3119 -0.2065  0.0867
  299MOL    C3242348   3.909   8.089   2.265 -1.2461  0.0233 -0.7297
  299MOL    N3342349   3.977   8.177   2.235 -0.3714 -0.2045  0.1505
  299MOL    H3442350   4.004   7.863   2.367  0.0276  2.0046  0.2404
  299MOL    H3542351   3.853   7.787   2.417  0.7160 -0.7901  0.6988
  299MOL    H3642352   3.734   8.012   2.346  0.1690 -1.1774  2.0792
  299MOL    C3742353   3.771   7.895   2.178  0.2701  0.3546 -0.0719
  299MOL    C3842354   3.875   7.851   2.070  0.1945 -0.3323  0.3629
  299MOL    C3942355   3.968   7.757   2.128 -0.3907  0.1845  0.5566
  299MOL    N4042356   4.044   7.685   2.179  0.0788  0.3316  0.8632
  299MOL    H4142357   3.713   7.808   2.211  0.4470  1.2942  2.8671
  299MOL    H4242358   3.709   7.975   2.138 -1.8726  0.3550  3.0269
  299MOL    H4342359   3.921   7.944   2.036  1.6915 -0.5476  1.7694
  299MOL    C4442360   3.801   7.777   1.957  0.7387  0.4856 -0.2488
  299MOL    C4542361   3.884   7.723   1.830  0.1237 -0.1761 -0.1099
  299MOL    C4642362   3.804   7.637   1.748  0.4770  0.3385  0.0252
  299MOL    N4742363   3.741   7.565   1.681 -0.1720  0.7928 -0.7807
  299MOL    H4842364   3.761   7.686   2.000  3.0962 -0.5375 -0.1371
  299MOL    H4942365   3.716   7.834   1.920  0.6358  0.9006  0.6091
  299MOL    H5042366   3.960   7.655   1.869  1.9896  2.0142  0.1952
  299MOL    C5142367   3.958   7.835   1.748 -1.0463 -0.2289  0.7035
  299MOL    C5242368   4.063   7.789   1.651 -0.5611 -0.2223  0.3052
  299MOL    C5342369   4.120   7.896   1.570  0.3151 -0.6052  0.8445
  299MOL    N5442370   4.165   7.987   1.510  0.7330 -0.4479  0.2013
  299MOL    H5542371   3.872   7.879   1.696 -1.2063 -1.0352  0.2900
  299MOL    H5642372   4.001   7.912   1.813  1.0181 -2.2355  1.7705
  299MOL    H5742373   4.012   7.734   1.572 -0.9337 -0.4328  0.6930
  299MOL    C5842374   4.185   7.703   1.699 -0.8049 -0.3165 -0.4309
  299MOL    C5942375   4.296   7.771   1.770 -0.0771 -0.1291  0.2476
  299MOL    C6042376   4.262   7.824   1.903  0.3433 -0.7387 -0.2992
  299MOL    N6142377   4.235   7.866   2.011 -0.9634 -0.4972 -0.0247
  299MOL    H6242378   4.154   7.614   1.753  0.5069 -0.1418  0.6122
  299MOL    H6342379   4.241   7.651   1.621  2.0052 -0.8166  1.8413
  299MOL    H6442380   4.328   7.858   1.714 -0.1156  1.8855  3.2334
  299MOL    C6542381   4.429   7.687   1.786  0.5451 -0.0525 -0.3347
  299MOL    C6642382   4.430   7.575   1.884  0.0810  0.0135  0.2481
  299MOL    C6742383   4.300   7.521   1.928 -0.2981 -0.5620  0.0677
  299MOL    N6842384   4.196   7.484   1.959  0.6519  0.6555 -0.0426
  299MOL    H6942385   4.450   7.655   1.684 -2.5612 -0.8191 -0.7587
  299MOL    H7042386   4.503   7.757   1.826  1.8622 -2.6005  1.8446
  299MOL    H7142387   4.463   7.631   1.971  1.0251 -0.5885  0.2872
  299MOL    C7242388   4.536   7.466   1.848 -0.4915  0.2576  0.1137
  299MOL    C7342389   4.624   7.424   1.958 -0.2820  0.0586  0.3912
  299MOL    C7442390   4.695   7.300   1.912  0.1094  0.5682 -0.6631
  299MOL    N7542391   4.762   7.208   1.887  0.1870 -0.3716  0.7520
  299MOL    H7642392   4.470   7.384   1.821  0.3086  0.1272 -1.5084
  299MOL    H7742393   4.593   7.485   1.758 -0.7636 -0.8210 -0.2947
  299MOL    H7842394   4.556   7.380   2.031  1.1516 -1.9905  0.5246
  299MOL    C7942395   4.715   7.534   2.018  0.4583 -0.4934  0.0071
  299MOL    C8042396   4.830   7.480   2.107 -0.3574 -0.3111 -0.3242
  299MOL    C8142397   4.952   7.456   2.030 -0.6006  0.2065  0.9846
  299MOL    N8242398   5.039   7.439   1.958 -0.0166  0.0097  0.1716
  299MOL    H8342399   4.761   7.589   1.935  2.4129 -4.4511 -1.6649
  299MOL    H8442400   4.669   7.609   2.081  0.6510 -0.3602 -0.0074
  299MOL    H8542401   4.795   7.383   2.141  0.2534 -0.0762  1.0251
  299MOL    C8642402   4.854   7.567   2.234 -0.3260 -0.2329 -0.9219
  299MOL    C8742403   4.933   7.484   2.337 -0.4007  0.4392  0.6091
  299MOL    C8842404   5.074   7.448   2.291  1.0174 -0.4182  0.1804
  299MOL    N8942405   5.183   7.421   2.257  0.4680  0.1188  0.5358
  299MOL    H9042406   4.893   7.668   2.217 -0.2579 -0.2223 -0.7076
  299MOL    H9142407   4.759   7.572   2.287 -0.0215 -1.7200 -0.2205
  299MOL    H9242408   4.878   7.391   2.347  0.6935 -0.0744  2.0135
  299MOL    C9342409   4.925   7.552   2.476 -0.0490  0.2047  0.0312
  299MOL    C9442410   4.990   7.462   2.591 -0.5586 -0.6967 -0.4145
  299MOL    C9542411   5.128   7.498   2.629  0.2189 -0.5206  0.9560
  299MOL    N9642412   5.239   7.522   2.661  0.1993 -0.1359 -0.2911
  299MOL    H9742413   4.964   7.654   2.470  0.1491  0.2142  1.4555
  299MOL    H9842414   4.820   7.579   2.490  0.1705  2.0540 -1.5891
  299MOL    H9942415   4.999   7.362   2.549  2.3551 -1.0940  1.0092
  299MOL   C10042416   4.892   7.439   2.711  0.1918  0.1729  0.1627
  299MOL   C10142417   4.932   7.315   2.793 -0.2408  0.2747 -0.1241
  299MOL   C10242418   4.854   7.329   2.919  0.6330 -0.3711 -0.2228
  299MOL   N10342419   4.795   7.345   3.021  0.4754  0.4906  0.4592
  299MOL   H10442420   4.889   7.527   2.775 -0.7240  0.5303 -0.3629
  299MOL   H10542421   4.789   7.421   2.678  0.8747 -0.4017 -1.7354
  299MOL   H10642422   5.040   7.326   2.805 -0.3514  1.0485  0.1550
  299MOL   C10742423   4.914   7.181   2.722  0.2617 -0.4676 -0.2564
  299MOL   C10842424   4.871   7.061   2.803  0.3164  1.1209 -0.0268
  299MOL   C10942425   4.730   7.067   2.834 -0.3346  0.1306  0.2761
  299MOL   N11042426   4.616   7.078   2.862 -0.2923 -0.1752 -0.0576
  299MOL   H11142427   4.822   7.199   2.667  0.4678  1.2036 -0.0725
  299MOL   H11242428   4.990   7.163   2.646  1.2515  0.9081  0.3954
  299MOL   H11342429   4.928   7.041   2.894  0.1471  0.8296  0.0164
  299MOL   C11442430   4.897   6.936   2.716 -0.6194  0.5164  0.3382
  299MOL   C11542431   5.040   6.887   2.693 -0.5123  0.2330 -0.1223
  299MOL   C11642432   5.098   6.861   2.824  0.6669  0.3249 -0.1259
  299MOL   N11742433   5.143   6.842   2.929  0.0886 -0.6222  0.4884
  299MOL   H11842434   4.849   6.856   2.772 -0.4985  0.2276  0.0359
  299MOL   H11942435   4.831   6.937   2.628 -0.3377 -0.6480  0.1002
  299MOL   H12042436   5.101   6.972   2.662 -0.4729  0.1186 -0.3538
  299MOL   C12142437   5.061   6.761   2.601  0.0172 -0.4655  0.8398
  299MOL   C12242438   5.035   6.774   2.449 -0.0512  0.0399 -0.5308
  299MOL   C12342439   4.892   6.804   2.432  0.3852 -0.0606 -0.0347
  299MOL   N12442440   4.781   6.835   2.418 -0.8271 -0.3072  0.0645
  299MOL   H12542441   5.161   6.724   2.624  0.2652 -0.9250 -0.8746
  299MOL   H12642442   4.999   6.685   2.649 -0.3528 -0.4039  0.4687
  299MOL   H12742443   5.039   6.671   2.413 -0.3025  0.0003 -0.4490
  299MOL   C12842444   5.147   6.861   2.380 -0.6323 -0.5825  0.1812
  299MOL   C12942445   5.094   6.945   2.260 -0.0541 -0.5412 -0.0320
  299MOL   C13042446   5.007   7.056   2.313  0.3447 -0.1110  0.7059
  299MOL   N13142447   4.942   7.144   2.351  0.0673 -0.4414 -0.3427
  299MOL   H13242448   5.207   6.918   2.450  0.2677  0.3682 -1.3274
  299MOL   H13342449   5.209   6.783   2.336  1.9864  0.5135  1.8045
  299MOL   H13442450   5.031   6.881   2.200  0.1112 -0.5383 -0.2107
  299MOL   C13542451   5.198   6.991   2.162 -1.0297 -0.1448 -0.3685
  299MOL   C13642452   5.156   7.096   2.062  0.1758  0.0772 -0.3821
  299MOL   C13742453   5.254   7.138   1.965 -0.2659 -0.4534 -1.0698
  299MOL   N13842454   5.332   7.178   1.886 -0.5851  0.0530  0.1453
  299MOL   H13942455   5.287   7.028   2.213 -0.8174 -0.5743 -0.4238
  299MOL   H14042456   5.230   6.899   2.114 -3.2944 -1.1526  0.0055
  299MOL   H14142457   5.139   7.180   2.130 -0.1785 -2.4561  2.7785
  299MOL   H14242458   5.059   7.061   2.027 -0.7605  3.7200 -1.6596
  300MOL     C142459   3.883   1.752   6.455 -0.4335  0.2199  0.7236
  300MOL     C242460   3.732   1.756   6.430  0.1606  0.0988  0.4007
  300MOL     C342461   3.697   1.628   6.375  0.2094  0.5925 -0.4072
  300MOL     N442462   3.670   1.520   6.334 -0.3983  0.1101 -0.2278
  300MOL     H542463   3.928   1.689   6.378 -0.1895 -0.0499  1.0909
  300MOL     H642464   3.905   1.706   6.551 -1.1099 -0.3040  0.6306
  300MOL     H742465   3.708   1.812   6.341 -0.0078  1.2450  1.1608
  300MOL     H842466   3.931   1.849   6.467 -2.8508  1.6781 -0.8557
  300MOL     C942467   3.657   1.796   6.563  0.1998  0.4219  0.2486
  300MOL    C1042468   3.504   1.815   6.549 -0.1018 -0.1778  0.8131
  300MOL    C1142469   3.466   1.889   6.428 -0.2706 -0.0323 -0.4362
  300MOL    N1242470   3.430   1.951   6.334  0.3214  0.0901 -0.7484
  300MOL    H1342471   3.674   1.709   6.627  0.7768 -0.3882 -0.9656
  300MOL    H1442472   3.707   1.884   6.603  2.6585 -0.2559 -1.2452
  300MOL    H1542473   3.481   1.888   6.627 -0.5228 -1.1907  1.6532
  300MOL    C1642474   3.421   1.683   6.562 -0.0101  0.0017 -0.0140
  300MOL    C1742475   3.273   1.681   6.491 -0.2079  0.0511 -0.3770
  300MOL    C1842476   3.273   1.670   6.348 -0.3120 -0.6573 -0.2644
  300MOL    N1942477   3.278   1.664   6.228 -0.8919  0.5607  0.0877
  300MOL    H2042478   3.482   1.600   6.525  2.0983  1.3656  0.2598
  300MOL    H2142479   3.414   1.662   6.668  1.2297  0.1762  0.1084
  300MOL    H2242480   3.230   1.779   6.511 -0.6172 -0.5658  1.9706
  300MOL    C2342481   3.183   1.570   6.548  0.7837 -0.1186 -0.5374
  300MOL    C2442482   3.148   1.594   6.693  0.0962 -0.3008 -0.1891
  300MOL    C2542483   3.077   1.719   6.717  0.6568 -0.0031 -0.0560
  300MOL    N2642484   3.024   1.817   6.735  0.4035 -0.6969  0.0680
  300MOL    H2742485   3.094   1.556   6.488 -1.2208 -1.2049  2.5781
  300MOL    H2842486   3.242   1.479   6.536  2.4168  0.9548 -0.8390
  300MOL    H2942487   3.239   1.603   6.753 -1.0863 -0.7795  1.7260
  300MOL    C3042488   3.070   1.486   6.760  0.6710 -0.5468 -0.6605
  300MOL    C3142489   3.145   1.351   6.752 -0.9565  0.6252 -0.4752
  300MOL    C3242490   3.264   1.363   6.846 -0.1210 -0.0977 -0.4058
  300MOL    N3342491   3.357   1.377   6.916  0.1899 -0.2199  0.2186
  300MOL    H3442492   3.060   1.515   6.864  2.0390  0.2543 -0.7425
  300MOL    H3542493   2.970   1.475   6.717 -0.3954 -1.5443  1.9536
  300MOL    H3642494   3.177   1.336   6.649 -0.3987  2.0660 -0.5292
  300MOL    C3742495   3.057   1.238   6.803 -0.0623 -0.5213 -0.1670
  300MOL    C3842496   3.096   1.091   6.753 -0.1262  0.4007  0.0477
  300MOL    C3942497   3.110   1.088   6.606 -0.1414  0.2097  0.2991
  300MOL    N4042498   3.121   1.084   6.488 -0.3293 -0.4879  0.3446
  300MOL    H4142499   3.039   1.240   6.911  1.2699 -1.4623  0.0797
  300MOL    H4242500   2.957   1.253   6.763 -0.0833 -1.2165 -0.3704
  300MOL    H4342501   3.011   1.027   6.778  0.5372 -0.6907 -0.4445
  300MOL    C4442502   3.215   1.024   6.821 -0.3867  0.0902 -0.5341
  300MOL    C4542503   3.237   0.882   6.767  0.0530  0.6447 -0.0997
  300MOL    C4642504   3.320   0.880   6.645 -0.1515  1.2240 -0.2317
  300MOL    N4742505   3.377   0.873   6.550  0.6346 -0.4776  0.1776
  300MOL    H4842506   3.300   1.093   6.826 -0.3339 -0.0792  1.1799
  300MOL    H4942507   3.190   1.014   6.926 -1.7129 -1.3257 -0.9663
  300MOL    H5042508   3.139   0.843   6.740 -0.0174 -0.6396  1.8762
  300MOL    C5142509   3.293   0.789   6.878  0.4549  0.3295 -0.1431
  300MOL    C5242510   3.304   0.638   6.832 -0.3700 -0.5884 -0.0729
  300MOL    C5342511   3.409   0.568   6.903  0.0902  1.3423 -0.0138
  300MOL    N5442512   3.488   0.513   6.965 -0.7711  0.4665  0.6024
  300MOL    H5542513   3.389   0.830   6.909  0.9011 -1.1440  0.4612
  300MOL    H5642514   3.233   0.791   6.969 -1.4664 -1.6031 -1.3382
  300MOL    H5742515   3.336   0.640   6.728  2.8944 -0.2520  0.8947
  300MOL    C5842516   3.177   0.549   6.837  0.1947  0.2476  0.0638
  300MOL    C5942517   3.191   0.407   6.794  0.4755 -0.2820 -0.1656
  300MOL    C6042518   3.226   0.314   6.900  0.0723  0.3641  0.3283
  300MOL    N6142519   3.257   0.241   6.988 -0.1193  0.2477  0.2008
  300MOL    H6242520   3.136   0.545   6.938 -0.6765 -3.8049 -0.3787
  300MOL    H6342521   3.101   0.601   6.780 -1.0194  0.7468  2.1039
  300MOL    H6442522   3.280   0.395   6.732  0.4562 -1.0526 -0.0500
  300MOL    C6542523   3.074   0.348   6.708  0.0394  0.1275 -0.1125
  300MOL    C6642524   2.970   0.274   6.793  0.3168  0.1608 -0.1692
  300MOL    C6742525   2.933   0.362   6.907  0.5314 -0.2366  0.1721
  300MOL    N6842526   2.905   0.431   6.994  0.0519  0.1724 -0.0803
  300MOL    H6942527   3.020   0.430   6.661 -0.5219 -0.2523 -0.1381
  300MOL    H7042528   3.129   0.289   6.634  0.2096  0.3220 -0.1407
  300MOL    H7142529   3.021   0.189   6.839  1.3986 -0.3925 -2.3383
  300MOL    C7242530   2.853   0.232   6.702  0.5089  0.1730  0.7981
  300MOL    C7342531   2.737   0.143   6.762  0.2493 -0.0859 -0.1434
  300MOL    C7442532   2.673   0.218   6.867 -0.5752 -0.0321 -0.9417
  300MOL    N7542533   2.622   0.281   6.949  0.1983 -0.2987  0.1650
  300MOL    H7642534   2.809   0.325   6.665 -1.9962 -1.5530 -0.6364
  300MOL    H7742535   2.905   0.178   6.623 -0.4512  1.5810 -0.8316
  300MOL    H7842536   2.778   0.058   6.818 -2.6840 -2.1746 -1.0363
  300MOL    C7942537   2.640   0.091   6.652 -0.1838  0.7392 -0.2606
  300MOL    C8042538   2.690   8.301   6.551 -0.5412 -0.2703  0.2195
  300MOL    C8142539   2.731   8.172   6.599 -0.0800  0.4258 -0.7325
  300MOL    N8242540   2.763   8.065   6.639  0.2011  1.0368  0.7025
  300MOL    H8342541   2.553   0.047   6.701 -1.7171  0.0983 -3.4835
  300MOL    H8442542   2.597   0.175   6.598 -0.3326  1.7900  1.4491
  300MOL    H8542543   2.786   0.022   6.512  1.0128 -1.0214  3.2209
  300MOL    C8642544   2.605   8.289   6.426  0.1364 -0.1386 -0.3930
  300MOL    C8742545   2.678   8.249   6.294 -0.2820  0.3592  0.4362
  300MOL    C8842546   2.574   8.239   6.187  0.0922  0.0088 -0.1352
  300MOL    N8942547   2.498   8.229   6.104 -0.1498 -1.0113  0.0393
  300MOL    H9042548   2.515   8.230   6.447 -0.6007 -0.1151 -3.2737
  300MOL    H9142549   2.568   0.075   6.398  2.2546  0.6709 -0.3734
  300MOL    H9242550   2.740   8.161   6.305  0.3139  0.6974 -0.1994
  300MOL    C9342551   2.785   0.044   6.249  0.6820 -1.1064 -0.1853
  300MOL    C9442552   2.897   8.289   6.166 -0.0710  0.0677  0.0498
  300MOL    C9542553   2.846   8.212   6.046 -0.1953 -0.7017 -0.1072
  300MOL    N9642554   2.808   8.159   5.948 -0.2496  0.5593 -0.3177
  300MOL    H9742555   2.733   0.116   6.184  0.0953 -0.1171  1.3507
  300MOL    H9842556   2.829   0.108   6.325  0.1627  1.2529 -1.8073
  300MOL    H9942557   2.947   8.218   6.233  0.1939  1.0492  0.8950
  300MOL   C10042558   3.003   0.079   6.124  0.2790 -0.4402 -0.8405
  300MOL   C10142559   3.025   0.120   5.982 -0.2686 -0.1430  0.8213
  300MOL   C10242560   2.912   0.191   5.925  0.5266  0.0429 -0.6666
  300MOL   N10342561   2.813   0.240   5.871  0.0610 -0.0232 -0.1298
  300MOL   H10442562   2.989   0.171   6.181  0.6649 -0.3948 -0.8202
  300MOL   H10542563   3.094   0.031   6.160 -1.3520 -0.9619  2.9079
  300MOL   H10642564   3.038   0.023   5.934 -0.0553 -1.0198  2.6080
  300MOL   C10742565   3.157   0.199   5.971  0.3243  0.2899 -0.6789
  300MOL   C10842566   3.195   0.227   5.821  0.5021 -0.1870  0.1108
  300MOL   C10942567   3.320   0.310   5.812  0.2167 -0.5016 -0.4695
  300MOL   N11042568   3.418   0.370   5.805  0.9219 -0.1511 -0.1448
  300MOL   H11142569   3.141   0.295   6.020 -1.6612 -0.7919  0.8395
  300MOL   H11242570   3.228   0.133   6.020 -0.5177 -1.6309 -2.0248
  300MOL   H11342571   3.113   0.292   5.791 -0.9391 -1.0553  2.0559
  300MOL   C11442572   3.214   0.113   5.721  0.1103  0.1210  0.3568
  300MOL   C11542573   3.337   0.019   5.748 -0.1113  0.5874 -0.5864
  300MOL   C11642574   3.388   0.009   5.883 -0.7125  0.1903 -0.2771
  300MOL   N11742575   3.432   8.309   5.992 -0.2862  0.2434 -0.4280
  300MOL   H11842576   3.123   0.053   5.723  1.1499 -1.5803 -1.4073
  300MOL   H11942577   3.224   0.149   5.619  0.1771 -0.3756  0.1855
  300MOL   H12042578   3.428   0.049   5.696  0.1507 -1.1708 -1.1676
  300MOL   C12142579   3.307   8.188   5.700 -0.2808  0.2378  0.0397
  300MOL   C12242580   3.413   8.079   5.714  0.6076  0.1158 -0.6199
  300MOL   C12342581   3.352   7.945   5.711 -0.1703 -0.5090 -0.2229
  300MOL   N12442582   3.303   7.840   5.709 -0.7194 -0.5623  0.6129
  300MOL   H12542583   3.216   8.161   5.754 -2.3867  2.0503 -2.4335
  300MOL   H12642584   3.274   8.184   5.595  1.6372 -0.8137 -0.5449
  300MOL   H12742585   3.458   8.089   5.813  2.0204 -0.9122 -1.1355
  300MOL   C12842586   3.532   8.099   5.607 -0.1666  0.1357  0.4893
  300MOL   C12942587   3.637   7.977   5.619  0.1480  0.2242  0.4359
  300MOL   C13042588   3.747   7.985   5.515  0.1148  0.7818  0.1071
  300MOL   N13142589   3.829   7.986   5.433 -0.7291 -0.1047 -0.2579
  300MOL   H13242590   3.503   8.091   5.503 -0.4810 -1.1440  0.6604
  300MOL   H13342591   3.572   8.200   5.610  0.8978 -0.2574 -0.1510
  300MOL   H13442592   3.583   7.886   5.594  0.9019 -0.0570 -0.1833
  300MOL   C13542593   3.696   7.972   5.760  0.2349  0.1723 -0.1961
  300MOL   C13642594   3.800   7.866   5.787 -0.0912 -0.4832  0.0105
  300MOL   C13742595   3.847   7.870   5.926  0.3344 -0.2841 -0.0499
  300MOL   N13842596   3.885   7.877   6.038  0.1043  0.0597  0.0741
  300MOL   H13942597   3.753   8.064   5.777  1.9744 -1.3287  2.4970
  300MOL   H14042598   3.617   7.964   5.835 -0.9232 -2.0976 -1.6118
  300MOL   H14142599   3.889   7.884   5.726 -0.8109 -1.3783 -1.3224
  300MOL   H14242600   3.775   7.762   5.764 -3.0653  0.4584 -1.3283
  301MOL     C142601   6.096   5.506   4.798  0.1249 -0.4774 -0.2187
  301MOL     C242602   6.170   5.640   4.804 -0.4375 -0.0262 -0.1329
  301MOL     C342603   6.163   5.699   4.667  0.3497  0.5272 -0.2359
  301MOL     N442604   6.158   5.745   4.563  0.5020 -0.2162  0.5931
  301MOL     H542605   6.115   5.443   4.711  1.0643 -1.0278  0.3771
  301MOL     H642606   5.989   5.525   4.793 -0.2179 -2.2611  0.2198
  301MOL     H742607   6.277   5.623   4.812 -0.3513  0.1428 -0.9137
  301MOL     H842608   6.123   5.438   4.879 -0.3928 -0.3959  0.0226
  301MOL     C942609   6.134   5.746   4.905  0.2809  1.3784  0.4172
  301MOL    C1042610   6.195   5.887   4.899  0.0905 -0.1750  0.3857
  301MOL    C1142611   6.151   5.960   4.786 -0.2850 -0.5403  0.1985
  301MOL    N1242612   6.114   6.027   4.698  0.4659 -0.3743 -0.2768
  301MOL    H1342613   6.027   5.761   4.887  0.5379  5.0419  1.4853
  301MOL    H1442614   6.147   5.701   5.004 -1.4765  1.2730  0.6288
  301MOL    H1542615   6.301   5.867   4.882 -0.1606 -0.5703 -0.8203
  301MOL    C1642616   6.178   5.965   5.027 -0.0817  0.6497 -0.8301
  301MOL    C1742617   6.050   6.050   5.037 -0.3977  0.2969 -0.3194
  301MOL    C1842618   5.933   5.964   5.051 -0.1959  0.3256  0.0651
  301MOL    N1942619   5.841   5.895   5.063  0.0655 -0.1231  0.0971
  301MOL    H2042620   6.200   5.909   5.118  0.2004  2.1897  0.0494
  301MOL    H2142621   6.269   6.025   5.028  0.2377  0.1671  0.8173
  301MOL    H2242622   6.042   6.095   4.938  1.0671 -3.1020 -2.0807
  301MOL    C2342623   6.063   6.157   5.142 -0.3330  0.0132  0.3477
  301MOL    C2442624   5.938   6.241   5.166  0.4211  0.0729 -0.1432
  301MOL    C2542625   5.829   6.168   5.229  0.7936 -0.0619  0.0547
  301MOL    N2642626   5.745   6.103   5.266  0.2627  0.1595 -0.3017
  301MOL    H2742627   6.114   6.124   5.232  1.5420  0.2555 -0.6072
  301MOL    H2842628   6.137   6.222   5.095  0.0451 -1.6311 -1.4476
  301MOL    H2942629   5.892   6.275   5.073  0.4139 -0.3734 -0.3033
  301MOL    C3042630   5.970   6.362   5.266  0.0158  1.0953 -0.8967
  301MOL    C3142631   5.869   6.466   5.283 -0.2445  0.4489  0.6523
  301MOL    C3242632   5.791   6.482   5.160 -0.1440  0.4145 -0.4653
  301MOL    N3342633   5.742   6.493   5.055  0.7614  0.9600 -0.3887
  301MOL    H3442634   6.004   6.327   5.364  0.2097  0.2273 -1.2658
  301MOL    H3542635   6.062   6.407   5.230  1.5945 -1.7156 -0.5361
  301MOL    H3642636   5.919   6.563   5.283  1.0286 -0.1900  0.7038
  301MOL    C3742637   5.800   6.452   5.419  0.6351  0.1654 -0.8460
  301MOL    C3842638   5.716   6.573   5.458 -0.2316 -0.5361 -0.1737
  301MOL    C3942639   5.583   6.575   5.389  0.1889  0.4641  0.6571
  301MOL    N4042640   5.478   6.568   5.336  0.0534  0.4066  0.8659
  301MOL    H4142641   5.737   6.363   5.418 -0.3942  0.8977 -1.2825
  301MOL    H4242642   5.868   6.431   5.501  1.4279 -1.7395 -1.9324
  301MOL    H4342643   5.761   6.661   5.412  1.2128 -0.7574  0.7841
  301MOL    C4442644   5.720   6.611   5.607  0.0280 -0.1393  0.5478
  301MOL    C4542645   5.643   6.509   5.693 -0.6809 -0.0155  0.8107
  301MOL    C4642646   5.681   6.370   5.675 -0.4768  0.1090  0.1819
  301MOL    N4742647   5.699   6.253   5.658 -0.2461 -0.1082  0.2493
  301MOL    H4842648   5.823   6.620   5.644  0.5965 -0.3045 -0.9589
  301MOL    H4942649   5.675   6.709   5.621  0.8857  0.4373 -0.6729
  301MOL    H5042650   5.544   6.518   5.648  0.9836  0.7567 -2.9342
  301MOL    C5142651   5.631   6.523   5.845  0.7910 -0.8989 -0.6622
  301MOL    C5242652   5.647   6.666   5.903  0.5337 -0.3467 -0.0105
  301MOL    C5342653   5.561   6.762   5.833 -0.7646 -0.0429 -0.5482
  301MOL    N5442654   5.492   6.833   5.772  0.1051  0.1295 -0.1172
  301MOL    H5542655   5.527   6.502   5.870  0.1024  2.0409 -0.8488
  301MOL    H5642656   5.689   6.456   5.908  0.1200 -0.2743  0.6359
  301MOL    H5742657   5.742   6.715   5.884  0.2353  0.6611  1.0248
  301MOL    C5842658   5.625   6.659   6.059 -0.7777  0.4920 -0.2998
  301MOL    C5942659   5.712   6.574   6.142  0.5252 -0.2600  0.7367
  301MOL    C6042660   5.838   6.532   6.073 -0.2969 -1.0968  0.6711
  301MOL    N6142661   5.935   6.503   6.024  0.0259 -0.1099  0.0003
  301MOL    H6242662   5.625   6.761   6.098 -1.9985  0.0198  1.0035
  301MOL    H6342663   5.527   6.613   6.071 -0.7616  0.2713 -1.0024
  301MOL    H6442664   5.655   6.482   6.159 -0.3484  0.2540  0.6067
  301MOL    C6542665   5.733   6.625   6.286  0.0421 -0.1407  0.4110
  301MOL    C6642666   5.606   6.645   6.362  0.6097 -0.3543 -0.1494
  301MOL    C6742667   5.517   6.527   6.360  0.2052  0.3977  0.8515
  301MOL    N6842668   5.447   6.433   6.359  0.1123  0.5739 -0.3759
  301MOL    H6942669   5.805   6.553   6.325  0.4026  0.5380  1.0169
  301MOL    H7042670   5.791   6.718   6.277  0.6063 -0.6572 -1.6084
  301MOL    H7142671   5.546   6.717   6.307 -0.0048  0.7646  1.9263
  301MOL    C7242672   5.629   6.713   6.502  0.7432  0.3551 -0.1721
  301MOL    C7342673   5.702   6.847   6.500 -0.7136  0.4030  0.0775
  301MOL    C7442674   5.640   6.945   6.417 -0.0086  0.0826  0.0943
  301MOL    N7542675   5.585   7.016   6.342  0.6309  0.8550 -1.3254
  301MOL    H7642676   5.531   6.724   6.547 -0.1429 -2.0244 -1.4123
  301MOL    H7742677   5.679   6.634   6.559 -0.7920 -0.6359 -0.1834
  301MOL    H7842678   5.795   6.830   6.446 -1.0513 -1.4540  0.0585
  301MOL    C7942679   5.729   6.902   6.645 -0.6257  0.8976 -0.5983
  301MOL    C8042680   5.810   7.032   6.655 -0.9682 -0.5644  0.0400
  301MOL    C8142681   5.828   7.074   6.796 -0.6667  0.0754 -0.1925
  301MOL    N8242682   5.839   7.104   6.904 -0.1185  0.3807 -1.0364
  301MOL    H8342683   5.633   6.914   6.696 -0.0232  1.3327  0.4327
  301MOL    H8442684   5.793   6.838   6.705 -2.4259  0.7853  1.2728
  301MOL    H8542685   5.747   7.103   6.601 -1.8594 -1.6100 -0.3421
  301MOL    C8642686   5.950   7.032   6.590 -0.4879  0.7370  0.7958
  301MOL    C8742687   6.014   7.166   6.570 -0.1653  0.5728 -0.4563
  301MOL    C8842688   6.156   7.143   6.525  0.4527 -0.5184 -0.8943
  301MOL    N8942689   6.268   7.132   6.498 -0.2493  0.0405 -0.6218
  301MOL    H9042690   6.024   6.975   6.646  0.4676  1.7465  0.5793
  301MOL    H9142691   5.931   6.994   6.489  1.4454  1.2635  0.1966
  301MOL    H9242692   6.014   7.213   6.668  0.2690 -2.1836  0.9091
  301MOL    C9342693   5.936   7.254   6.472 -0.0540  0.2158 -0.2440
  301MOL    C9442694   5.954   7.244   6.321  0.5921  0.5954  0.3855
  301MOL    C9542695   5.920   7.115   6.271 -0.0461  0.1401  0.2854
  301MOL    N9642696   5.903   7.007   6.236  0.1466 -0.2207  0.4570
  301MOL    H9742697   5.832   7.248   6.506  0.3697 -2.5079  0.6913
  301MOL    H9842698   5.947   7.361   6.493 -2.7735  0.0493  2.4200
  301MOL    H9942699   6.061   7.265   6.317  1.3971 -3.3450 -0.5485
  301MOL   C10042700   5.886   7.361   6.234  0.4781  0.0495 -0.4880
  301MOL   C10142701   5.935   7.510   6.257 -0.2779 -0.3256  0.0853
  301MOL   C10242702   6.086   7.514   6.253  0.8920 -0.4044 -0.0748
  301MOL   N10342703   6.199   7.508   6.247  0.0555  0.0561  0.7344
  301MOL   H10442704   5.901   7.352   6.127  0.8795 -0.4929 -0.3845
  301MOL   H10542705   5.777   7.357   6.235  0.5530 -2.9983  0.2162
  301MOL   H10642706   5.907   7.547   6.355 -0.7279 -1.8615  0.5495
  301MOL   C10742707   5.887   7.606   6.145  0.2300 -0.0417  0.2264
  301MOL   C10842708   5.743   7.649   6.131 -0.0208  0.6170 -0.0733
  301MOL   C10942709   5.708   7.732   6.250  0.0415  0.6142 -0.2782
  301MOL   N11042710   5.685   7.796   6.344  0.3843  0.1052  0.5258
  301MOL   H11142711   5.943   7.699   6.149 -0.0780  0.2274 -1.3465
  301MOL   H11242712   5.925   7.572   6.049  0.2703  0.8586 -0.0783
  301MOL   H11342713   5.674   7.564   6.133  1.2349 -0.4605 -1.6018
  301MOL   C11442714   5.701   7.717   5.994  0.9188 -0.2227  0.0550
  301MOL   C11542715   5.551   7.757   5.961  0.8319  0.0336  0.1888
  301MOL   C11642716   5.453   7.643   5.970 -0.4603 -0.1448 -0.4108
  301MOL   N11742717   5.379   7.560   5.977 -0.1665  0.1659  0.0775
  301MOL   H11842718   5.771   7.797   5.970  1.6511 -1.2306 -1.1823
  301MOL   H11942719   5.729   7.638   5.926 -3.1212 -1.8796  0.1745
  301MOL   H12042720   5.561   7.785   5.856  0.2586  1.4040  0.4869
  301MOL   C12142721   5.500   7.876   6.039  0.1031 -0.3858 -0.2076
  301MOL   C12242722   5.395   7.957   5.962  0.1678  0.6766 -0.4671
  301MOL   C12342723   5.298   8.017   6.053  0.2435 -0.8443 -0.2842
  301MOL   N12442724   5.221   8.065   6.124 -0.2132  0.2672  0.5245
  301MOL   H12542725   5.455   7.843   6.133 -0.1307 -0.2278 -0.2617
  301MOL   H12642726   5.579   7.938   6.081 -0.6812  0.8835 -0.5606
  301MOL   H12742727   5.338   7.880   5.909  0.5948  0.2438 -0.3057
  301MOL   C12842728   5.455   8.058   5.861  0.5188  0.6366 -0.1031
  301MOL   C12942729   5.348   8.122   5.770 -0.2967 -0.7754  0.2541
  301MOL   C13042730   5.416   8.224   5.689  0.3340  0.1663  0.2349
  301MOL   N13142731   5.470   8.310   5.632 -0.3437 -0.2515 -0.0632
  301MOL   H13242732   5.505   8.131   5.925  0.1483  0.5528  0.2863
  301MOL   H13342733   5.536   8.018   5.800  0.8452  1.3139 -0.1117
  301MOL   H13442734   5.271   8.181   5.821  0.7845  1.3700 -0.5585
  301MOL   C13542735   5.277   8.029   5.679  0.0489 -0.0437  0.3927
  301MOL   C13642736   5.365   7.945   5.584  0.3910  0.3137 -0.5179
  301MOL   C13742737   5.292   7.874   5.480  0.2059  0.3658 -0.2100
  301MOL   N13842738   5.234   7.823   5.390 -0.4631 -0.0702 -0.0167
  301MOL   H13942739   5.211   7.966   5.739 -1.4346 -0.5062 -1.6695
  301MOL   H14042740   5.211   8.088   5.615 -1.2945 -1.1286  0.7292
  301MOL   H14142741   5.413   7.864   5.638  1.7510  0.1718 -1.9011
  301MOL   H14242742   5.451   7.990   5.533 -0.0090  0.9269 -0.6532
  302MOL     C142743   4.857   0.417   8.222 -0.0579 -0.4913  0.6784
  302MOL     C242744   4.822   0.432   0.057 -0.0614  0.7119 -0.1337
  302MOL     C342745   4.718   0.536   0.077  0.3958 -0.4040  0.0724
  302MOL     N442746   4.636   0.618   0.091 -0.0824  0.4601  0.2230
  302MOL     H542747   4.781   0.367   8.163 -0.8660  2.3108 -0.7309
  302MOL     H642748   4.943   0.351   8.207 -0.8697 -1.6999  1.2019
  302MOL     H742749   4.911   0.474   0.104  0.0975  1.1498 -0.8231
  302MOL     H842750   4.882   0.512   8.176  2.3950 -1.3506  0.1381
  302MOL     C942751   4.787   0.301   0.133  0.1350 -0.0331  0.5087
  302MOL    C1042752   4.803   0.305   0.284  0.2235  1.0048 -0.3420
  302MOL    C1142753   4.748   0.423   0.346 -0.3023 -0.4658  0.1302
  302MOL    N1242754   4.707   0.520   0.387  0.5945 -0.4189 -0.4956
  302MOL    H1342755   4.682   0.270   0.130  0.0459  0.3638 -1.0178
  302MOL    H1442756   4.834   0.219   0.079 -2.0716 -2.4467  2.1430
  302MOL    H1542757   4.908   0.313   0.311 -0.5610  0.8551  2.9560
  302MOL    C1642758   4.728   0.191   0.358  0.2088  0.2948  0.4554
  302MOL    C1742759   4.768   0.164   0.499 -0.2860  0.0878  0.4873
  302MOL    C1842760   4.671   0.091   0.580 -0.7593  0.2846 -0.0239
  302MOL    N1942761   4.592   0.023   0.636  0.3296 -0.2373  0.2564
  302MOL    H2042762   4.622   0.215   0.364  0.3723  0.6817  1.7965
  302MOL    H2142763   4.735   0.098   0.302  2.2890  0.1606  0.8996
  302MOL    H2242764   4.776   0.256   0.555  1.4206 -0.9794  2.0501
  302MOL    C2342765   4.906   0.101   0.506  0.3124  0.0530  0.5195
  302MOL    C2442766   4.975   0.071   0.641  0.2290 -0.2877 -0.5033
  302MOL    C2542767   4.954   0.170   0.749 -0.0475  0.0875 -0.2843
  302MOL    N2642768   4.935   0.243   0.837 -0.2230  0.2003 -0.1686
  302MOL    H2742769   4.919   0.021   0.433  0.5153  1.3628 -0.9070
  302MOL    H2842770   4.981   0.171   0.470  0.7911 -1.2086 -1.0233
  302MOL    H2942771   5.081   0.073   0.615  0.2592  0.0567 -0.3416
  302MOL    C3042772   4.938   8.239   0.695 -0.4091  0.3119 -0.0186
  302MOL    C3142773   5.013   8.184   0.815  0.6398 -0.2139 -0.5569
  302MOL    C3242774   5.159   8.192   0.801  0.1721  0.2742  0.3145
  302MOL    N3342775   5.277   8.200   0.790  0.2757 -0.0487 -0.1689
  302MOL    H3442776   4.833   8.243   0.723 -0.9920  0.2477 -2.1552
  302MOL    H3542777   4.934   8.172   0.609 -0.8577 -0.4621  0.6016
  302MOL    H3642778   4.997   8.077   0.815 -2.6962  0.2494 -1.3923
  302MOL    C3742779   4.967   8.253   0.946 -0.5074 -0.0276 -0.2857
  302MOL    C3842780   4.973   8.162   1.067 -0.2022  0.4053 -0.3128
  302MOL    C3942781   5.097   8.092   1.085 -0.3411 -0.7109 -0.8452
  302MOL    N4042782   5.196   8.029   1.092  0.6680  0.0279 -0.4079
  302MOL    H4142783   5.031   0.027   0.963  0.5773 -1.0080  0.7740
  302MOL    H4242784   4.863   8.283   0.931 -0.0693  1.3165 -0.7231
  302MOL    H4342785   4.912   8.073   1.048 -0.8854  0.6373  0.7647
  302MOL    C4442786   4.934   8.230   1.199  0.3938 -0.0788 -0.1864
  302MOL    C4542787   4.945   8.141   1.322 -0.1589  0.1783 -1.0792
  302MOL    C4642788   4.999   8.213   1.445  0.8439  0.6166  0.2895
  302MOL    N4742789   5.035   8.275   1.539 -0.3921 -0.3711  0.0324
  302MOL    H4842790   5.008   8.309   1.207 -1.0072  1.3949 -1.4063
  302MOL    H4942791   4.840   8.285   1.192  0.9148  0.7606 -0.7196
  302MOL    H5042792   5.017   8.060   1.312  0.4183  0.3989  0.9474
  302MOL    C5142793   4.806   8.090   1.361 -0.3038 -0.2719 -0.3696
  302MOL    C5242794   4.740   8.008   1.253 -0.7658  0.1086 -0.2410
  302MOL    C5342795   4.831   7.905   1.192  0.3383 -0.0743 -0.6220
  302MOL    N5442796   4.903   7.830   1.143  0.0110 -0.2512 -0.0531
  302MOL    H5542797   4.809   8.034   1.454  0.0840  0.8298  0.2833
  302MOL    H5642798   4.735   8.171   1.377 -0.2017 -0.0119 -1.2071
  302MOL    H5742799   4.722   8.080   1.174  0.1684 -1.1763 -1.6440
  302MOL    C5842800   4.597   7.959   1.291 -0.4419 -0.2598 -0.5445
  302MOL    C5942801   4.598   7.833   1.379  0.7946  0.6570  0.0340
  302MOL    C6042802   4.607   7.865   1.523 -0.4049 -0.2667 -0.2464
  302MOL    N6142803   4.620   7.888   1.639  0.3711  0.2471  0.0546
  302MOL    H6242804   4.540   8.040   1.337  0.4925 -1.4932  2.9120
  302MOL    H6342805   4.560   7.925   1.194  2.0088 -1.5705 -1.0511
  302MOL    H6442806   4.694   7.786   1.360  0.6718  0.3378  0.1882
  302MOL    C6542807   4.468   7.737   1.358  0.3273 -0.7685 -0.0395
  302MOL    C6642808   4.462   7.651   1.224 -0.3048 -0.4763 -0.4326
  302MOL    C6742809   4.576   7.562   1.226 -0.8414  0.0824 -0.1949
  302MOL    N6842810   4.670   7.490   1.230  0.2130 -0.5370  0.0787
  302MOL    H6942811   4.469   7.677   1.449 -1.9070  0.1532  0.6475
  302MOL    H7042812   4.380   7.802   1.355 -0.7236 -2.0893  1.1037
  302MOL    H7142813   4.474   7.720   1.140 -0.7678  0.1042 -0.0281
  302MOL    C7242814   4.328   7.580   1.211 -0.0399 -0.1915  0.4161
  302MOL    C7342815   4.304   7.482   1.098  0.0125 -0.0724 -0.4461
  302MOL    C7442816   4.183   7.407   1.119 -0.3913  0.0525  0.0256
  302MOL    N7542817   4.087   7.356   1.139  0.2388  0.0691 -0.0040
  302MOL    H7642818   4.309   7.528   1.305 -0.4796 -0.4345  0.1926
  302MOL    H7742819   4.247   7.652   1.205 -1.0733 -1.2809  1.1499
  302MOL    H7842820   4.388   7.413   1.109  0.7597  0.9182  0.1838
  302MOL    C7942821   4.314   7.555   0.964 -0.6870 -0.2752  0.0495
  302MOL    C8042822   4.323   7.461   0.837 -0.0606 -0.5688  0.0485
  302MOL    C8142823   4.358   7.547   0.724  0.7333 -0.3638  0.0978
  302MOL    N8242824   4.384   7.621   0.639 -0.0772 -0.2220 -0.0443
  302MOL    H8342825   4.223   7.613   0.945  1.3156  2.5353 -1.2628
  302MOL    H8442826   4.400   7.622   0.957 -0.5280 -0.6625 -2.2190
  302MOL    H8542827   4.230   7.412   0.805 -0.5222  0.1538  0.2768
  302MOL    C8642828   4.437   7.354   0.857  0.4770 -0.6716 -0.4233
  302MOL    C8742829   4.519   7.314   0.736 -0.3065 -0.6616 -0.7184
  302MOL    C8842830   4.647   7.251   0.774  0.8240 -0.4732 -0.6534
  302MOL    N8942831   4.747   7.209   0.804  0.1755  0.3089  0.1726
  302MOL    H9042832   4.511   7.395   0.926 -1.2321  2.0756 -0.1672
  302MOL    H9142833   4.397   7.260   0.897 -0.2122  0.1124  0.7734
  302MOL    H9242834   4.556   7.405   0.690 -0.1847 -1.9534 -3.2306
  302MOL    C9342835   4.449   7.251   0.615 -0.2855  0.6009  0.1358
  302MOL    C9442836   4.397   7.101   0.632  0.2987 -0.1679  0.1191
  302MOL    C9542837   4.276   7.103   0.717  0.2382  0.1022 -0.5466
  302MOL    N9642838   4.174   7.103   0.781 -0.0524  0.3119  0.1843
  302MOL    H9742839   4.361   7.313   0.596 -0.5006  0.6096  1.1470
  302MOL    H9842840   4.519   7.259   0.531  0.5931 -0.3571  0.7661
  302MOL    H9942841   4.464   7.033   0.684  1.3816  1.6758  1.1819
  302MOL   C10042842   4.364   7.049   0.489  0.3453  0.7213  0.3954
  302MOL   C10142843   4.350   6.895   0.484  0.6972 -0.6053 -0.2397
  302MOL   C10242844   4.454   6.814   0.545  0.3983 -0.0450 -0.4414
  302MOL   N10342845   4.538   6.754   0.596  0.7588  0.4436 -0.8639
  302MOL   H10442846   4.285   7.112   0.448  1.4883  1.3414 -0.9262
  302MOL   H10542847   4.453   7.071   0.429  1.0965 -0.9270  0.8601
  302MOL   H10642848   4.358   6.867   0.379  2.3213 -0.8424 -0.0774
  302MOL   C10742849   4.211   6.843   0.531  0.1736  0.2718 -0.4736
  302MOL   C10842850   4.139   6.735   0.440 -0.5414 -0.3046  0.2504
  302MOL   C10942851   4.093   6.793   0.311  0.3285 -0.4903  0.3295
  302MOL   N11042852   4.058   6.831   0.207 -0.3937 -0.3502 -0.0615
  302MOL   H11142853   4.214   6.809   0.634 -2.8640 -0.0553 -0.4430
  302MOL   H11242854   4.149   6.932   0.542  1.9687  1.7257 -1.9085
  302MOL   H11342855   4.047   6.706   0.490  0.8164  1.2571  3.8645
  302MOL   C11442856   4.212   6.604   0.417  0.1617  0.4485 -0.1818
  302MOL   C11542857   4.241   6.522   0.543 -0.4504 -0.6365 -0.0647
  302MOL   C11642858   4.121   6.498   0.626 -0.5891 -0.8151  0.0439
  302MOL   N11742859   4.024   6.489   0.694  0.6183  0.3690 -0.1511
  302MOL   H11842860   4.151   6.538   0.355 -0.7014 -1.1805  2.3288
  302MOL   H11942861   4.301   6.605   0.356 -1.1632  0.1673 -2.1689
  302MOL   H12042862   4.288   6.582   0.620  0.3260 -0.9099 -0.3230
  302MOL   C12142863   4.328   6.391   0.531  0.6578 -0.2509 -0.2721
  302MOL   C12242864   4.372   6.336   0.667 -0.3593 -0.5171  0.2956
  302MOL   C12342865   4.388   6.193   0.685  0.1843 -0.3249  0.2918
  302MOL   N12442866   4.399   6.079   0.706  0.2700 -0.3111  0.2313
  302MOL   H12542867   4.257   6.318   0.491 -0.0955  1.2434 -1.7080
  302MOL   H12642868   4.410   6.406   0.461  1.0168 -2.6766 -0.4246
  302MOL   H12742869   4.294   6.360   0.739  0.3345 -1.1453  1.2662
  302MOL   C12842870   4.507   6.404   0.721 -0.0554  0.0425 -0.5600
  302MOL   C12942871   4.637   6.383   0.641  0.0771 -0.1135  0.1812
  302MOL   C13042872   4.737   6.488   0.659 -0.5987 -0.1874  0.8684
  302MOL   N13142873   4.825   6.569   0.660  0.2210 -0.3804 -0.2366
  302MOL   H13242874   4.487   6.508   0.745  0.4570  0.0579 -0.1812
  302MOL   H13342875   4.528   6.365   0.820 -1.1727  0.6131 -0.1015
  302MOL   H13442876   4.601   6.404   0.540 -0.1599  0.1623  0.3217
  302MOL   C13542877   4.693   6.243   0.639  0.9312  0.5397  0.1642
  302MOL   C13642878   4.709   6.163   0.767  0.8478  0.0640 -0.1739
  302MOL   C13742879   4.794   6.230   0.868  0.2991  0.3287 -0.0475
  302MOL   N13842880   4.863   6.279   0.947 -0.3158  0.0719 -0.6965
  302MOL   H13942881   4.636   6.177   0.573 -0.1088  0.7062  0.8786
  302MOL   H14042882   4.790   6.245   0.589  0.6947  2.1335 -0.2727
  302MOL   H14142883   4.756   6.067   0.746  1.0602  0.1351 -0.0249
  302MOL   H14242884   4.608   6.154   0.807  1.5238 -0.2284  1.5054
  303MOL     C142885   3.482   2.237   8.030 -0.2431 -0.2884  0.0170
  303MOL     C242886   3.576   2.135   8.095 -0.6067 -0.1529 -0.8143
  303MOL     C342887   3.722   2.179   8.107  0.0953  0.2858  0.7257
  303MOL     N442888   3.830   2.209   8.117  0.0207 -0.5635  0.0424
  303MOL     H542889   3.536   2.268   7.940  1.3281 -0.4036  0.8907
  303MOL     H642890   3.458   2.315   8.103 -0.1548  0.6581 -0.9521
  303MOL     H742891   3.582   2.062   8.014  0.3218 -0.9780 -0.0150
  303MOL     H842892   3.388   2.196   7.995 -0.2897 -1.1947  1.1789
  303MOL     C942893   3.515   2.079   8.223 -0.3695  0.2067 -0.3010
  303MOL    C1042894   3.578   1.942   8.255 -0.5632 -0.1754 -0.0974
  303MOL    C1142895   3.709   1.966   8.307 -0.4523 -0.4754 -0.2635
  303MOL    N1242896   3.815   1.985   0.042 -0.5043 -0.0943 -0.5209
  303MOL    H1342897   3.525   2.153   8.302  3.2184 -1.3834  0.8096
  303MOL    H1442898   3.406   2.074   8.214 -0.3304 -0.3406 -0.5316
  303MOL    H1542899   3.598   1.882   8.166  2.2579 -4.0555  2.9670
  303MOL    C1642900   3.493   1.863   0.057 -0.0600 -0.3157 -0.5448
  303MOL    C1742901   3.525   1.713   0.062  0.5826  0.3820 -0.5709
  303MOL    C1842902   3.653   1.670   0.000 -0.4208  0.0794 -0.5121
  303MOL    N1942903   3.752   1.642   8.260 -0.8017  0.4320 -1.2205
  303MOL    H2042904   3.491   1.905   0.158 -1.4760  0.0566 -0.7096
  303MOL    H2142905   3.387   1.864   0.031  0.0466 -3.6221 -1.3509
  303MOL    H2242906   3.452   1.689   8.297  2.1379 -3.4072 -0.9572
  303MOL    C2342907   3.490   1.651   0.205 -0.1527  0.2307  0.1637
  303MOL    C2442908   3.604   1.637   0.307 -0.1281  0.4015  0.0887
  303MOL    C2542909   3.665   1.768   0.327  0.0213  0.6972 -0.5675
  303MOL    N2642910   3.716   1.870   0.334  0.2152 -0.4427  0.1190
  303MOL    H2742911   3.406   1.711   0.240 -0.7681  0.4549 -1.6272
  303MOL    H2842912   3.452   1.549   0.196 -0.8108  0.3187  1.7464
  303MOL    H2942913   3.673   1.568   0.260  0.4691  1.1234 -0.1095
  303MOL    C3042914   3.558   1.585   0.442 -0.1499 -0.0139 -0.2218
  303MOL    C3142915   3.653   1.517   0.540 -0.3059 -0.2632 -0.2925
  303MOL    C3242916   3.761   1.611   0.574 -0.1207 -0.2919  0.2843
  303MOL    N3342917   3.840   1.690   0.598 -0.7160 -0.4134 -0.3689
  303MOL    H3442918   3.509   1.665   0.498 -0.1297 -0.5489  0.5676
  303MOL    H3542919   3.483   1.508   0.424 -1.5243  1.5673 -1.5267
  303MOL    H3642920   3.703   1.432   0.492  2.8328  1.8781 -0.9443
  303MOL    C3742921   3.588   1.462   0.667 -0.3920 -0.9494 -0.2985
  303MOL    C3842922   3.666   1.359   0.748  0.2302 -0.3154 -0.5735
  303MOL    C3942923   3.809   1.370   0.766  0.1961 -0.2096  0.6228
  303MOL    N4042924   3.926   1.378   0.781 -0.3807  0.6883 -0.7698
  303MOL    H4142925   3.573   1.551   0.727 -1.1188 -0.9937 -0.4164
  303MOL    H4242926   3.486   1.441   0.636 -1.2094  2.8388 -0.3912
  303MOL    H4342927   3.654   1.276   0.678  3.6871  0.8547 -2.6689
  303MOL    C4442928   3.591   1.326   0.881 -0.1999  0.3076  0.5186
  303MOL    C4542929   3.607   1.187   0.941 -0.8246  0.2551 -0.0738
  303MOL    C4642930   3.743   1.145   0.989  0.2514  0.6458 -0.5762
  303MOL    N4742931   3.848   1.116   1.026 -0.2609 -0.2827  0.4895
  303MOL    H4842932   3.619   1.399   0.958  0.5342  0.9056 -0.2941
  303MOL    H4942933   3.489   1.340   0.845  0.2820  1.2778 -0.5046
  303MOL    H5042934   3.590   1.103   0.874  1.7642 -1.1576  0.9971
  303MOL    C5142935   3.509   1.166   1.059  0.0766  0.3556 -0.0495
  303MOL    C5242936   3.359   1.187   1.035  0.3541  0.6755 -0.2407
  303MOL    C5342937   3.313   1.125   0.907  0.1342 -0.2659 -0.3685
  303MOL    N5442938   3.281   1.079   0.804 -0.6043  0.7674 -0.3801
  303MOL    H5542939   3.527   1.064   1.093 -1.8826 -0.2505 -0.7616
  303MOL    H5642940   3.546   1.238   1.132  0.6335 -1.5551  1.6071
  303MOL    H5742941   3.352   1.295   1.020  0.8229  1.0167  1.7803
  303MOL    C5842942   3.281   1.154   1.161  0.1235  0.1085 -0.2969
  303MOL    C5942943   3.126   1.170   1.149 -0.0107 -0.3249 -0.4903
  303MOL    C6042944   3.061   1.058   1.077 -0.5242  0.1630  0.5901
  303MOL    N6142945   3.018   0.961   1.024 -0.0771  0.1529 -0.1692
  303MOL    H6242946   3.315   1.054   1.187  1.4713 -0.2556 -3.3210
  303MOL    H6342947   3.314   1.221   1.241  0.8187 -0.9834  0.3482
  303MOL    H6442948   3.108   1.254   1.082 -2.4935 -0.3984  0.0120
  303MOL    C6542949   3.058   1.199   1.279 -1.3309 -0.0475  0.4775
  303MOL    C6642950   3.075   1.345   1.319 -0.0395 -0.0586 -0.3173
  303MOL    C6742951   3.015   1.444   1.218 -0.3676  0.5564  0.1758
  303MOL    N6842952   2.970   1.513   1.140 -0.5445  0.1264 -0.1309
  303MOL    H6942953   2.950   1.182   1.269 -1.4604  0.9866  0.0441
  303MOL    H7042954   3.086   1.136   1.363  0.3443  1.2952  0.9424
  303MOL    H7142955   3.179   1.377   1.311  0.2251 -0.3714  1.6757
  303MOL    C7242956   3.018   1.367   1.460  0.1984  0.9697  0.7693
  303MOL    C7342957   3.123   1.346   1.571 -0.4599  0.0292 -0.8108
  303MOL    C7442958   3.256   1.405   1.542 -0.9991 -0.6377  0.5445
  303MOL    N7542959   3.358   1.456   1.511 -0.2623 -0.2761 -0.0017
  303MOL    H7642960   2.991   1.473   1.458 -0.4862  0.7929  0.5929
  303MOL    H7742961   2.927   1.313   1.487  0.0433  1.9808  2.4021
  303MOL    H7842962   3.154   1.241   1.568 -1.1786 -0.1943 -0.6116
  303MOL    C7942963   3.073   1.384   1.713  0.7682 -0.6760 -0.6312
  303MOL    C8042964   3.162   1.351   1.831 -0.3887 -0.1630 -0.3755
  303MOL    C8142965   3.114   1.426   1.951  0.0736 -0.1994 -0.4172
  303MOL    N8242966   3.070   1.484   2.042  0.2611 -0.3164 -0.1319
  303MOL    H8342967   3.036   1.485   1.725 -0.2125 -1.4180  3.4159
  303MOL    H8442968   2.982   1.328   1.736  0.5463 -0.2967 -0.5864
  303MOL    H8542969   3.267   1.369   1.810  0.1815 -1.5096  1.1737
  303MOL    C8642970   3.171   1.204   1.867  0.2953  0.0694  0.3124
  303MOL    C8742971   3.276   1.147   1.974 -0.3425 -0.2970  0.1309
  303MOL    C8842972   3.292   1.225   2.098  0.5174 -0.0091  0.4970
  303MOL    N8942973   3.293   1.282   2.199  0.0228  0.5139  0.8509
  303MOL    H9042974   3.075   1.159   1.892  0.2272 -0.0854 -0.2279
  303MOL    H9142975   3.205   1.158   1.775 -0.4643 -1.6402  0.8709
  303MOL    H9242976   3.375   1.171   1.935  0.8380 -1.7520  2.1061
  303MOL    C9342977   3.289   0.988   1.973  0.7246 -0.4103 -0.2151
  303MOL    C9442978   3.378   0.942   2.090  0.1462 -0.5010 -0.9167
  303MOL    C9542979   3.323   0.937   2.221  0.0441  0.0827 -0.4178
  303MOL    N9642980   3.285   0.940   2.331 -0.2756  0.2203 -0.1849
  303MOL    H9742981   3.191   0.941   1.977  0.3851  0.3075 -0.0210
  303MOL    H9842982   3.324   0.961   1.873 -1.5846 -1.5439 -0.7618
  303MOL    H9942983   3.456   1.018   2.100 -1.8579  1.4705  0.1748
  303MOL   C10042984   3.448   0.802   2.066  0.0993  0.0989  0.5639
  303MOL   C10142985   3.357   0.673   2.086  0.2021  0.3507 -0.5821
  303MOL   C10242986   3.265   0.653   1.970  0.2080 -0.3370  0.1704
  303MOL   N10342987   3.190   0.641   1.882 -0.6843 -0.2614  0.0594
  303MOL   H10442988   3.498   0.811   1.970 -0.5757 -0.5267  0.1498
  303MOL   H10542989   3.524   0.792   2.144 -0.1467 -1.0110  0.6765
  303MOL   H10642990   3.288   0.684   2.170 -0.6168  1.4241 -1.3658
  303MOL   C10742991   3.441   0.551   2.127  0.4537  0.7605 -0.3489
  303MOL   C10842992   3.371   0.414   2.133  0.2685 -0.0062  0.0824
  303MOL   C10942993   3.343   0.361   1.997 -0.4176  0.7608 -0.0927
  303MOL   N11042994   3.319   0.335   1.890 -0.2436 -0.4406  0.1133
  303MOL   H11142995   3.516   0.534   2.050 -0.0572  1.6367 -1.0609
  303MOL   H11242996   3.489   0.570   2.223  0.4863  2.1117 -0.6244
  303MOL   H11342997   3.281   0.425   2.193  0.6012 -0.6904  0.7075
  303MOL   C11442998   3.465   0.314   2.215 -0.3994 -0.6836  0.2425
  303MOL   C11542999   3.450   0.160   2.198 -0.1122  0.1940 -0.0735
  303MOL   C11643000   3.544   0.070   2.271  0.3459  0.0733  0.4414
  303MOL   N11743001   3.614   8.310   2.322 -0.3150  0.4495 -0.0673
  303MOL   H11843002   3.565   0.339   2.180 -0.1816  0.5649  1.7137
  303MOL   H11943003   3.461   0.329   2.323  0.9709  0.4795  0.1532
  303MOL   H12043004   3.468   0.135   2.093 -0.0923 -0.5823  0.1189
  303MOL   C12143005   3.308   0.124   2.223 -0.3135  0.1667 -0.0614
  303MOL   C12243006   3.275   8.291   2.177 -0.2358 -0.3825  0.2018
  303MOL   C12343007   3.149   8.252   2.239  0.5176  0.8345 -0.6811
  303MOL   N12443008   3.049   8.216   2.290  0.4755 -0.6469  0.1433
  303MOL   H12543009   3.295   0.147   2.329  1.9897  1.5662 -0.0416
  303MOL   H12643010   3.243   0.192   2.168  0.9946  2.0964  0.7559
  303MOL   H12743011   3.347   8.217   2.214 -1.0599 -0.9477  0.7071
  303MOL   C12843012   3.280   8.272   2.023  0.4709  0.3831  0.4405
  303MOL   C12943013   3.222   8.137   1.972  0.1071 -0.7719 -0.3359
  303MOL   C13043014   3.244   8.129   1.827 -0.6342 -0.2037 -0.0738
  303MOL   N13143015   3.260   8.126   1.711  0.4120  0.2349  0.0756
  303MOL   H13243016   3.233   0.046   1.975 -0.2394 -0.6953 -0.8617
  303MOL   H13343017   3.384   8.267   1.991  1.6029  2.1409  3.6760
  303MOL   H13443018   3.117   8.146   1.998  0.2200 -0.3958  0.0043
  303MOL   C13543019   3.278   8.014   2.044 -1.1559  0.1052 -0.1626
  303MOL   C13643020   3.431   7.973   2.035  0.6335  0.4303  0.0327
  303MOL   C13743021   3.489   7.941   1.906  0.0733  0.4253 -0.2212
  303MOL   N13843022   3.531   7.915   1.796 -0.2018  0.6151 -0.0458
  303MOL   H13943023   3.234   8.015   2.144 -0.6163  1.2899  0.0735
  303MOL   H14043024   3.227   7.929   1.999  0.1090 -0.1394 -1.1575
  303MOL   H14143025   3.435   7.881   2.093 -0.5185 -0.8573 -1.8655
  303MOL   H14243026   3.503   8.042   2.077 -0.7187  1.2982  0.9529
  304MOL     C143027   6.384   1.468   0.078 -0.2102 -0.0930 -0.4289
  304MOL     C243028   6.372   1.613   0.130 -0.8477 -0.0491 -0.3086
  304MOL     C343029   6.244   1.634   0.197  0.0086  0.0794 -0.2008
  304MOL     N443030   6.145   1.647   0.256  0.4043 -0.2606 -0.5926
  304MOL     H543031   6.469   1.456   0.011  0.8220  1.2681  0.6327
  304MOL     H643032   6.293   1.441   0.024 -0.6884 -1.5506  1.0573
  304MOL     H743033   6.361   1.668   0.036 -1.1830  1.1612  0.4157
  304MOL     H843034   6.401   1.395   0.157 -0.6279  1.8734  1.5022
  304MOL     C943035   6.501   1.659   0.210  0.3095  0.7351 -0.1300
  304MOL    C1043036   6.482   1.787   0.296  0.5426 -0.7346  0.1194
  304MOL    C1143037   6.425   1.756   0.429  0.1538  0.0269 -0.0242
  304MOL    N1243038   6.386   1.736   0.535  0.2420  0.5422 -0.6776
  304MOL    H1343039   6.535   1.575   0.271 -0.8867 -0.2380 -0.7780
  304MOL    H1443040   6.573   1.673   0.130 -0.9767 -1.5310 -1.7201
  304MOL    H1543041   6.406   1.853   0.254  1.0094 -0.5886 -0.4953
  304MOL    C1643042   6.617   1.861   0.329  0.4849  0.2630  0.5468
  304MOL    C1743043   6.664   1.964   0.223 -0.7763  0.2919 -0.2043
  304MOL    C1843044   6.563   1.990   0.123 -0.0993  0.2216 -0.4233
  304MOL    N1943045   6.480   2.010   0.043 -0.4507 -0.2646 -0.0510
  304MOL    H2043046   6.596   1.923   0.416  1.2941  0.0003  0.9311
  304MOL    H2143047   6.695   1.788   0.352 -0.1124  0.0235  1.8989
  304MOL    H2243048   6.739   1.914   0.162 -1.0392  1.5131 -1.5541
  304MOL    C2343049   6.733   2.088   0.288  1.0224  0.6439  0.4126
  304MOL    C2443050   6.801   2.190   0.198 -0.7098 -1.0376  0.1771
  304MOL    C2543051   6.735   2.324   0.209  0.3525  0.5607 -0.6452
  304MOL    N2643052   6.675   2.424   0.212  0.3431  0.1288 -0.3111
  304MOL    H2743053   6.642   2.133   0.327 -0.2386 -1.1064 -0.4210
  304MOL    H2843054   6.801   2.060   0.369 -0.7918 -0.1069  1.7264
  304MOL    H2943055   6.770   2.170   0.096  0.9483 -0.1018 -0.5154
  304MOL    C3043056   6.959   2.184   0.211 -0.3102  0.5284 -0.1866
  304MOL    C3143057   7.043   2.306   0.157  0.3162 -0.3679 -0.0122
  304MOL    C3243058   6.993   2.362   0.032  0.4139 -0.0022  0.0974
  304MOL    N3343059   6.962   2.402   8.240  0.5038  0.1140 -0.6550
  304MOL    H3443060   6.983   2.168   0.316 -3.4212 -1.5547  0.2423
  304MOL    H3543061   6.983   2.095   0.154  1.1489  2.1203 -2.1359
  304MOL    H3643062   7.138   2.257   0.133  0.3237 -0.2284 -0.2677
  304MOL    C3743063   7.059   2.412   0.267 -0.0684  0.8688 -0.0860
  304MOL    C3843064   7.097   2.550   0.218  0.8072  0.6466  0.6569
  304MOL    C3943065   7.082   2.644   0.332  0.4455 -0.1517 -0.5071
  304MOL    N4043066   7.072   2.713   0.426  0.4356  0.3135 -0.4516
  304MOL    H4143067   6.957   2.419   0.305 -0.4256  1.1734 -1.0908
  304MOL    H4243068   7.123   2.372   0.346  1.5841  1.2074 -1.2441
  304MOL    H4343069   7.031   2.591   0.141  0.7335 -0.3869  0.1707
  304MOL    C4443070   7.235   2.543   0.164 -0.5681 -0.4461  0.6647
  304MOL    C4543071   7.288   2.667   0.075 -0.6046 -0.2615 -0.0436
  304MOL    C4643072   7.233   2.788   0.128 -0.1348  0.0278  0.5825
  304MOL    N4743073   7.184   2.883   0.168  0.2474 -0.0447  0.3830
  304MOL    H4843074   7.294   2.538   0.256  0.4262 -2.1062 -0.0375
  304MOL    H4943075   7.252   2.453   0.105 -0.6179 -1.1416  1.7108
  304MOL    H5043076   7.240   2.666   8.290  0.1470  1.7516 -0.4604
  304MOL    C5143077   7.442   2.664   0.068 -0.6009 -0.2015 -0.9550
  304MOL    C5243078   7.502   2.736   8.254 -0.0242 -0.0969 -0.2241
  304MOL    C5343079   7.468   2.663   8.135 -0.3714  0.1717  0.8195
  304MOL    N5443080   7.446   2.597   8.046 -0.2639 -0.2903  0.2566
  304MOL    H5543081   7.490   2.696   0.161  1.9016 -1.5281 -1.7560
  304MOL    H5643082   7.477   2.561   0.065  0.1042  0.0366 -1.0398
  304MOL    H5743083   7.610   2.739   8.267 -0.2154  2.3758  1.0805
  304MOL    C5843084   7.454   2.884   8.246  0.1542 -0.3402  0.7223
  304MOL    C5943085   7.561   2.981   8.196 -0.0880 -0.0236  0.4748
  304MOL    C6043086   7.630   2.936   8.073 -0.3229  0.6081 -0.1236
  304MOL    N6143087   7.688   2.893   7.983  0.7514  0.0539 -0.1952
  304MOL    H6243088   7.368   2.878   8.180 -0.8053  2.7530  1.6121
  304MOL    H6343089   7.416   2.922   0.029  0.4892 -0.8267  1.0548
  304MOL    H6443090   7.640   2.977   8.272  0.7769  0.4059 -0.3808
  304MOL    C6543091   7.513   3.126   8.176 -0.1996 -0.1950  0.2667
  304MOL    C6643092   7.610   3.220   8.243 -0.6489 -0.7241  0.3319
  304MOL    C6743093   7.749   3.181   8.225  0.0100 -0.1583 -0.3769
  304MOL    N6843094   7.861   3.152   8.204  0.0013  0.0216  0.1276
  304MOL    H6943095   7.501   3.144   8.069  0.3164  1.5385  0.4917
  304MOL    H7043096   7.418   3.146   8.225 -0.8713 -0.4412 -0.9172
  304MOL    H7143097   7.598   3.212   0.038  1.5896  0.1162  0.6799
  304MOL    C7243098   7.589   3.363   8.199 -0.4606 -0.4656  0.3671
  304MOL    C7343099   7.684   3.465   8.276 -0.2886  0.2245 -0.2044
  304MOL    C7443100   7.645   3.606   8.238  0.6009 -0.4084 -0.1842
  304MOL    N7543101   7.619   3.714   8.215  0.3202 -0.0307  0.2885
  304MOL    H7643102   7.606   3.364   8.092 -0.1739  1.0974  0.4219
  304MOL    H7743103   7.486   3.389   8.226 -0.7034 -1.2600  0.2394
  304MOL    H7843104   7.783   3.447   8.233 -0.1768 -1.0841  0.5777
  304MOL    C7943105   7.691   3.436   0.114 -0.2481  0.0002 -0.3036
  304MOL    C8043106   7.787   3.529   0.186  1.5718 -0.1595  0.2823
  304MOL    C8143107   7.919   3.543   0.132  0.1127 -0.0382  0.2046
  304MOL    N8243108   8.022   3.553   0.092 -0.5211 -0.1242  0.3770
  304MOL    H8343109   7.588   3.430   0.150  0.4474 -0.0740  1.7372
  304MOL    H8443110   7.732   3.337   0.131  0.3982  0.6570  2.1407
  304MOL    H8543111   7.803   3.485   0.284  0.4370  2.3100  1.6218
  304MOL    C8643112   7.730   3.674   0.224  0.4226 -0.4964  0.6103
  304MOL    C8743113   7.757   3.720   0.371 -0.1013 -0.0942  0.4792
  304MOL    C8843114   7.894   3.708   0.426 -0.4414  0.4299  0.0406
  304MOL    N8943115   8.003   3.688   0.465  0.3936  0.1283  0.1938
  304MOL    H9043116   7.775   3.748   0.159  0.6589  0.0574  1.3958
  304MOL    H9143117   7.622   3.681   0.220  0.4915  0.8101  0.7532
  304MOL    H9243118   7.695   3.653   0.431  0.6514 -1.2262  0.0164
  304MOL    C9343119   7.711   3.870   0.389 -0.0160 -0.2230 -0.7538
  304MOL    C9443120   7.745   3.942   0.527 -0.3210  0.2215  0.0325
  304MOL    C9543121   7.883   3.976   0.553 -0.5489  0.7945  0.1851
  304MOL    N9643122   7.993   4.001   0.571 -0.6634 -0.0415 -0.5128
  304MOL    H9743123   7.744   3.936   0.308  0.3950  0.5750  0.0576
  304MOL    H9843124   7.603   3.866   0.380  0.1200  0.4175 -2.9655
  304MOL    H9943125   7.715   3.867   0.600  2.0778 -1.4834 -0.7013
  304MOL   C10043126   7.653   4.061   0.542 -0.1697  0.1461 -0.3609
  304MOL   C10143127   7.657   4.147   0.674  0.0667 -0.3601  0.1202
  304MOL   C10243128   7.584   4.084   0.785 -0.4137 -0.0093  0.2067
  304MOL   N10343129   7.521   4.028   0.869 -0.1513  0.5221 -0.3360
  304MOL   H10443130   7.662   4.126   0.455 -0.0057  0.9024  0.2102
  304MOL   H10543131   7.552   4.021   0.536  0.4075 -1.0601 -2.4153
  304MOL   H10643132   7.583   4.224   0.653 -0.2013 -0.4473  0.7270
  304MOL   C10743133   7.785   4.226   0.715 -0.1790 -0.6771  0.3035
  304MOL   C10843134   7.759   4.361   0.773  0.1130  0.2990 -0.7205
  304MOL   C10943135   7.710   4.459   0.676 -0.3432 -0.0701 -0.1216
  304MOL   N11043136   7.667   4.536   0.598 -0.4632 -0.1863 -0.3665
  304MOL   H11143137   7.845   4.163   0.781 -0.8177 -0.4277  1.1297
  304MOL   H11243138   7.846   4.244   0.626 -0.4652 -0.3932  0.1648
  304MOL   H11343139   7.856   4.396   0.811  0.2499  1.1023 -1.7977
  304MOL   C11443140   7.676   4.361   0.904 -0.3852  0.1409 -0.2509
  304MOL   C11543141   7.707   4.466   1.012  0.6203 -0.0725  0.0939
  304MOL   C11643142   7.705   4.609   0.965  0.1834 -0.1091  0.5539
  304MOL   N11743143   7.700   4.719   0.926 -0.0707  0.6235  0.3988
  304MOL   H11843144   7.572   4.354   0.869 -0.8128  1.4392  0.7237
  304MOL   H11943145   7.706   4.268   0.952  0.0859 -0.5727 -1.8811
  304MOL   H12043146   7.812   4.446   1.036  0.0388 -0.8989  1.9908
  304MOL   C12143147   7.634   4.452   1.147 -0.2314  0.4712 -0.1741
  304MOL   C12243148   7.505   4.536   1.164  0.5386  0.2592  0.5305
  304MOL   C12343149   7.387   4.482   1.089  0.2556  0.0744  0.4818
  304MOL   N12443150   7.304   4.439   1.023 -0.3364  0.0122  0.1327
  304MOL   H12543151   7.624   4.344   1.164  1.2229  0.0121 -2.0750
  304MOL   H12643152   7.704   4.496   1.218  1.0403 -0.7871 -0.6208
  304MOL   H12743153   7.521   4.632   1.115 -0.2105 -0.8130 -1.8993
  304MOL   C12843154   7.475   4.556   1.314  0.4781  0.8689 -0.1254
  304MOL   C12943155   7.340   4.622   1.350 -0.0437  0.5605 -0.0481
  304MOL   C13043156   7.296   4.725   1.249 -0.0780 -0.1694 -1.0280
  304MOL   N13143157   7.259   4.802   1.177  0.1187  0.2976 -0.3186
  304MOL   H13243158   7.485   4.465   1.374  0.0819 -0.3885 -1.9317
  304MOL   H13343159   7.558   4.618   1.349  0.0321  2.1048 -1.2109
  304MOL   H13443160   7.354   4.676   1.444  0.5730  1.8121 -0.8471
  304MOL   C13543161   7.228   4.518   1.393  0.5661 -0.6313  0.4969
  304MOL   C13643162   7.081   4.565   1.429  0.2635  0.0670  0.1755
  304MOL   C13743163   7.056   4.643   1.549 -0.4042 -0.2895  0.1033
  304MOL   N13843164   7.041   4.704   1.644 -0.1323 -0.2623  1.0371
  304MOL   H13943165   7.211   4.439   1.320 -0.8536 -0.1511  0.2937
  304MOL   H14043166   7.264   4.467   1.482 -2.5707 -2.6898  0.6706
  304MOL   H14143167   7.031   4.468   1.432 -1.6725  0.9883 -1.4604
  304MOL   H14243168   7.042   4.617   1.342  1.2747  1.4753  0.5426
  305MOL     C143169   7.142   6.063   7.199 -0.1893 -0.0354 -0.6414
  305MOL     C243170   7.047   6.021   7.086 -0.1108 -0.2719 -1.5241
  305MOL     C343171   6.931   6.105   7.080  0.2056  0.5657 -0.0913
  305MOL     N443172   6.833   6.174   7.070 -0.7094  0.1936 -0.1793
  305MOL     H543173   7.101   6.046   7.299  0.9460 -1.7724 -0.4433
  305MOL     H643174   7.173   6.167   7.190 -0.0106 -0.2158 -2.2991
  305MOL     H743175   7.001   5.926   7.111  0.0888 -0.3415 -1.4254
  305MOL     H843176   7.230   6.000   7.195 -0.4655 -0.4389 -0.4328
  305MOL     C943177   7.123   6.004   6.955 -0.2866 -0.2184 -0.0950
  305MOL    C1043178   7.060   5.922   6.841  0.6906  0.7358  0.2746
  305MOL    C1143179   6.944   5.996   6.789 -0.8690  0.2264  0.2585
  305MOL    N1243180   6.851   6.052   6.743 -0.7182  0.9203  0.4535
  305MOL    H1343181   7.156   6.101   6.918 -3.1952  0.0685 -2.0844
  305MOL    H1443182   7.209   5.944   6.984  0.6651  0.7018 -0.9695
  305MOL    H1543183   7.032   5.833   6.897  3.1364  1.0049  2.0377
  305MOL    C1643184   7.158   5.871   6.739 -0.3707 -0.2448 -0.0082
  305MOL    C1743185   7.100   5.786   6.620 -0.3569 -0.7527  0.2326
  305MOL    C1843186   7.205   5.753   6.520  0.3412 -0.7971  0.5718
  305MOL    N1943187   7.286   5.733   6.439  0.5490 -0.1779  0.2647
  305MOL    H2043188   7.215   5.955   6.700 -0.1064 -0.5803 -0.3364
  305MOL    H2143189   7.220   5.796   6.789 -1.3853 -2.2873 -1.7274
  305MOL    H2243190   7.036   5.863   6.576  0.9589  1.8712  2.7999
  305MOL    C2343191   7.025   5.655   6.657 -0.2835 -0.7414 -0.6514
  305MOL    C2443192   6.901   5.628   6.576 -0.0918 -0.4540  0.0053
  305MOL    C2543193   6.797   5.732   6.588 -0.4072  0.1307  0.0388
  305MOL    N2643194   6.714   5.810   6.593  0.0557  0.1068 -0.0190
  305MOL    H2743195   7.083   5.564   6.644 -1.7801 -1.5619 -1.7693
  305MOL    H2843196   7.016   5.651   6.765  0.5791  2.5169 -0.4108
  305MOL    H2943197   6.857   5.553   6.641  0.0662  1.5412  2.4857
  305MOL    C3043198   6.915   5.584   6.429  0.2149 -0.5609 -0.2670
  305MOL    C3143199   6.996   5.448   6.399 -0.2165  0.5743 -0.3683
  305MOL    C3243200   6.951   5.335   6.477 -0.6159 -0.5305 -0.3983
  305MOL    N3343201   6.915   5.246   6.534  0.0127  0.3176 -0.1976
  305MOL    H3443202   6.812   5.562   6.399  0.3477 -1.2018 -0.2719
  305MOL    H3543203   6.963   5.658   6.365  1.0668 -0.0743  0.9419
  305MOL    H3643204   7.099   5.471   6.426  0.2321 -0.7850 -0.8590
  305MOL    C3743205   6.989   5.408   6.248  0.0184 -0.5587 -0.1659
  305MOL    C3843206   7.092   5.473   6.153  0.1940 -0.2396  0.8074
  305MOL    C3943207   7.157   5.375   6.064  0.5017  0.2523 -0.3765
  305MOL    N4043208   7.210   5.296   5.996  0.2972 -0.8750 -0.6248
  305MOL    H4143209   7.019   5.304   6.253  0.3297 -0.6026 -2.3918
  305MOL    H4243210   6.883   5.411   6.219  0.0506  0.6523 -0.1803
  305MOL    H4343211   7.167   5.515   6.219  3.0103  0.9309 -2.9610
  305MOL    C4443212   7.034   5.583   6.070  0.6396 -0.1523  0.1980
  305MOL    C4543213   7.138   5.653   5.977 -0.0993 -0.4074 -0.8952
  305MOL    C4643214   7.083   5.655   5.839  0.0109 -0.1939 -0.6486
  305MOL    N4743215   7.038   5.654   5.740 -0.8135  0.2679 -0.2934
  305MOL    H4843216   6.946   5.557   6.011  0.8116  0.0220 -0.1356
  305MOL    H4943217   7.013   5.672   6.129  0.7736  0.1921 -0.2714
  305MOL    H5043218   7.225   5.588   5.965 -0.0733 -1.3151  3.2145
  305MOL    C5143219   7.188   5.783   6.043  0.1355 -0.5993 -0.1596
  305MOL    C5243220   7.308   5.852   5.973  0.1835  0.2031 -0.1410
  305MOL    C5343221   7.271   5.898   5.842 -0.4862 -0.1765 -0.6026
  305MOL    N5443222   7.244   5.929   5.738 -0.6787 -0.4338  0.2150
  305MOL    H5543223   7.105   5.853   6.034  1.3586  1.0365  0.9172
  305MOL    H5643224   7.215   5.772   6.148  1.5913  0.0461 -0.4591
  305MOL    H5743225   7.384   5.775   5.958  0.2760  0.4157 -0.8186
  305MOL    C5843226   7.368   5.962   6.060  0.1594  0.1770 -0.6886
  305MOL    C5943227   7.316   6.103   6.029 -0.2724 -0.4900 -0.2544
  305MOL    C6043228   7.177   6.117   6.077  0.5318 -0.3010 -0.3624
  305MOL    N6143229   7.066   6.131   6.112  0.9064  0.3050  0.0788
  305MOL    H6243230   7.361   5.943   6.167 -1.4557  1.8502 -0.4750
  305MOL    H6343231   7.470   5.959   6.023  0.4423  0.4001  0.0668
  305MOL    H6443232   7.316   6.132   5.924  0.5431  1.3274  0.2213
  305MOL    C6543233   7.398   6.209   6.094  0.0076  0.3636 -0.3922
  305MOL    C6643234   7.531   6.246   6.030 -0.1313  0.2085 -0.3659
  305MOL    C6743235   7.505   6.328   5.910  1.1117  0.2419 -0.0494
  305MOL    N6843236   7.485   6.394   5.815  0.2110 -0.6251  0.1580
  305MOL    H6943237   7.349   6.306   6.095  0.9495  0.8710  1.9916
  305MOL    H7043238   7.407   6.174   6.197 -0.0102 -0.2620 -0.6047
  305MOL    H7143239   7.574   6.154   5.990 -0.6229  0.4313 -1.4242
  305MOL    C7243240   7.623   6.314   6.134 -0.0124  0.3533  0.1980
  305MOL    C7343241   7.729   6.416   6.076  0.6871 -0.0470 -0.6508
  305MOL    C7443242   7.793   6.495   6.182 -0.7529 -0.1884 -0.8008
  305MOL    N7543243   7.849   6.564   6.257 -0.2223  0.2854  0.8384
  305MOL    H7643244   7.571   6.363   6.216  2.0351  1.2804  0.9750
  305MOL    H7743245   7.669   6.234   6.193 -3.4009 -1.7647  0.1467
  305MOL    H7843246   7.668   6.492   6.026 -1.1687  1.1658  3.1852
  305MOL    C7943247   7.828   6.349   5.986  0.2384 -0.4137 -0.0321
  305MOL    C8043248   7.904   6.442   5.891  0.0848  0.2669  0.3291
  305MOL    C8143249   7.813   6.520   5.810 -0.0248  0.2946  0.7161
  305MOL    N8243250   7.744   6.586   5.746  0.6107  0.6223  0.6114
  305MOL    H8343251   7.885   6.276   6.045  0.2619  0.2216  0.7411
  305MOL    H8443252   7.774   6.291   5.912  0.5279  0.9946 -1.3609
  305MOL    H8543253   7.951   6.374   5.820  1.0976  2.4161 -1.1114
  305MOL    C8643254   8.024   6.525   5.949 -0.3340 -0.3460  0.2188
  305MOL    C8743255   8.105   6.605   5.853 -0.9890 -0.4034  0.9203
  305MOL    C8843256   8.216   6.664   5.929 -0.2103  0.1804 -0.7178
  305MOL    N8943257   8.302   6.710   5.991 -0.1001  0.6191 -0.3027
  305MOL    H9043258   8.000   6.594   6.030 -1.5229 -0.7899  0.2502
  305MOL    H9143259   8.098   6.457   5.993 -0.6473 -2.3496 -2.2327
  305MOL    H9243260   8.042   6.692   5.835 -1.7384 -1.1350 -0.0688
  305MOL    C9343261   8.146   6.540   5.720 -0.9401 -0.1504 -0.9060
  305MOL    C9443262   8.265   6.435   5.725  0.5258  0.2585 -0.0613
  305MOL    C9543263   8.232   6.314   5.800  0.1185  0.5119  0.0765
  305MOL    N9643264   8.210   6.219   5.861  0.2623  0.3529 -0.4634
  305MOL    H9743265   8.061   6.501   5.664 -2.2293  1.7228 -0.3369
  305MOL    H9843266   8.187   6.622   5.662  1.1992  0.3363  1.2013
  305MOL    H9943267   0.039   6.469   5.783 -0.6957  1.7549  0.9048
  305MOL   C10043268   8.303   6.404   5.576 -0.2571  0.2572  0.0844
  305MOL   C10143269   0.091   6.500   5.508 -0.0991  0.5327  0.0698
  305MOL   C10243270   0.193   6.562   5.597 -0.4207 -0.2818  0.1465
  305MOL   N10343271   0.272   6.610   5.668 -0.4194 -0.3608 -0.1103
  305MOL   H10443272   0.026   6.301   5.582  0.1941  0.6010  4.6902
  305MOL   H10543273   8.210   6.398   5.518 -0.3163  0.6168  0.1414
  305MOL   H10643274   0.033   6.584   5.471  1.3885  1.1190 -0.9778
  305MOL   C10743275   0.173   6.452   5.386 -0.4272  0.4915 -0.9501
  305MOL   C10843276   0.082   6.363   5.293 -0.6130  0.2756 -0.6655
  305MOL   C10943277   8.281   6.438   5.238 -0.4183 -0.6050  0.1338
  305MOL   N11043278   8.186   6.487   5.193  0.3380 -0.2982  0.2083
  305MOL   H11143279   0.225   6.526   5.326  4.3087  0.3510  2.6238
  305MOL   H11243280   0.259   6.394   5.422 -0.6823  1.1583  0.7751
  305MOL   H11343281   0.038   6.279   5.347  0.4488  0.3350  0.3305
  305MOL   C11443282   0.172   6.301   5.180  0.6380 -0.0154  0.4151
  305MOL   C11543283   0.250   6.174   5.212  0.4435 -0.3617 -0.7449
  305MOL   C11643284   0.194   6.097   5.327 -0.0392  0.4549 -0.1631
  305MOL   N11743285   0.153   6.040   5.416 -0.1538 -0.1099 -0.7656
  305MOL   H11843286   0.110   6.271   5.095  0.1732  0.5778  0.5419
  305MOL   H11943287   0.232   6.376   5.128 -0.6801  0.7789  0.0211
  305MOL   H12043288   0.356   6.194   5.228 -0.0706  1.1787  0.8360
  305MOL   C12143289   0.252   6.082   5.087 -0.2424  0.4600 -0.5849
  305MOL   C12243290   0.377   6.003   5.088  0.1934 -0.1746  0.4362
  305MOL   C12343291   0.389   5.917   5.204  0.4319 -0.9557 -0.2157
  305MOL   N12443292   0.406   5.854   5.299  0.4838  0.0619 -0.0366
  305MOL   H12543293   0.167   6.013   5.089 -0.5738  0.8084 -1.9443
  305MOL   H12643294   0.248   6.143   4.997  2.1293  2.3437  0.5066
  305MOL   H12743295   0.458   6.075   5.100 -0.6849  1.8140 -4.2827
  305MOL   C12843296   0.405   5.926   4.959  0.3394  0.0584  0.1118
  305MOL   C12943297   0.556   5.896   4.937 -0.4826 -0.1482  0.3314
  305MOL   C13043298   0.582   5.764   4.876  0.4368  0.5566 -0.2956
  305MOL   N13143299   0.597   5.659   4.830  0.6727 -0.5049 -0.8652
  305MOL   H13243300   0.342   5.838   4.970  0.0756  0.4914  2.3384
  305MOL   H13343301   0.365   5.969   4.868 -1.0553 -1.5327 -0.0456
  305MOL   H13443302   0.603   5.885   5.035 -0.6082 -0.5907  0.3420
  305MOL   C13543303   0.623   6.004   4.854  0.5961 -1.1866  0.7090
  305MOL   C13643304   0.774   5.977   4.838 -0.0684 -0.2647  0.8156
  305MOL   C13743305   0.841   6.089   4.763 -0.3122 -0.0343  0.6789
  305MOL   N13843306   0.890   6.173   4.700  0.6320  0.3817 -0.4443
  305MOL   H13943307   0.578   6.016   4.756 -0.5824 -0.0229  1.3778
  305MOL   H14043308   0.608   6.103   4.897  2.3511 -0.9170  0.7634
  305MOL   H14143309   0.792   5.885   4.783  1.1702  1.2032 -1.3435
  305MOL   H14243310   0.825   5.966   4.933  1.4722  1.2846  0.1913
  306MOL     C143311   2.393   8.294   1.923 -0.8678 -0.1075  0.3268
  306MOL     C243312   2.277   8.245   2.004  0.4891  0.5730  0.1135
  306MOL     C343313   2.274   0.004   2.135  0.0750  0.3366  0.5926
  306MOL     N443314   2.281   0.065   2.237  0.2455 -0.7945 -0.3759
  306MOL     H543315   2.490   8.276   1.969 -0.8039 -1.2120 -0.2308
  306MOL     H643316   2.375   0.089   1.910  0.1031  0.0387  0.0861
  306MOL     H743317   2.308   8.143   2.026  0.0187  0.1530 -1.1449
  306MOL     H843318   2.399   8.253   1.822 -2.3224 -0.7957  0.5189
  306MOL     C943319   2.145   8.248   1.924  0.2980 -0.2962 -0.2470
  306MOL    C1043320   2.024   8.170   1.967  0.1114  0.3681 -0.3163
  306MOL    C1143321   1.988   8.209   2.107  0.1927 -0.3356 -0.8919
  306MOL    N1243322   1.955   8.250   2.206  0.7353 -0.1938  0.3442
  306MOL    H1343323   2.117   0.039   1.904 -2.2956 -1.3350 -2.1680
  306MOL    H1443324   2.166   8.211   1.824 -3.8535 -0.1692 -1.2296
  306MOL    H1543325   2.066   8.070   1.978  0.4232  0.3816 -1.4102
  306MOL    C1643326   1.902   8.178   1.877 -0.0004 -0.0209 -0.4087
  306MOL    C1743327   1.786   8.105   1.942 -0.7909  0.5235  0.0924
  306MOL    C1843328   1.647   8.150   1.907 -0.0443 -0.0569  0.2326
  306MOL    N1943329   1.538   8.188   1.884 -0.4223 -0.0001 -0.0428
  306MOL    H2043330   1.870   8.281   1.864 -0.8098 -0.1816  0.2888
  306MOL    H2143331   1.932   8.142   1.778  2.2671  3.1417 -0.9693
  306MOL    H2243332   1.795   8.128   2.048  1.1222 -1.0875  0.3228
  306MOL    C2343333   1.796   7.956   1.924  0.0305 -0.5836  0.2467
  306MOL    C2443334   1.779   7.904   1.766  0.4050  0.7745 -0.2045
  306MOL    C2543335   1.908   7.895   1.700 -0.3871  0.0240 -0.4892
  306MOL    N2643336   2.013   7.894   1.646 -0.3709  0.0347  0.5047
  306MOL    H2743337   1.894   7.926   1.961  0.6811  2.6103  1.2722
  306MOL    H2843338   1.726   7.907   1.992 -0.7831 -0.3712 -0.4202
  306MOL    H2943339   1.720   7.971   1.703  0.7785  2.4983  1.2424
  306MOL    C3043340   1.715   7.758   1.768  0.2014  0.7308  0.3835
  306MOL    C3143341   1.707   7.683   1.632 -0.4794 -0.4116  0.3275
  306MOL    C3243342   1.697   7.789   1.531 -0.3405  0.2502  0.4689
  306MOL    N3343343   1.684   7.872   1.451 -0.8482  0.5087 -0.1008
  306MOL    H3443344   1.756   7.686   1.839 -0.4013 -0.8767 -0.8558
  306MOL    H3543345   1.609   7.760   1.793 -0.1144  0.6837 -0.9050
  306MOL    H3643346   1.614   7.627   1.641 -1.0386  0.8772  2.8650
  306MOL    C3743347   1.821   7.578   1.615 -0.0078 -0.4513 -0.2184
  306MOL    C3843348   1.826   7.524   1.472  0.2560  0.3419 -0.6466
  306MOL    C3943349   1.694   7.543   1.403  0.3838 -0.1147 -0.2416
  306MOL    N4043350   1.592   7.559   1.347  0.5254 -0.0568  0.3085
  306MOL    H4143351   1.917   7.624   1.640 -1.9669  3.3075  0.7757
  306MOL    H4243352   1.800   7.497   1.685 -0.7389 -0.1721 -0.1140
  306MOL    H4343353   1.837   7.415   1.475  1.9913  0.4766 -1.6294
  306MOL    C4443354   1.937   7.596   1.396 -0.2951  0.3871 -0.1363
  306MOL    C4543355   1.943   7.574   1.242 -0.1829  0.2781  0.0425
  306MOL    C4643356   1.882   7.443   1.208  0.2005  0.8670 -0.2195
  306MOL    N4743357   1.838   7.342   1.183 -0.3655  0.0479 -0.4186
  306MOL    H4843358   1.937   7.701   1.425 -1.7542  0.8533 -1.7267
  306MOL    H4943359   2.031   7.560   1.436 -1.6934 -1.0993  1.9556
  306MOL    H5043360   2.044   7.551   1.207 -1.1771 -3.9013 -0.2794
  306MOL    C5143361   1.881   7.698   1.162 -1.2862  0.0267  0.6715
  306MOL    C5243362   1.841   7.668   1.018  0.0627 -0.2117  0.4154
  306MOL    C5343363   1.761   7.781   0.958 -0.2820 -0.1378  0.7338
  306MOL    N5443364   1.700   7.863   0.904 -0.0414 -0.4736 -0.2497
  306MOL    H5543365   1.783   7.721   1.204 -0.5750  1.2629  1.6472
  306MOL    H5643366   1.938   7.789   1.178  0.6560 -1.2453  1.2352
  306MOL    H5743367   1.772   7.583   1.015  1.3839 -1.3225  1.3012
  306MOL    C5843368   1.963   7.635   0.937  1.1257 -0.1665  0.4040
  306MOL    C5943369   2.084   7.726   0.933 -0.1416 -0.0785  0.4984
  306MOL    C6043370   2.188   7.658   0.853 -0.4307  0.1177  0.8664
  306MOL    N6143371   2.272   7.613   0.790 -0.1913  0.2845 -0.8017
  306MOL    H6243372   1.996   7.537   0.971 -1.8365 -1.3613 -0.0289
  306MOL    H6343373   1.938   7.630   0.831  0.8156  0.8295  0.4262
  306MOL    H6443374   2.123   7.747   1.033 -1.0163  0.1271  0.8010
  306MOL    C6543375   2.052   7.864   0.870  0.0405 -0.6097  0.3989
  306MOL    C6643376   2.173   7.966   0.852  0.4263 -0.2424 -0.3589
  306MOL    C6743377   2.241   7.938   0.726  0.4437 -0.4449  0.1726
  306MOL    N6843378   2.297   7.910   0.626 -0.1908  0.0205 -0.0064
  306MOL    H6943379   1.989   7.867   0.781  0.0007  0.3473  0.4619
  306MOL    H7043380   1.996   7.909   0.951 -0.4368 -0.3154 -0.0910
  306MOL    H7143381   2.234   7.962   0.943  0.1257 -0.1112 -0.1510
  306MOL    C7243382   2.136   8.110   0.853  0.1416  0.0715  0.0323
  306MOL    C7343383   2.254   8.209   0.867  0.6321  0.5009 -0.5815
  306MOL    C7443384   2.340   8.170   0.981  0.5038  0.3532 -0.2879
  306MOL    N7543385   2.415   8.138   1.064  0.2808 -0.1777 -0.7484
  306MOL    H7643386   2.072   8.141   0.771 -0.9697 -2.1904 -0.0121
  306MOL    H7743387   2.066   8.120   0.937 -0.3324 -0.7099 -0.2602
  306MOL    H7843388   2.206   8.306   0.866 -0.2833  0.0755  0.2712
  306MOL    C7943389   2.359   8.224   0.754  0.0392 -0.7142  0.0082
  306MOL    C8043390   2.302   8.239   0.611 -0.1196  0.2679 -0.4592
  306MOL    C8143391   2.200   0.033   0.601 -0.6444  1.0318 -0.5197
  306MOL    N8243392   2.121   0.122   0.601  0.9396 -0.3216 -0.5750
  306MOL    H8343393   2.423   8.308   0.779  0.6090 -0.4552 -2.2051
  306MOL    H8443394   2.430   8.141   0.752  1.6334  0.5278  2.6800
  306MOL    H8543395   2.240   8.151   0.595 -2.6017  1.5254  1.8843
  306MOL    C8643396   2.411   8.262   0.501  0.4678  0.2783 -0.1511
  306MOL    C8743397   2.361   8.283   0.357 -0.3764 -1.0039 -0.1492
  306MOL    C8843398   2.293   0.097   0.317 -0.0099 -0.6334  0.3584
  306MOL    N8943399   2.235   0.200   0.300  0.5383  0.1184  0.5151
  306MOL    H9043400   2.462   0.045   0.516 -0.4846  1.2320 -2.7463
  306MOL    H9143401   2.486   8.183   0.510 -1.7463 -1.6058  2.4748
  306MOL    H9243402   2.286   8.208   0.331 -3.1115  1.9124 -1.1011
  306MOL    C9343403   2.484   8.261   0.264  0.2753 -0.1745  0.4379
  306MOL    C9443404   2.471   8.289   0.116 -0.1073  0.0939 -0.4635
  306MOL    C9543405   2.498   0.120   0.083  0.0835  0.0251 -0.1418
  306MOL    N9643406   2.520   0.233   0.062  0.3360  0.1166  0.2305
  306MOL    H9743407   2.577   8.296   0.308 -0.0803  0.3211  0.7935
  306MOL    H9843408   2.504   8.154   0.269 -0.1431 -0.3152 -0.7153
  306MOL    H9943409   2.370   8.261   0.088 -0.3353  2.3970 -2.1160
  306MOL   C10043410   2.582   8.206   0.034 -0.3559 -0.0832 -0.2557
  306MOL   C10143411   2.581   8.210   8.192 -0.1411  0.3247  0.0298
  306MOL   C10243412   2.726   8.216   8.155  0.1747  0.0204  0.7482
  306MOL   N10343413   2.838   8.219   8.123  0.2651  0.2448 -0.8312
  306MOL   H10443414   2.672   8.261   0.061 -0.2685  1.5328 -3.5263
  306MOL   H10543415   2.578   8.103   0.068  0.4515  0.3712  1.2700
  306MOL   H10643416   2.538   8.299   8.145 -0.6708  0.6498  1.0939
  306MOL   C10743417   2.524   8.073   8.143 -0.3100  0.2252 -0.7367
  306MOL   C10843418   2.369   8.055   8.136 -0.1934 -0.0023 -0.1031
  306MOL   C10943419   2.309   8.160   8.049 -0.9872 -0.1068  1.0645
  306MOL   N11043420   2.268   8.247   7.980  0.4762  0.1743  0.1199
  306MOL   H11143421   2.558   8.053   8.041 -1.5192  1.3343 -1.3598
  306MOL   H11243422   2.572   7.991   8.197  1.1973  1.2879 -0.4179
  306MOL   H11343423   2.331   8.088   8.233 -0.2740  0.7525 -0.3887
  306MOL   C11443424   2.314   7.914   8.124  0.8920  0.5936  0.3579
  306MOL   C11543425   2.160   7.916   8.132  0.0950  0.8039 -0.1307
  306MOL   C11643426   2.109   7.891   7.998  0.0292 -0.1631  0.3289
  306MOL   N11743427   2.064   7.875   7.896  0.2367  0.0988 -0.4573
  306MOL   H11843428   2.349   7.866   8.033  0.3400 -1.1869  1.0597
  306MOL   H11943429   2.350   7.848   8.203 -2.0346 -3.4406 -1.5120
  306MOL   H12043430   2.114   8.009   8.166 -0.8782  0.9008 -1.6778
  306MOL   C12143431   2.110   7.800   8.228  0.1003  0.1209 -0.2029
  306MOL   C12243432   2.117   7.833   0.067 -0.0698  0.1558  0.3143
  306MOL   C12343433   2.223   7.926   0.105 -0.5297  0.1934 -0.4442
  306MOL   N12443434   2.304   8.001   0.136  0.6112  0.1990 -0.6780
  306MOL   H12543435   2.004   7.776   8.215  0.1945 -0.2554 -0.2783
  306MOL   H12643436   2.158   7.706   8.204 -0.1460  0.4366 -2.0498
  306MOL   H12743437   2.140   7.735   0.109  1.4902  0.2757 -0.2582
  306MOL   C12843438   1.985   7.886   0.128  0.7331 -0.0826 -0.1589
  306MOL   C12943439   1.969   7.899   0.285  0.3482 -0.3538  0.4627
  306MOL   C13043440   2.034   8.021   0.342  0.1159 -0.1084 -0.7059
  306MOL   N13143441   2.082   8.117   0.390 -0.5427  0.3046 -0.1885
  306MOL   H13243442   1.959   7.981   0.082 -3.5701 -1.2218 -0.2699
  306MOL   H13343443   1.901   7.820   0.106  0.4778  0.0131  0.5121
  306MOL   H13443444   2.028   7.821   0.334  0.2068 -1.2129 -0.6964
  306MOL   C13543445   1.821   7.874   0.338 -0.0787  0.2668  0.2098
  306MOL   C13643446   1.811   7.854   0.491  0.0908 -0.5834 -0.2909
  306MOL   C13743447   1.877   7.732   0.545  0.9404  0.3180  1.1133
  306MOL   N13843448   1.924   7.637   0.584  0.2913 -0.1095  0.3589
  306MOL   H13943449   1.770   7.969   0.321 -0.1334  0.3086  0.6028
  306MOL   H14043450   1.780   7.789   0.284 -0.0014  0.1704  0.3018
  306MOL   H14143451   1.709   7.864   0.526 -0.4131 -2.9191 -0.9887
  306MOL   H14243452   1.855   7.940   0.541 -2.6978  2.7230 -3.2877
  307MOL     C143453   7.252   4.547   0.484 -0.1490 -0.8217 -0.4359
  307MOL     C243454   7.319   4.502   0.353 -0.7687 -1.4509  0.3433
  307MOL     C343455   7.222   4.481   0.248 -0.5061 -0.3461 -0.4811
  307MOL     N443456   7.138   4.464   0.172  0.1919 -0.0618  0.0485
  307MOL     H543457   7.210   4.648   0.478  1.1354 -0.3599 -2.0024
  307MOL     H643458   7.321   4.555   0.568 -0.4249  1.3336 -0.3640
  307MOL     H743459   7.349   4.399   0.374 -1.3538 -1.8013 -0.4894
  307MOL     H843460   7.172   4.477   0.509 -0.3623 -0.7290 -0.8563
  307MOL     C943461   7.444   4.581   0.316 -0.3650  0.1075 -0.5878
  307MOL    C1043462   7.521   4.554   0.181  0.3119  0.4078  0.3598
  307MOL    C1143463   7.631   4.654   0.166  0.1285 -0.8622  0.5507
  307MOL    N1243464   7.709   4.739   0.157 -0.0202  0.2979 -0.2883
  307MOL    H1343465   7.421   4.687   0.304 -0.9678 -0.1298 -1.6312
  307MOL    H1443466   7.506   4.572   0.405 -2.2826 -1.2213  0.6401
  307MOL    H1543467   7.458   4.573   0.095  0.0557  0.8524  0.6416
  307MOL    C1643468   7.577   4.409   0.168  0.1148 -0.5858 -0.2234
  307MOL    C1743469   7.683   4.387   0.057 -0.2655  0.0262 -0.1507
  307MOL    C1843470   7.816   4.436   0.103 -0.0732 -0.3191 -0.4445
  307MOL    N1943471   7.920   4.469   0.139 -0.1334 -0.3323  0.3345
  307MOL    H2043472   7.614   4.376   0.265 -1.7046 -0.9297  0.3732
  307MOL    H2143473   7.488   4.347   0.156  1.1742 -1.6991 -2.7673
  307MOL    H2243474   7.659   4.441   8.278  0.0736 -1.4514 -1.1121
  307MOL    C2343475   7.683   4.236   0.017 -0.2241 -0.1202  0.3647
  307MOL    C2443476   7.781   4.202   8.213  0.2382 -0.4913 -0.0707
  307MOL    C2543477   7.915   4.180   8.259 -0.1654  0.2340 -0.7090
  307MOL    N2643478   8.021   4.162   8.298 -0.2172 -0.0182  0.2703
  307MOL    H2743479   7.700   4.159   0.093 -0.7331 -0.4740  0.1257
  307MOL    H2843480   7.582   4.222   8.290 -1.5945  1.6000  3.0928
  307MOL    H2943481   7.775   4.290   8.149  0.4078 -0.4847 -0.0774
  307MOL    C3043482   7.743   4.089   8.122  1.1361 -0.1305 -0.3079
  307MOL    C3143483   7.599   4.074   8.077 -0.3591 -0.2493 -0.1105
  307MOL    C3243484   7.541   4.201   8.026  0.0035  0.0494  0.1766
  307MOL    N3343485   7.502   4.299   7.978  0.3973 -0.3695  0.1885
  307MOL    H3443486   7.797   4.115   8.030  1.6117  0.6092  0.1783
  307MOL    H3543487   7.769   3.992   8.163  0.5105 -0.2783 -0.2637
  307MOL    H3643488   7.555   4.041   8.171  2.5493 -1.2596  0.9518
  307MOL    C3743489   7.588   3.958   7.978 -0.0682 -0.4338 -0.3908
  307MOL    C3843490   7.447   3.886   7.982 -0.5890  0.0082 -0.5061
  307MOL    C3943491   7.343   3.940   8.074 -0.2143  0.1501  0.7330
  307MOL    N4043492   7.267   3.982   8.152 -0.1628  0.4311  0.5180
  307MOL    H4143493   7.598   4.008   7.882  0.1086 -0.2096 -0.2562
  307MOL    H4243494   7.665   3.882   7.980  0.9455  0.5685 -1.0966
  307MOL    H4343495   7.472   3.791   8.028  0.4557 -0.3669 -1.8087
  307MOL    C4443496   7.393   3.846   7.843 -0.0510 -0.3468  0.0008
  307MOL    C4543497   7.269   3.755   7.840 -0.2559  0.5555  0.2269
  307MOL    C4643498   7.297   3.638   7.920  0.3493  0.3822  0.5074
  307MOL    N4743499   7.317   3.544   7.985 -0.0197  0.2966 -0.1464
  307MOL    H4843500   7.369   3.940   7.793  0.9210  0.2409  0.6096
  307MOL    H4943501   7.471   3.787   7.794  0.5234 -0.0059  0.4883
  307MOL    H5043502   7.275   3.719   7.737 -0.3733  0.3951  0.2756
  307MOL    C5143503   7.136   3.831   7.854  0.4317  0.0916 -0.7221
  307MOL    C5243504   7.032   3.724   7.893  0.5588 -0.1263  0.1763
  307MOL    C5343505   7.021   3.697   8.037  0.0876  0.6777 -0.3881
  307MOL    N5443506   7.012   3.669   8.149  0.3601  0.3462 -0.2075
  307MOL    H5543507   7.137   3.918   7.921  1.1060 -0.5756  0.1533
  307MOL    H5643508   7.093   3.882   7.768 -2.4355  0.3962  0.8292
  307MOL    H5743509   7.059   3.628   7.849  3.0732  1.0580 -0.9731
  307MOL    C5843510   6.891   3.757   7.836 -0.0144 -0.3704  0.2448
  307MOL    C5943511   6.771   3.661   7.853  0.0058 -0.3746  0.3228
  307MOL    C6043512   6.818   3.523   7.810  0.4013 -0.7646  0.2175
  307MOL    N6143513   6.856   3.418   7.775  0.8796  0.9612  0.0011
  307MOL    H6243514   6.859   3.852   7.879 -0.2624 -0.0713 -0.5861
  307MOL    H6343515   6.906   3.770   7.729 -1.2017  0.5299  0.1731
  307MOL    H6443516   6.690   3.688   7.785 -0.7477  0.2845  1.4485
  307MOL    C6543517   6.695   3.668   7.989  0.3099  0.5809 -0.5356
  307MOL    C6643518   6.630   3.537   8.050  0.1651 -0.1562  0.2180
  307MOL    C6743519   6.551   3.460   7.952 -0.2225 -0.6949  0.8615
  307MOL    N6843520   6.493   3.404   7.869  0.6027  0.3278 -0.4606
  307MOL    H6943521   6.766   3.710   8.059  0.8218 -0.5352 -0.3729
  307MOL    H7043522   6.613   3.740   7.991 -0.7003 -0.5530 -0.3841
  307MOL    H7143523   6.562   3.568   8.130  0.4386 -0.6986  0.6627
  307MOL    C7243524   6.727   3.442   8.126  0.1352 -0.2536  0.1767
  307MOL    C7343525   6.747   3.473   8.279  0.8903  0.2773  0.5566
  307MOL    C7443526   6.620   3.487   0.043  0.6139 -0.7209 -0.6824
  307MOL    N7543527   6.516   3.496   0.102 -0.5299  0.0435  0.4699
  307MOL    H7643528   6.687   3.341   8.115 -0.9876 -0.0156  1.8087
  307MOL    H7743529   6.817   3.449   8.065 -0.5172 -0.2053 -0.7849
  307MOL    H7843530   6.795   3.571   8.270  2.8444 -0.7990 -1.4423
  307MOL    C7943531   6.848   3.391   0.042  0.4093 -0.0372  0.1604
  307MOL    C8043532   6.935   3.468   0.142 -0.3051 -0.1791  0.0855
  307MOL    C8143533   6.859   3.567   0.222 -0.3675 -0.0559 -0.0545
  307MOL    N8243534   6.802   3.645   0.289 -0.1214 -0.1225 -0.7676
  307MOL    H8343535   6.783   3.319   0.091 -1.1396  2.2456  1.5671
  307MOL    H8443536   6.906   3.329   8.286 -0.3480 -2.7594  1.9077
  307MOL    H8543537   6.998   3.531   0.078 -0.2246 -1.6602 -1.3376
  307MOL    C8643538   7.024   3.388   0.232  0.1298 -0.6639 -0.6847
  307MOL    C8743539   7.066   3.244   0.198  1.0184  0.1483 -0.1045
  307MOL    C8843540   7.131   3.242   0.069 -0.0262 -0.2852 -0.6608
  307MOL    N8943541   7.181   3.235   8.278 -0.5059  0.4518 -0.9483
  307MOL    H9043542   7.113   3.447   0.257 -0.9044  0.7094 -0.1456
  307MOL    H9143543   6.970   3.383   0.327  3.2645 -1.0392  1.1404
  307MOL    H9243544   6.967   3.204   0.178 -0.7414  3.6438  1.2210
  307MOL    C9343545   7.127   3.167   0.319 -0.1384 -0.6143  0.1491
  307MOL    C9443546   7.273   3.141   0.325  0.1362 -0.8249  0.8057
  307MOL    C9543547   7.343   3.270   0.314  0.1985  0.5570  0.2668
  307MOL    N9643548   7.401   3.370   0.305  0.3731  0.2325 -0.0853
  307MOL    H9743549   7.098   3.214   0.412  3.1612  0.2181  0.8108
  307MOL    H9843550   7.075   3.071   0.325 -0.0062 -0.6772  0.2703
  307MOL    H9943551   7.302   3.110   0.225  2.7001  3.0570  0.2357
  307MOL   C10043552   7.321   3.046   0.442  0.9938  0.1589  0.2405
  307MOL   C10143553   7.473   3.038   0.457 -0.9950 -0.2994 -0.3251
  307MOL   C10243554   7.533   3.016   0.326 -0.6298 -0.4300 -0.0134
  307MOL   N10343555   7.583   3.006   0.227 -0.4189 -0.4276  0.1763
  307MOL   H10443556   7.286   3.078   0.540  3.9976  3.9564  0.1784
  307MOL   H10543557   7.280   2.949   0.415  0.6146 -0.2005  2.0563
  307MOL   H10643558   7.501   2.947   0.509 -1.0408 -0.2679 -0.2445
  307MOL   C10743559   7.533   3.155   0.543 -0.2446 -0.2864 -0.5705
  307MOL   C10843560   7.683   3.165   0.531  0.4447  0.1344 -0.1391
  307MOL   C10943561   7.728   3.296   0.565 -0.1800  0.0696  0.1390
  307MOL   N11043562   7.771   3.401   0.592  0.0478  0.4529  0.6122
  307MOL   H11143563   7.486   3.252   0.530  0.8429  0.2580 -0.4210
  307MOL   H11243564   7.506   3.124   0.644 -0.0986 -1.6229 -0.9319
  307MOL   H11343565   7.716   3.165   0.427  1.3361  2.3346  0.1196
  307MOL   C11443566   7.766   3.044   0.578  0.4650 -0.2507  0.0162
  307MOL   C11543567   7.795   3.039   0.732  0.0619  0.4063 -0.0667
  307MOL   C11643568   7.677   3.060   0.817 -0.9600  0.2416  0.6085
  307MOL   N11743569   7.591   3.071   0.882  0.3792  0.3124  0.5288
  307MOL   H11843570   7.707   2.954   0.560  0.1927 -0.4373  1.7642
  307MOL   H11943571   7.862   3.043   0.526 -0.0291  0.9684 -0.9377
  307MOL   H12043572   7.853   3.131   0.736  0.2880  0.1900  2.2602
  307MOL   C12143573   7.893   2.920   0.767  0.0689  0.0904  0.3532
  307MOL   C12243574   7.977   2.939   0.886 -0.0261  0.3966 -0.0021
  307MOL   C12343575   7.912   2.938   1.013  0.7074 -0.3161 -0.7878
  307MOL   N12443576   7.863   2.946   1.119  0.1095 -0.3666 -0.0983
  307MOL   H12543577   7.838   2.826   0.773  1.2574 -0.5162  2.4265
  307MOL   H12643578   7.958   2.912   0.680  0.9897 -3.5623  1.2860
  307MOL   H12743579   8.017   3.040   0.880 -0.4170  0.6370  1.3115
  307MOL   C12843580   8.096   2.837   0.895 -0.0723 -0.2036  0.0098
  307MOL   C12943581   8.227   2.869   0.816 -0.0881 -0.1916 -0.4862
  307MOL   C13043582   0.037   2.844   0.900 -0.4846  0.4763 -0.8002
  307MOL   N13143583   0.138   2.825   0.958 -0.7310  0.5651  0.5839
  307MOL   H13243584   8.122   2.829   1.001  0.8089 -0.5047 -0.2263
  307MOL   H13343585   8.081   2.733   0.867 -0.0998 -0.2949  0.3592
  307MOL   H13443586   8.220   2.977   0.801 -1.4357 -0.4396 -1.8144
  307MOL   C13543587   8.232   2.802   0.675  0.0339 -0.4967 -0.1344
  307MOL   C13643588   0.049   2.821   0.599 -0.6303  0.1076 -0.4242
  307MOL   C13743589   0.111   2.953   0.629 -0.0179  0.1813  0.3043
  307MOL   N13843590   0.163   3.055   0.647  1.0352 -0.1574 -0.5341
  307MOL   H13943591   8.221   2.694   0.683  0.3074 -0.5425 -0.3846
  307MOL   H14043592   8.146   2.826   0.612  0.3197 -1.1426 -0.7688
  307MOL   H14143593   0.022   2.810   0.494  0.1068  1.4750 -0.7649
  307MOL   H14243594   0.118   2.744   0.632  2.4654  2.8415 -0.3121
  308MOL     C143595   3.872   2.158   7.374 -0.1752 -0.1287  0.4911
  308MOL     C243596   3.820   2.285   7.307  0.5526  0.0795 -0.0514
  308MOL     C343597   3.882   2.399   7.370 -0.1545  0.8278  0.1810
  308MOL     N443598   3.936   2.489   7.415 -0.4921 -0.1600 -0.4431
  308MOL     H543599   3.981   2.152   7.372 -0.2303 -1.2373  0.2862
  308MOL     H643600   3.821   2.073   7.331 -1.1345  0.2327  0.9139
  308MOL     H743601   3.712   2.290   7.315  0.2276 -1.3408 -2.9049
  308MOL     H843602   3.843   2.169   7.479 -1.2143 -1.8313  0.3947
  308MOL     C943603   3.824   2.285   7.159  0.1597  0.3101 -0.3860
  308MOL    C1043604   3.835   2.429   7.094  0.0540 -0.1365  0.5151
  308MOL    C1143605   3.863   2.415   6.951  0.4172 -0.8587 -0.4798
  308MOL    N1243606   3.871   2.400   6.837  0.1424  0.0293  0.0723
  308MOL    H1343607   3.914   2.228   7.132  0.6047  0.0962  1.5032
  308MOL    H1443608   3.743   2.230   7.110  0.9373 -1.4931  0.2907
  308MOL    H1543609   3.921   2.481   7.135 -0.7873  1.1501  0.6792
  308MOL    C1643610   3.712   2.531   7.112  0.6190 -0.3288  0.1852
  308MOL    C1743611   3.584   2.496   7.026 -0.6315  0.8438  0.0952
  308MOL    C1843612   3.531   2.367   7.065  0.0931 -0.2711  0.1633
  308MOL    N1943613   3.487   2.269   7.100 -0.2534 -0.1484  0.8384
  308MOL    H2043614   3.680   2.547   7.215 -0.8765 -3.0418  0.1959
  308MOL    H2143615   3.744   2.630   7.081 -1.6212  1.3208  2.9097
  308MOL    H2243616   3.600   2.481   6.919  1.3897  0.0596  0.4847
  308MOL    C2343617   3.476   2.605   7.047  0.3654 -0.1316  0.2886
  308MOL    C2443618   3.376   2.613   6.926 -0.2555  0.1130 -0.5677
  308MOL    C2543619   3.440   2.593   6.793  0.2524 -0.3239  0.0083
  308MOL    N2643620   3.486   2.578   6.687  0.3746 -0.9492  0.3712
  308MOL    H2743621   3.425   2.598   7.143 -1.7406  2.0308 -0.6246
  308MOL    H2843622   3.528   2.701   7.052  0.4374 -0.2365  1.5654
  308MOL    H2943623   3.328   2.711   6.930  0.3798  0.3313  3.7274
  308MOL    C3043624   3.269   2.501   6.930  0.3349  0.3784 -0.2176
  308MOL    C3143625   3.205   2.465   7.072  0.7288  0.4400  0.1682
  308MOL    C3243626   3.127   2.583   7.121  0.3916 -0.2491  0.0913
  308MOL    N3343627   3.065   2.670   7.166 -0.1534  0.0763 -0.4350
  308MOL    H3443628   3.195   2.522   6.853 -0.3247 -1.8421 -0.2042
  308MOL    H3543629   3.304   2.411   6.879 -2.2509 -0.0569 -1.3239
  308MOL    H3643630   3.282   2.446   7.147 -0.9532  1.8107  2.3112
  308MOL    C3743631   3.106   2.338   7.059  0.1915 -0.5026 -0.0344
  308MOL    C3843632   3.173   2.206   7.033  0.2881 -0.4083 -0.1795
  308MOL    C3943633   3.197   2.137   7.161  0.2771  0.2597 -0.3965
  308MOL    N4043634   3.215   2.081   7.263 -0.1875  0.0688 -0.2725
  308MOL    H4143635   3.039   2.331   7.145  0.5540 -0.3308  0.2667
  308MOL    H4243636   3.045   2.363   6.972  0.8445 -0.1860 -0.4036
  308MOL    H4343637   3.264   2.231   6.980 -0.6897  0.6906 -1.3706
  308MOL    C4443638   3.078   2.107   6.954  0.5113 -0.7060 -0.9812
  308MOL    C4543639   3.113   2.117   6.802 -0.1723  0.0549  0.1002
  308MOL    C4643640   3.223   2.025   6.772  0.2883  0.0992  0.3721
  308MOL    N4743641   3.308   1.954   6.750 -0.1507 -0.6483  0.3091
  308MOL    H4843642   3.091   2.005   6.990 -2.6519 -1.3956 -1.6528
  308MOL    H4943643   2.976   2.142   6.974  0.5864 -2.5962  3.2273
  308MOL    H5043644   3.156   2.216   6.792  0.5395 -0.2424  0.1518
  308MOL    C5143645   2.992   2.111   6.709  0.3334 -0.1808  0.2468
  308MOL    C5243646   3.034   2.110   6.561  0.0509 -0.1027  0.6057
  308MOL    C5343647   2.902   2.134   6.487 -1.0757  0.4069  0.2949
  308MOL    N5443648   2.799   2.160   6.431 -0.2961  0.1223 -0.2064
  308MOL    H5543649   2.926   2.027   6.729  1.5611 -0.9918  0.9780
  308MOL    H5643650   2.925   2.197   6.711  0.4912  0.0189 -1.8093
  308MOL    H5743651   3.076   2.010   6.548 -0.4194 -0.4101  1.4566
  308MOL    C5843652   3.139   2.218   6.519 -0.0544 -0.1766  0.0257
  308MOL    C5943653   3.107   2.365   6.504  0.4316  0.5895  0.1804
  308MOL    C6043654   3.033   2.414   6.626  0.9137 -0.0200 -0.1865
  308MOL    N6143655   2.979   2.449   6.720  0.7366  0.1280 -0.0923
  308MOL    H6243656   3.231   2.215   6.578 -0.5441  1.9993  0.9550
  308MOL    H6343657   3.174   2.196   6.418  0.2319 -0.8564  0.2764
  308MOL    H6443658   3.032   2.363   6.425  0.5522  0.4695  0.0669
  308MOL    C6543659   3.229   2.449   6.464  0.3358  0.3129 -0.3004
  308MOL    C6643660   3.187   2.595   6.425 -0.2700  0.0802  0.2321
  308MOL    C6743661   3.196   2.682   6.545 -0.3235  0.1070  0.1988
  308MOL    N6843662   3.200   2.734   6.646  0.0089  0.2211  0.6259
  308MOL    H6943663   3.286   2.458   6.557 -0.2483  1.4704 -0.0441
  308MOL    H7043664   3.285   2.414   6.378 -0.5209  0.9193 -1.1089
  308MOL    H7143665   3.083   2.589   6.392 -0.3672  0.5451  0.4484
  308MOL    C7243666   3.269   2.647   6.308  0.4630 -0.1065 -0.6947
  308MOL    C7343667   3.243   2.607   6.162 -0.3770  0.4293 -0.5302
  308MOL    C7443668   3.100   2.592   6.144 -0.4135 -0.8192 -0.9164
  308MOL    N7543669   2.985   2.572   6.125 -0.2676  0.4454 -0.5143
  308MOL    H7643670   3.253   2.755   6.309 -0.5578 -0.2467 -1.4606
  308MOL    H7743671   3.375   2.640   6.334  0.0809  1.9143  1.6280
  308MOL    H7843672   3.273   2.503   6.150  0.2544  0.7254 -1.4990
  308MOL    C7943673   3.325   2.700   6.065  0.5994 -0.4079  0.7359
  308MOL    C8043674   3.457   2.636   6.007 -0.7701 -0.2709 -0.0272
  308MOL    C8143675   3.421   2.517   5.924 -0.2571  0.5075  0.0770
  308MOL    N8243676   3.407   2.421   5.859 -0.0303 -0.1466 -0.7703
  308MOL    H8343677   3.273   2.738   5.977  0.2877 -1.2081  0.5683
  308MOL    H8443678   3.352   2.792   6.117  0.2133  1.5712 -2.4267
  308MOL    H8543679   3.511   2.586   6.088 -0.8825 -1.2688 -0.5643
  308MOL    C8643680   3.542   2.740   5.946  0.3334  0.2691  0.2507
  308MOL    C8743681   3.676   2.684   5.884 -0.8383 -0.7541  0.2707
  308MOL    C8843682   3.739   2.584   5.975 -0.7613  0.2203 -1.0586
  308MOL    N8943683   3.800   2.513   6.048 -0.1431  0.4062 -0.2585
  308MOL    H9043684   3.491   2.804   5.873 -0.3856  0.5481  0.9855
  308MOL    H9143685   3.562   2.811   6.026  1.1686 -0.2210  0.4822
  308MOL    H9243686   3.744   2.769   5.873 -1.7649 -0.1776 -1.0798
  308MOL    C9343687   3.647   2.633   5.742 -0.7673 -0.1580  0.1274
  308MOL    C9443688   3.764   2.615   5.648 -0.6163  0.4152 -1.0171
  308MOL    C9543689   3.714   2.546   5.528 -0.5944 -1.3287 -0.0506
  308MOL    N9643690   3.678   2.490   5.433 -1.0205  0.1330 -0.0019
  308MOL    H9743691   3.602   2.534   5.751 -0.5638 -0.5221 -2.4658
  308MOL    H9843692   3.574   2.692   5.687 -0.6822 -2.6712 -2.7711
  308MOL    H9943693   3.825   2.534   5.689 -1.9407  0.1404  0.4522
  308MOL   C10043694   3.849   2.738   5.625  1.2495  0.0494  0.4293
  308MOL   C10143695   3.784   2.859   5.563 -0.0382 -0.2192 -0.0144
  308MOL   C10243696   3.679   2.932   5.644 -0.0224  0.4090 -0.4242
  308MOL   N10343697   3.602   2.988   5.707  0.4008 -0.0320  0.4996
  308MOL   H10443698   3.887   2.769   5.723  1.7798 -2.3340  1.0160
  308MOL   H10543699   3.929   2.711   5.556  0.9534 -1.9287  0.8178
  308MOL   H10643700   3.725   2.825   5.479  0.2318  3.1936 -1.6828
  308MOL   C10743701   3.886   2.965   5.507  0.1517 -0.3187 -0.3712
  308MOL   C10843702   3.973   3.041   5.615  0.1431 -0.4211  0.0041
  308MOL   C10943703   4.066   2.960   5.698 -0.6058  0.1055  0.4953
  308MOL   N11043704   4.137   2.892   5.764 -0.3850 -0.6447  0.5242
  308MOL   H11143705   3.936   2.932   5.416  1.4512  0.0751  0.1887
  308MOL   H11243706   3.818   3.040   5.465 -0.4826 -0.4412  0.4345
  308MOL   H11343707   3.910   3.087   5.692  0.6801  0.6544 -0.1819
  308MOL   C11443708   4.047   3.165   5.545  0.0402 -0.0356 -0.4767
  308MOL   C11543709   4.092   3.285   5.632  0.4846  0.3655 -0.6491
  308MOL   C11643710   3.996   3.314   5.739 -0.2035  0.0947 -0.4660
  308MOL   N11743711   3.908   3.331   5.814  0.4289 -0.1204  0.1639
  308MOL   H11843712   4.126   3.118   5.486  0.8750 -0.4935  0.9599
  308MOL   H11943713   3.974   3.209   5.478  0.5718  1.6915  0.0627
  308MOL   H12043714   4.074   3.368   5.565 -5.2148  0.8374  1.1873
  308MOL   C12143715   4.246   3.287   5.682  0.4968 -0.2007 -0.1199
  308MOL   C12243716   4.275   3.390   5.794  0.5837 -0.1436 -0.1858
  308MOL   C12343717   4.406   3.351   5.853 -0.0508 -0.2317  0.3360
  308MOL   N12443718   4.501   3.316   5.905 -0.2113 -0.0498 -0.4953
  308MOL   H12543719   4.275   3.191   5.725  0.1433 -0.9802 -1.5953
  308MOL   H12643720   4.317   3.302   5.601  3.5988 -4.0717  1.7178
  308MOL   H12743721   4.214   3.369   5.882  2.4851 -1.6926  0.8191
  308MOL   C12843722   4.267   3.539   5.746 -0.6286  0.4422 -0.8170
  308MOL   C12943723   4.323   3.633   5.851  0.3232  0.2014  0.3408
  308MOL   C13043724   4.348   3.765   5.785  0.3042  0.3524 -0.1146
  308MOL   N13143725   4.375   3.869   5.743  0.0759 -0.5345 -0.3865
  308MOL   H13243726   4.313   3.541   5.647  1.9931  1.4227  0.3921
  308MOL   H13343727   4.161   3.562   5.734 -1.0382 -0.4314  0.9401
  308MOL   H13443728   4.422   3.602   5.884  1.3133  1.6731 -1.1656
  308MOL   C13543729   4.232   3.660   5.972 -0.0996 -0.7239 -0.9900
  308MOL   C13643730   4.299   3.723   6.093  0.2214 -0.2825 -0.6874
  308MOL   C13743731   4.198   3.797   6.166 -0.7519  0.4748 -0.2250
  308MOL   N13843732   4.120   3.862   6.225 -0.3018  0.3985 -0.0003
  308MOL   H13943733   4.154   3.727   5.939  0.7491 -0.3311 -2.2152
  308MOL   H14043734   4.184   3.570   6.011 -1.4828  1.4296  2.5187
  308MOL   H14143735   4.373   3.795   6.059  0.2855 -0.0148 -0.0065
  308MOL   H14243736   4.340   3.649   6.163  0.1126 -1.7818 -2.1931
  309MOL     C143737   8.312   1.254   7.768 -0.4848  0.2930 -0.3915
  309MOL     C243738   8.204   1.163   7.842 -0.2404 -0.7439 -0.2028
  309MOL     C343739   8.234   1.025   7.819 -0.4916  0.6710 -0.4776
  309MOL     N443740   8.262   0.917   7.803  0.5234  0.1941  0.4553
  309MOL     H543741   8.293   1.262   7.661 -0.4220  1.8275 -0.2914
  309MOL     H643742   0.099   1.210   7.771 -1.0355 -1.0395 -0.9518
  309MOL     H743743   8.108   1.198   7.804 -0.0717  2.2836  1.9465
  309MOL     H843744   8.311   1.356   7.805 -0.5801  0.5127 -0.9926
  309MOL     C943745   8.199   1.198   7.993 -0.7100 -0.1163  0.4692
  309MOL    C1043746   8.093   1.114   8.074  0.3759  0.1410  0.0767
  309MOL    C1143747   8.160   1.032   8.177  1.3276 -0.1896  0.2912
  309MOL    N1243748   8.209   0.969   8.266  0.4170 -0.0254 -0.2362
  309MOL    H1343749   8.298   1.199   8.039 -0.6801 -2.4068  0.5475
  309MOL    H1443750   8.173   1.303   7.998 -2.0920 -0.3114 -1.6843
  309MOL    H1543751   8.046   1.037   8.013  0.7392  1.1196 -1.4749
  309MOL    C1643752   7.973   1.201   8.124 -1.8868  0.1613  0.0499
  309MOL    C1743753   7.854   1.116   8.176 -0.0909  0.4047 -0.0355
  309MOL    C1843754   7.880   1.028   8.290 -0.2217  0.7270  0.7238
  309MOL    N1943755   7.884   0.965   0.073 -0.4090 -0.0723  0.1545
  309MOL    H2043756   8.003   1.267   8.205 -2.2080  1.3381 -0.7848
  309MOL    H2143757   7.951   1.263   8.037 -1.7166  0.0097 -0.1023
  309MOL    H2243758   7.824   1.049   8.095 -0.6999 -0.7622  1.1313
  309MOL    C2343759   7.730   1.202   8.201  0.9703  0.0520 -0.0056
  309MOL    C2443760   7.731   1.275   0.021 -0.3276 -0.4017 -0.1568
  309MOL    C2543761   7.848   1.365   0.046 -0.3410  0.0793  0.3651
  309MOL    N2643762   7.941   1.433   0.061 -0.4705  0.4232 -0.5036
  309MOL    H2743763   7.719   1.269   8.116 -0.5178  0.2512  0.3136
  309MOL    H2843764   7.636   1.146   8.192  0.8996  0.0527  0.6980
  309MOL    H2943765   7.733   1.208   0.107 -2.7043 -1.0753 -0.5985
  309MOL    C3043766   7.596   1.354   0.041 -0.2726  0.2399 -0.2856
  309MOL    C3143767   7.578   1.417   0.178 -0.2798 -0.6196 -0.1089
  309MOL    C3243768   7.479   1.531   0.183  0.5191  0.1769 -0.1442
  309MOL    N3343769   7.406   1.617   0.196 -0.6547  0.2729 -0.1705
  309MOL    H3443770   7.583   1.429   8.275 -1.0909  1.2755  0.8183
  309MOL    H3543771   7.517   1.283   0.018  0.4894 -0.9715  0.7638
  309MOL    H3643772   7.675   1.460   0.205 -0.4015 -1.6592  2.1123
  309MOL    C3743773   7.544   1.315   0.289  0.0163  0.6429 -0.5926
  309MOL    C3843774   7.535   1.363   0.434  0.0407 -0.0208 -0.1794
  309MOL    C3943775   7.620   1.483   0.450 -0.1929  0.4598  1.3971
  309MOL    N4043776   7.691   1.569   0.465 -0.3584 -0.2445  0.3678
  309MOL    H4143777   7.444   1.282   0.263 -0.2973 -0.1218  1.4888
  309MOL    H4243778   7.602   1.223   0.277  1.2008  1.3240 -0.2061
  309MOL    H4343779   7.577   1.294   0.507 -2.6623 -0.8340  0.6711
  309MOL    C4443780   7.382   1.389   0.478 -0.1004  0.0682 -0.2255
  309MOL    C4543781   7.360   1.353   0.626  0.1439 -0.0627  0.0437
  309MOL    C4643782   7.240   1.412   0.684  0.2247 -0.1602 -0.3843
  309MOL    N4743783   7.135   1.460   0.725 -0.5243 -0.1134  0.1701
  309MOL    H4843784   7.346   1.488   0.452  0.9370  0.6299  0.4252
  309MOL    H4943785   7.316   1.319   0.426  0.2418 -0.1010 -0.4327
  309MOL    H5043786   7.445   1.381   0.689 -0.1881  2.7328 -0.6906
  309MOL    C5143787   7.335   1.199   0.642 -0.0734  0.0076 -0.4352
  309MOL    C5243788   7.308   1.145   0.786 -1.1382  0.2378  0.0996
  309MOL    C5343789   7.209   1.035   0.771  0.6333  0.9863 -0.7059
  309MOL    N5443790   7.133   0.948   0.768  0.6388 -0.6630 -0.2534
  309MOL    H5543791   7.251   1.178   0.576  0.1761 -0.4249 -0.6151
  309MOL    H5643792   7.426   1.147   0.612  0.3511  0.9891 -0.8776
  309MOL    H5743793   7.254   1.215   0.849 -0.6418  1.0366 -0.3647
  309MOL    C5843794   7.431   1.093   0.861 -0.3986 -0.2467  0.3556
  309MOL    C5943795   7.531   1.205   0.891  0.3002 -0.0687  0.6557
  309MOL    C6043796   7.456   1.314   0.949  0.7577 -0.4190  0.5645
  309MOL    N6143797   7.393   1.397   0.995  0.3349  0.3183 -0.5636
  309MOL    H6243798   7.399   1.043   0.953  2.8071  0.8028  2.1338
  309MOL    H6343799   7.490   1.013   0.816  0.4932  0.0294  1.0219
  309MOL    H6443800   7.568   1.222   0.791 -0.8027  0.2407  0.2969
  309MOL    C6543801   7.648   1.158   0.970 -0.2157  0.1322  0.0451
  309MOL    C6643802   7.780   1.234   0.947  0.6235  0.5481  0.8189
  309MOL    C6743803   7.758   1.377   0.905 -0.0656 -0.1183 -0.1389
  309MOL    N6843804   7.745   1.484   0.866 -0.4353  0.5579 -0.0591
  309MOL    H6943805   7.621   1.167   1.075 -0.0213 -0.6636  0.1687
  309MOL    H7043806   7.668   1.052   0.954  0.8088  0.4063 -0.5127
  309MOL    H7143807   7.832   1.186   0.864 -1.8587  0.9463 -1.0545
  309MOL    C7243808   7.864   1.231   1.074 -0.3647 -0.0760  0.6083
  309MOL    C7343809   7.922   1.093   1.098 -1.1226 -0.3460  0.0301
  309MOL    C7443810   8.004   1.035   0.986  0.2131  0.2644 -0.3371
  309MOL    N7543811   8.069   0.986   0.900  0.5122 -0.2175 -0.1461
  309MOL    H7643812   7.940   1.308   1.082 -0.5319  0.3151 -1.3803
  309MOL    H7743813   7.801   1.262   1.157  0.8355  4.4845 -0.0500
  309MOL    H7843814   7.843   1.018   1.111 -0.9848 -0.0671  2.8930
  309MOL    C7943815   7.993   1.090   1.241 -0.2283  0.2495  0.6439
  309MOL    C8043816   8.083   0.963   1.278  1.1795  0.3213 -0.1489
  309MOL    C8143817   8.133   0.962   1.413  0.8703 -0.0394  0.0395
  309MOL    N8243818   8.176   0.963   1.520  0.1422  0.8509 -0.2213
  309MOL    H8343819   8.056   1.178   1.245  0.6056 -0.3212  0.2066
  309MOL    H8443820   7.909   1.103   1.309  0.0286  0.7018  0.8755
  309MOL    H8543821   8.167   0.973   1.210  1.1085 -0.2301 -0.3127
  309MOL    C8643822   8.002   0.831   1.250  0.2178  0.4584  0.1028
  309MOL    C8743823   8.078   0.702   1.287 -0.3628  0.2335  0.0928
  309MOL    C8843824   7.977   0.594   1.290  0.3256  0.0351 -0.4954
  309MOL    N8943825   7.895   0.511   1.294  0.5502  0.0496  0.6771
  309MOL    H9043826   7.922   0.840   1.324 -0.8072  2.9941 -1.2695
  309MOL    H9143827   7.948   0.817   1.156  0.6364  0.2312 -0.1039
  309MOL    H9243828   8.124   0.704   1.386 -1.4457 -3.6280  0.7452
  309MOL    C9343829   8.197   0.671   1.195  0.4353  0.4091 -0.2301
  309MOL    C9443830   8.292   0.565   1.246  0.0822 -0.2315 -0.0846
  309MOL    C9543831   8.224   0.434   1.258  0.4683 -0.6710  0.3097
  309MOL    N9643832   8.168   0.334   1.269 -0.3334 -0.5399 -0.7439
  309MOL    H9743833   8.160   0.656   1.094 -0.1771 -1.2509  0.2081
  309MOL    H9843834   8.252   0.762   1.174  1.6470  0.1096  1.4203
  309MOL    H9943835   0.014   0.584   1.348  1.0301 -1.1954 -0.2208
  309MOL   C10043836   0.103   0.553   1.161 -0.4805 -0.4784  0.6190
  309MOL   C10143837   0.213   0.443   1.182  0.4090  0.7313 -0.1189
  309MOL   C10243838   0.158   0.306   1.148  0.3467 -0.5833  0.3000
  309MOL   N10343839   0.122   0.199   1.114  0.6047  0.0011 -0.2523
  309MOL   H10443840   0.069   0.537   1.058 -1.0267 -2.4310  1.0832
  309MOL   H10543841   0.151   0.648   1.183 -3.2837  1.3524 -0.8686
  309MOL   H10643842   0.226   0.448   1.290 -3.5423  1.1160  0.3883
  309MOL   C10743843   0.355   0.468   1.119  0.2533  0.8200  0.1746
  309MOL   C10843844   0.447   0.572   1.187 -0.4325 -0.5282  0.4861
  309MOL   C10943845   0.448   0.557   1.335  0.1300 -0.4138 -0.2888
  309MOL   N11043846   0.444   0.547   1.446  0.2870 -0.0100 -0.2580
  309MOL   H11143847   0.405   0.371   1.123 -0.4333  0.4093 -1.0643
  309MOL   H11243848   0.351   0.496   1.014 -0.2129  0.9791  0.2334
  309MOL   H11343849   0.414   0.673   1.164  0.0862 -0.4193  0.2245
  309MOL   C11443850   0.594   0.574   1.145 -0.1734 -0.1458 -0.3241
  309MOL   C11543851   0.621   0.589   0.993  0.0609  0.0086 -0.7215
  309MOL   C11643852   0.568   0.717   0.942 -0.4091  0.1316  0.4614
  309MOL   N11743853   0.517   0.815   0.902  0.5827  0.0406 -0.1473
  309MOL   H11843854   0.645   0.660   1.188 -0.7403  0.1540 -0.2462
  309MOL   H11943855   0.650   0.490   1.186 -0.2800 -0.7878 -1.4538
  309MOL   H12043856   0.569   0.509   0.942  0.2197  1.2369 -2.8530
  309MOL   C12143857   0.775   0.580   0.959 -0.1790  0.3004 -0.6918
  309MOL   C12243858   0.824   0.653   0.827 -0.3910  0.1706 -0.3995
  309MOL   C12343859   0.832   0.799   0.843 -0.6568 -0.2042 -0.7910
  309MOL   N12443860   0.846   0.918   0.848  0.3025  0.2755 -0.9487
  309MOL   H12543861   0.821   0.616   1.051 -1.6381  0.2047  0.0871
  309MOL   H12643862   0.806   0.476   0.948 -2.4697 -0.2396 -2.1711
  309MOL   H12743863   0.749   0.640   0.749 -3.3419 -0.0852  2.3597
  309MOL   C12843864   0.960   0.591   0.771  0.1994  0.0554 -0.2408
  309MOL   C12943865   0.947   0.447   0.708 -0.1562 -0.5069  0.0401
  309MOL   C13043866   0.862   0.433   0.589  0.3715  0.3382  0.3591
  309MOL   N13143867   0.790   0.408   0.501  0.7953  0.3325 -0.6624
  309MOL   H13243868   1.011   0.650   0.695  0.3558 -1.2696 -1.1632
  309MOL   H13343869   1.029   0.577   0.855  0.0330  0.6156 -0.0061
  309MOL   H13443870   0.908   0.369   0.773 -0.9228 -0.4673 -0.3679
  309MOL   C13543871   1.088   0.393   0.664 -0.4756  0.4235 -0.0693
  309MOL   C13643872   1.157   0.467   0.554  0.3787  0.2576  0.0470
  309MOL   C13743873   1.250   0.379   0.486 -0.0981  0.3602 -0.6283
  309MOL   N13843874   1.327   0.311   0.438 -0.9940  0.2265 -0.4999
  309MOL   H13943875   1.143   0.383   0.758  0.5429  2.0934 -0.4735
  309MOL   H14043876   1.071   0.290   0.632  0.3015  0.3168 -0.1496
  309MOL   H14143877   1.207   0.556   0.592  2.8157 -0.5792 -1.1258
  309MOL   H14243878   1.084   0.495   0.478 -0.7622 -1.9631  0.2783
  310MOL     C143879   1.594   3.857   4.849  0.8048  0.6807 -0.3044
  310MOL     C243880   1.724   3.849   4.775  0.8163 -0.9501 -0.6026
  310MOL     C343881   1.712   3.731   4.686  0.2481 -0.4991  0.2132
  310MOL     N443882   1.694   3.642   4.610 -0.5642  0.0223  0.7042
  310MOL     H543883   1.502   3.883   4.796  0.3538 -0.9569 -0.3621
  310MOL     H643884   1.599   3.926   4.933  0.8148  0.2651  0.0351
  310MOL     H743885   1.816   3.836   4.832  0.2838 -1.6125  0.1045
  310MOL     H843886   1.571   3.763   4.899  1.6023  0.0743 -1.0674
  310MOL     C943887   1.735   3.969   4.682  0.2783 -0.3688 -0.2889
  310MOL    C1043888   1.780   4.095   4.747  0.6259 -0.4873  0.2433
  310MOL    C1143889   1.886   4.165   4.673  0.0827  0.6210 -0.1431
  310MOL    N1243890   1.966   4.218   4.611  0.5835 -0.4301  0.0325
  310MOL    H1343891   1.801   3.942   4.600  0.4210  1.3284 -0.7625
  310MOL    H1443892   1.638   3.970   4.632  2.0068 -0.5454 -3.7777
  310MOL    H1543893   1.832   4.069   4.839 -2.1969 -3.7058  1.0057
  310MOL    C1643894   1.663   4.191   4.779  0.3878 -0.1898 -0.0767
  310MOL    C1743895   1.710   4.329   4.841  0.1158  0.3808 -0.4207
  310MOL    C1843896   1.772   4.421   4.740 -0.0220 -0.2582 -0.4052
  310MOL    N1943897   1.825   4.490   4.659  0.2178 -0.4696  0.3676
  310MOL    H2043898   1.604   4.212   4.690 -0.0113 -1.8113 -0.2057
  310MOL    H2143899   1.599   4.139   4.850  1.4581 -1.2106  0.1802
  310MOL    H2243900   1.793   4.311   4.909 -0.4946  0.8762  0.4629
  310MOL    C2343901   1.594   4.395   4.921 -0.2605 -0.2727  0.2466
  310MOL    C2443902   1.492   4.474   4.831  0.0429  0.4266  0.1494
  310MOL    C2543903   1.423   4.378   4.746  0.1861  0.1693  1.1160
  310MOL    N2643904   1.374   4.298   4.678  0.4079  0.9471  0.3948
  310MOL    H2743905   1.540   4.322   4.980 -0.2073 -0.0046  0.6304
  310MOL    H2843906   1.650   4.461   4.988 -0.1162  0.5295 -0.6374
  310MOL    H2943907   1.553   4.528   4.759 -0.7931 -0.3791 -1.1949
  310MOL    C3043908   1.386   4.557   4.903 -0.3982 -0.4676 -0.3606
  310MOL    C3143909   1.453   4.676   4.986  0.6221  0.7905 -0.6171
  310MOL    C3243910   1.538   4.748   4.896  0.2945  0.2159  0.0334
  310MOL    N3343911   1.603   4.809   4.819  0.5685  0.3905 -0.3710
  310MOL    H3443912   1.315   4.598   4.831  1.3728  2.0319 -0.7672
  310MOL    H3543913   1.336   4.486   4.968  0.2334 -0.7059 -0.1314
  310MOL    H3643914   1.519   4.618   5.051  0.8180  0.3896 -1.1695
  310MOL    C3743915   1.363   4.765   5.084 -0.5490  0.6004  0.1060
  310MOL    C3843916   1.422   4.860   5.190  0.4873 -0.5121  0.1463
  310MOL    C3943917   1.498   4.967   5.128  0.3300 -0.1256  0.7206
  310MOL    N4043918   1.548   5.057   5.072 -0.2437  1.2881 -0.5005
  310MOL    H4143919   1.298   4.825   5.021 -0.1883  1.7204  0.7963
  310MOL    H4243920   1.297   4.700   5.143 -1.6414  1.7867  0.1989
  310MOL    H4343921   1.484   4.795   5.251 -0.6744 -0.1706  1.7639
  310MOL    C4443922   1.309   4.912   5.283  0.8537 -0.2744  0.0907
  310MOL    C4543923   1.356   4.978   5.411  0.0174  0.2730  0.3011
  310MOL    C4643924   1.394   4.880   5.512  0.1276 -0.3397 -0.3325
  310MOL    N4743925   1.420   4.801   5.594  0.2037 -0.6674  0.5397
  310MOL    H4843926   1.250   4.982   5.225  0.3698  0.2003  1.1312
  310MOL    H4943927   1.233   4.838   5.310  1.9226 -0.7786  1.8479
  310MOL    H5043928   1.267   5.021   5.457 -0.1972  1.2395 -0.9951
  310MOL    C5143929   1.453   5.097   5.408  0.0683  0.1352 -0.3009
  310MOL    C5243930   1.487   5.150   5.553  0.9551  0.0779 -0.4802
  310MOL    C5343931   1.592   5.253   5.534 -0.4533  0.5577  0.0011
  310MOL    N5443932   1.667   5.339   5.521  0.1718  0.3516 -0.0072
  310MOL    H5543933   1.549   5.065   5.367 -0.6031  1.0207 -2.6645
  310MOL    H5643934   1.436   5.186   5.348  1.2689  0.9006  0.4748
  310MOL    H5743935   1.516   5.065   5.615 -0.1016 -0.9912 -1.4386
  310MOL    C5843936   1.372   5.215   5.634  0.5321 -0.1521 -0.5737
  310MOL    C5943937   1.395   5.252   5.775  0.2129 -0.1565  0.1100
  310MOL    C6043938   1.485   5.368   5.792  0.0157  0.5966 -0.2264
  310MOL    N6143939   1.553   5.457   5.817 -0.1389 -0.5370 -0.0765
  310MOL    H6243940   1.323   5.301   5.588  2.4577  0.1650 -2.0734
  310MOL    H6343941   1.290   5.143   5.625  0.5627 -0.3560  0.6146
  310MOL    H6443942   1.455   5.172   5.820  0.0092  0.1418  0.9300
  310MOL    C6543943   1.264   5.254   5.846 -0.1900  0.3371 -0.0474
  310MOL    C6643944   1.271   5.275   6.003 -0.0951  0.1667 -0.3960
  310MOL    C6743945   1.318   5.409   6.030  0.1113 -0.0558 -0.6194
  310MOL    N6843946   1.353   5.519   6.047  1.3096  1.3330  0.0893
  310MOL    H6943947   1.201   5.328   5.797 -1.8669 -1.3322 -0.4612
  310MOL    H7043948   1.219   5.161   5.811  2.4265 -0.8823 -0.2697
  310MOL    H7143949   1.346   5.203   6.036 -1.3705 -1.5428 -1.1034
  310MOL    C7243950   1.138   5.246   6.067  0.5435 -0.4296  0.0739
  310MOL    C7343951   1.032   5.358   6.047  0.4168  0.4012 -0.6416
  310MOL    C7443952   0.955   5.353   5.921 -0.4015 -0.1154  0.2934
  310MOL    N7543953   0.893   5.351   5.821 -0.0529  0.1049  0.0464
  310MOL    H7643954   1.096   5.148   6.044 -1.2773  0.3832 -0.1539
  310MOL    H7743955   1.157   5.235   6.174 -1.5114  0.4418  0.5614
  310MOL    H7843956   1.084   5.454   6.045 -0.4542  0.9322  1.4245
  310MOL    C7943957   0.937   5.370   6.172  0.8174  0.5858  0.0760
  310MOL    C8043958   0.822   5.472   6.165  0.8772 -0.2666 -0.1020
  310MOL    C8143959   0.718   5.434   6.267  0.8345  0.5945 -0.2348
  310MOL    N8243960   0.634   5.396   6.343 -0.1833  0.1605 -0.0749
  310MOL    H8343961   0.887   5.273   6.178 -0.1169  1.1303  1.6533
  310MOL    H8443962   1.005   5.386   6.256  1.1429 -0.0356 -0.0700
  310MOL    H8543963   0.772   5.458   6.069 -0.9476  1.4272  0.5749
  310MOL    C8643964   0.869   5.619   6.166  0.1316 -1.2451  0.7296
  310MOL    C8743965   0.772   5.735   6.157  0.3495 -0.2999  0.7696
  310MOL    C8843966   0.725   5.742   6.016  0.0959  0.1697 -0.4590
  310MOL    N8943967   0.688   5.747   5.911 -0.1407  0.0448  0.4739
  310MOL    H9043968   0.945   5.632   6.242  1.5322 -0.8314 -0.7160
  310MOL    H9143969   0.938   5.643   6.085 -0.7106 -0.0245  0.3481
  310MOL    H9243970   0.824   5.831   6.160 -1.7162  0.8323  1.3789
  310MOL    C9343971   0.655   5.728   6.257  0.4624 -0.2135  0.1518
  310MOL    C9443972   0.578   5.859   6.287 -0.0545 -0.0202  0.2953
  310MOL    C9543973   0.506   5.909   6.164  0.0843  0.1845 -0.2079
  310MOL    N9643974   0.453   5.950   6.070 -0.3576  0.9018 -0.4534
  310MOL    H9743975   0.583   5.654   6.223  0.2770  0.8022 -1.7145
  310MOL    H9843976   0.699   5.703   6.354  0.6830  1.3966  0.4840
  310MOL    H9943977   0.652   5.937   6.306  0.4954 -0.4122 -0.2121
  310MOL   C10043978   0.491   5.833   6.414  0.7464  0.2699  0.1055
  310MOL   C10143979   0.392   5.716   6.432 -0.7466  0.4305 -0.1083
  310MOL   C10243980   0.374   5.693   6.573 -0.2641  0.4233 -0.0989
  310MOL   N10343981   0.364   5.676   6.687 -0.4035 -0.2317  0.4474
  310MOL   H10443982   0.558   5.823   6.500  2.2576  2.0380 -0.8443
  310MOL   H10543983   0.432   5.924   6.425 -2.0911 -1.5339  0.3439
  310MOL   H10643984   0.433   5.624   6.392  0.5658  1.6609 -1.6951
  310MOL   C10743985   0.265   5.742   6.350 -0.4549  0.0946 -0.1887
  310MOL   C10843986   0.153   5.637   6.353  0.2121 -0.7166  0.4165
  310MOL   C10943987   0.060   5.656   6.466 -0.1540 -0.2143  1.1661
  310MOL   N11043988   8.306   5.671   6.555 -0.5932  0.0944  0.4361
  310MOL   H11143989   0.216   5.837   6.373 -0.9338 -0.2725  0.2923
  310MOL   H11243990   0.295   5.742   6.245 -0.9052 -0.6143 -0.3180
  310MOL   H11343991   0.204   5.541   6.357 -0.3599 -0.9901  1.2131
  310MOL   C11443992   0.075   5.639   6.218 -0.1801  0.4657  0.1412
  310MOL   C11543993   8.311   5.512   6.192 -0.2124  0.1620  0.0925
  310MOL   C11643994   0.081   5.392   6.199  0.2207  1.0435  0.6218
  310MOL   N11743995   0.149   5.300   6.198  0.5059  0.1108  0.2204
  310MOL   H11843996   0.012   5.728   6.223  0.4340  1.0704 -2.1735
  310MOL   H11943997   0.139   5.651   6.130  0.1626  1.6186  0.5406
  310MOL   H12043998   8.293   5.521   6.085 -0.3524  2.2398  0.2775
  310MOL   C12143999   8.177   5.491   6.261 -0.3375  0.2857  0.4499
  310MOL   C12244000   8.062   5.401   6.198 -0.3725  0.0147  0.4076
  310MOL   C12344001   8.103   5.256   6.216  0.3350  0.9525 -0.1433
  310MOL   N12444002   8.135   5.145   6.234 -0.0800 -0.4296 -0.2395
  310MOL   H12544003   8.197   5.458   6.363  4.3188  0.8413 -0.1902
  310MOL   H12644004   8.141   5.593   6.279  0.7863  0.8419 -0.3484
  310MOL   H12744005   8.048   5.431   6.095 -2.1611 -0.1638  0.5871
  310MOL   C12844006   7.926   5.430   6.269  0.0439  0.1653  0.4511
  310MOL   C12944007   7.798   5.386   6.198 -0.1498 -0.0357  0.3328
  310MOL   C13044008   7.794   5.248   6.150 -0.1869 -0.2269 -0.8056
  310MOL   N13144009   7.795   5.143   6.108  0.0640  0.1278  0.8057
  310MOL   H13244010   7.941   5.393   6.370  0.8699 -1.4128 -0.2448
  310MOL   H13344011   7.922   5.538   6.286 -0.4936  0.4573 -1.4231
  310MOL   H13444012   7.773   5.442   6.108 -1.2156  0.3008  0.8342
  310MOL   C13544013   7.676   5.407   6.287  0.5411  0.0200 -0.4092
  310MOL   C13644014   7.553   5.320   6.246  0.4065 -0.1596 -0.6132
  310MOL   C13744015   7.425   5.354   6.322 -0.0442 -0.6027 -0.0993
  310MOL   N13844016   7.335   5.379   6.385  0.4023 -0.6001  0.4357
  310MOL   H13944017   7.705   5.380   6.388  2.6661  0.4270 -0.8906
  310MOL   H14044018   7.660   5.515   6.293  1.6532  0.1375  0.5793
  310MOL   H14144019   7.571   5.215   6.271 -0.7523 -0.3847 -0.6825
  310MOL   H14244020   7.539   5.330   6.139 -2.0137  0.9088 -0.2347
  311MOL     C144021   5.187   7.658   1.152 -0.6251 -0.8009 -0.1551
  311MOL     C244022   5.330   7.710   1.171 -0.3761  0.1954 -0.6282
  311MOL     C344023   5.357   7.735   1.315 -0.0370  0.0676 -0.6750
  311MOL     N444024   5.381   7.757   1.422 -0.6440  0.9468 -0.1122
  311MOL     H544025   5.154   7.638   1.050  2.8721  0.1092 -1.5352
  311MOL     H644026   5.121   7.734   1.195 -2.6398 -1.2349 -2.3494
  311MOL     H744027   5.333   7.806   1.120  1.2520 -0.1602 -1.2269
  311MOL     H844028   5.164   7.571   1.212 -0.8721 -1.3293 -1.0111
  311MOL     C944029   5.438   7.609   1.129  0.3450 -0.1656 -0.2025
  311MOL    C1044030   5.504   7.624   0.986  0.5924  0.0852  0.1138
  311MOL    C1144031   5.397   7.624   0.879  0.7371 -0.0031 -0.0732
  311MOL    N1244032   5.313   7.621   0.799 -0.1474  0.2156  0.1662
  311MOL    H1344033   5.517   7.597   1.204 -0.1919 -3.1550 -0.0649
  311MOL    H1444034   5.384   7.515   1.137 -0.6872  0.4151 -0.2438
  311MOL    H1544035   5.562   7.533   0.976 -0.7943 -0.7527 -0.4962
  311MOL    C1644036   5.593   7.746   0.972 -0.2368 -1.1701 -0.1497
  311MOL    C1744037   5.669   7.744   0.836 -0.0486  0.3437 -0.5371
  311MOL    C1844038   5.697   7.607   0.794 -0.8218  0.3172 -0.9333
  311MOL    N1944039   5.717   7.500   0.760  0.2943 -0.0884  0.4580
  311MOL    H2044040   5.537   7.839   0.986  1.2146  0.0319 -2.1065
  311MOL    H2144041   5.662   7.733   1.055 -2.0959 -0.1657  1.5893
  311MOL    H2244042   5.768   7.781   0.863  0.0086 -1.1056  1.4094
  311MOL    C2344043   5.606   7.841   0.731 -0.0227  0.3008  0.3615
  311MOL    C2444044   5.704   7.908   0.632 -0.5204 -0.0900  0.5250
  311MOL    C2544045   5.806   7.814   0.603 -0.9888  0.2919  0.9358
  311MOL    N2644046   5.888   7.735   0.583 -0.0472  0.4838 -0.0010
  311MOL    H2744047   5.524   7.792   0.679  0.2197  0.0011  0.2583
  311MOL    H2844048   5.557   7.923   0.784 -1.2122  0.2851 -0.6948
  311MOL    H2944049   5.765   7.977   0.691 -0.7150  0.5088  0.0294
  311MOL    C3044050   5.640   7.992   0.516 -0.0380  0.4957  0.0752
  311MOL    C3144051   5.539   8.094   0.562  0.4546 -0.6207 -0.6903
  311MOL    C3244052   5.611   8.194   0.637 -0.5955 -0.7990  0.1897
  311MOL    N3344053   5.670   8.280   0.688  0.4416  0.3215 -0.0935
  311MOL    H3444054   5.718   8.045   0.461  0.5062 -0.5834 -0.2039
  311MOL    H3544055   5.588   7.923   0.449  0.4263  0.0704  0.1533
  311MOL    H3644056   5.456   8.058   0.623 -0.2801  2.6480  0.3079
  311MOL    C3744057   5.467   8.160   0.446 -0.2058 -0.0017 -0.3593
  311MOL    C3844058   5.371   8.062   0.368  0.1982 -0.7470 -0.0083
  311MOL    C3944059   5.283   7.995   0.463  0.6099 -0.4303 -0.4434
  311MOL    N4044060   5.219   7.947   0.541  0.1393  0.2345  0.1797
  311MOL    H4144061   5.400   8.235   0.489  1.3511  1.7563 -0.9294
  311MOL    H4244062   5.532   8.213   0.376  0.6258 -2.2934 -1.3439
  311MOL    H4344063   5.419   7.985   0.308 -0.7811 -1.3337 -0.0563
  311MOL    C4444064   5.296   8.148   0.256  0.4111  0.1513 -0.2752
  311MOL    C4544065   5.231   8.066   0.148 -0.4302 -0.1839  0.1662
  311MOL    C4644066   5.135   7.969   0.205 -0.2993  0.0374 -0.1000
  311MOL    N4744067   5.055   7.900   0.251 -0.2113 -0.0984  0.6095
  311MOL    H4844068   5.235   8.221   0.311  0.0088  1.1748 -2.0557
  311MOL    H4944069   5.371   8.202   0.199 -0.1782 -0.6652 -1.8268
  311MOL    H5044070   5.307   8.002   0.102  0.0019 -0.2122  0.9289
  311MOL    C5144071   5.164   8.150   0.033  0.8769 -0.3906 -0.0019
  311MOL    C5244072   5.022   8.212   0.066 -0.1295 -0.6104 -0.1050
  311MOL    C5344073   5.037   0.022   0.149  0.0273  0.2558  0.3621
  311MOL    N5444074   5.052   0.114   0.213 -0.0966 -0.6095 -0.1819
  311MOL    H5544075   5.227   8.230   8.307 -2.8226  3.0617  0.7620
  311MOL    H5644076   5.153   8.074   8.267  1.4418 -1.5299  1.0050
  311MOL    H5744077   4.964   8.144   0.129 -0.7956  0.9025  0.9605
  311MOL    C5844078   4.930   8.240   8.260  0.5440  0.5122 -0.2701
  311MOL    C5944079   4.864   8.109   8.209 -0.0213  0.1706  0.2556
  311MOL    C6044080   4.786   8.048   0.001  0.5559 -0.1806  0.2342
  311MOL    N6144081   4.716   7.999   0.084 -0.0693 -0.5778  0.2979
  311MOL    H6244082   4.851   8.310   8.287 -0.6868 -0.4399 -1.3067
  311MOL    H6344083   4.987   8.299   8.187  2.9309 -0.5008  0.7489
  311MOL    H6444084   4.941   8.035   8.184  0.5171  1.2896 -1.5041
  311MOL    C6544085   4.780   8.128   8.084 -0.0376  0.1119  0.5567
  311MOL    C6644086   4.749   7.994   8.012 -0.2681  0.0928 -0.3574
  311MOL    C6744087   4.877   7.929   7.968  0.2635 -0.2274  0.0972
  311MOL    N6844088   4.973   7.880   7.931  0.3049 -0.1026 -0.2314
  311MOL    H6944089   4.696   8.191   8.116 -0.0354  0.7621 -0.7026
  311MOL    H7044090   4.816   8.194   8.005 -2.8296  0.0174 -0.8608
  311MOL    H7144091   4.691   8.021   7.923 -0.7637 -0.0782 -0.0878
  311MOL    C7244092   4.648   7.886   8.069  0.0055 -0.2240  0.2103
  311MOL    C7344093   4.601   7.775   7.974  0.9619 -0.1459  0.4794
  311MOL    C7444094   4.575   7.824   7.836 -0.3304  0.3166 -0.2314
  311MOL    N7544095   4.555   7.863   7.727  0.3512 -0.1813  0.0594
  311MOL    H7644096   4.700   7.843   8.154  0.0020  0.0057  0.3302
  311MOL    H7744097   4.554   7.934   8.097  0.6373  0.1878  1.6521
  311MOL    H7844098   4.503   7.747   8.012  0.7453  1.3691  1.1024
  311MOL    C7944099   4.692   7.645   7.972  1.0056  0.0442 -0.0361
  311MOL    C8044100   4.628   7.518   7.928 -0.2695  0.1888 -0.1958
  311MOL    C8144101   4.626   7.520   7.780  0.6492 -0.7257 -0.1204
  311MOL    N8244102   4.629   7.532   7.665  0.4907  0.2306 -0.1177
  311MOL    H8344103   4.779   7.658   7.908 -0.4027  0.3075 -1.9629
  311MOL    H8444104   4.734   7.625   8.070 -0.3461  1.9344  0.9796
  311MOL    H8544105   4.523   7.504   7.952 -0.3458 -0.1022 -0.7025
  311MOL    C8644106   4.701   7.394   7.970  0.2499 -0.2425 -0.2156
  311MOL    C8744107   4.665   7.261   7.899  0.3768  0.3008 -0.9290
  311MOL    C8844108   4.721   7.248   7.768 -0.3457 -0.5929 -0.1971
  311MOL    N8944109   4.764   7.236   7.664  0.3483 -0.1544  1.1196
  311MOL    H9044110   4.808   7.402   7.949  0.6016  0.3154  1.7085
  311MOL    H9144111   4.679   7.376   8.075 -0.2738  1.9269  0.0591
  311MOL    H9244112   4.556   7.262   7.891  0.3525 -1.9548 -1.1151
  311MOL    C9344113   4.715   7.141   7.988 -0.0230 -0.3928  0.2671
  311MOL    C9444114   4.660   6.999   7.948 -0.3311  0.0245  0.1066
  311MOL    C9544115   4.722   6.907   8.043 -0.4935 -0.2342  0.1588
  311MOL    N9644116   4.775   6.832   8.121  0.3963 -0.5969  0.6169
  311MOL    H9744117   4.824   7.142   7.982 -0.0163  3.3093 -0.4601
  311MOL    H9844118   4.699   7.139   8.096  0.4133 -2.1172  0.3055
  311MOL    H9944119   4.677   6.979   7.842 -3.8904  0.9270 -0.6921
  311MOL   C10044120   4.510   6.991   7.964  0.2364  0.0228 -0.4099
  311MOL   C10144121   4.456   7.009   8.105  0.0288  0.2727 -0.1087
  311MOL   C10244122   4.417   7.153   8.116 -0.5134  0.0389  0.1545
  311MOL   N10344123   4.394   7.263   8.117  0.0097 -0.8447  0.0340
  311MOL   H10444124   4.463   7.061   7.896 -0.3671 -0.2350 -0.2580
  311MOL   H10544125   4.489   6.892   7.922  1.6293  1.0805 -3.7791
  311MOL   H10644126   4.532   7.011   8.184  3.3315 -1.1467 -3.1502
  311MOL   C10744127   4.335   6.918   8.133 -0.5703  0.2770 -0.0872
  311MOL   C10844128   4.378   6.769   8.177  0.3273  0.8848 -1.0717
  311MOL   C10944129   4.405   6.759   0.008  0.0627  0.6818 -0.4170
  311MOL   N11044130   4.423   6.755   0.124  0.0076 -0.3411 -0.5071
  311MOL   H11144131   4.275   6.953   8.217 -0.7689 -0.1551 -0.0465
  311MOL   H11244132   4.276   6.917   8.041 -1.4198 -1.2725  0.4643
  311MOL   H11344133   4.470   6.737   8.128  2.3737  0.3546  2.9580
  311MOL   C11444134   4.274   6.664   8.139 -0.3669  0.1448  0.8087
  311MOL   C11544135   4.149   6.655   8.220 -0.0414  0.2680  0.4751
  311MOL   C11644136   4.065   6.775   8.199  0.1272  0.5445  0.2490
  311MOL   N11744137   3.993   6.866   8.180 -0.1038 -0.3113 -0.4338
  311MOL   H11844138   4.239   6.679   8.037  1.5039  1.0146  0.2680
  311MOL   H11944139   4.321   6.566   8.137 -0.6917  0.0144 -2.6798
  311MOL   H12044140   4.176   6.647   0.013 -2.7741  2.7787  1.4481
  311MOL   C12144141   4.072   6.533   8.189 -0.6332  0.0106  0.0921
  311MOL   C12244142   3.944   6.521   8.261  0.2883 -0.2987  0.4137
  311MOL   C12344143   3.846   6.446   8.178  0.1160  0.8184 -0.7818
  311MOL   N12444144   3.768   6.386   8.117 -0.7133 -0.2534 -0.0949
  311MOL   H12544145   4.034   6.541   8.087  0.6382  1.4701 -0.2779
  311MOL   H12644146   4.134   6.443   8.186  0.1204  0.4852  1.1959
  311MOL   H12744147   3.898   6.619   8.255 -0.4287 -0.7342 -1.7033
  311MOL   C12844148   3.940   6.486   0.102  0.0139 -0.4328  0.6093
  311MOL   C12944149   3.933   6.337   0.128  0.2184 -0.6169  0.4497
  311MOL   C13044150   4.006   6.256   0.028 -0.2012  0.7197  1.1136
  311MOL   N13144151   4.067   6.199   8.260 -0.0205 -0.2746 -0.5685
  311MOL   H13244152   4.032   6.521   0.149 -0.4410 -1.1979  2.1217
  311MOL   H13344153   3.852   6.522   0.155 -0.2445 -1.7436  1.0942
  311MOL   H13444154   3.829   6.314   0.108  0.2583 -0.8742  0.5310
  311MOL   C13544155   3.960   6.301   0.272 -0.0964  0.0708 -0.6561
  311MOL   C13644156   3.941   6.151   0.291  0.6183 -0.2801 -0.2424
  311MOL   C13744157   4.070   6.088   0.309 -0.1545 -0.7180 -0.2967
  311MOL   N13844158   4.174   6.035   0.325 -0.4033  0.0419 -0.2766
  311MOL   H13944159   4.057   6.333   0.312 -0.0623 -0.1214 -0.5869
  311MOL   H14044160   3.891   6.362   0.330 -0.1593  0.4237 -1.0992
  311MOL   H14144161   3.893   6.095   0.211  1.3824 -1.3688  0.0525
  311MOL   H14244162   3.884   6.131   0.382  2.0325  0.1965  0.7704
  312MOL     C144163   5.419   5.549   4.293  0.1445  0.4541  0.0550
  312MOL     C244164   5.569   5.584   4.275  0.6158 -0.6459 -0.3773
  312MOL     C344165   5.584   5.724   4.245 -0.4556 -0.2219 -0.2460
  312MOL     N444166   5.601   5.839   4.225  0.1397 -0.0804  0.7702
  312MOL     H544167   5.390   5.584   4.393  0.5434  0.2903  0.2308
  312MOL     H644168   5.398   5.444   4.274 -3.6516  0.8824  1.3408
  312MOL     H744169   5.592   5.538   4.178  0.0241 -2.2189  0.2076
  312MOL     H844170   5.362   5.613   4.226 -0.6255 -0.4793 -0.1981
  312MOL     C944171   5.659   5.550   4.390  0.1453 -0.3731  0.6623
  312MOL    C1044172   5.816   5.565   4.375 -0.3839  0.2699 -0.4212
  312MOL    C1144173   5.842   5.458   4.275 -0.1167  0.3142 -0.4605
  312MOL    N1244174   5.864   5.375   4.197 -0.4008 -0.4990 -0.0241
  312MOL    H1344175   5.621   5.605   4.476 -2.4583  0.7406 -1.1657
  312MOL    H1444176   5.639   5.444   4.409 -0.4550 -0.0441  1.9588
  312MOL    H1544177   5.864   5.528   4.466 -1.3319  0.9997  0.3838
  312MOL    C1644178   5.869   5.707   4.348  0.3079 -0.5051  0.2031
  312MOL    C1744179   5.824   5.822   4.447 -0.1286  0.3234 -0.0518
  312MOL    C1844180   5.828   5.775   4.590  0.0829 -0.7645  0.3202
  312MOL    N1944181   5.827   5.744   4.702  0.4518 -0.6249  0.7115
  312MOL    H2044182   5.977   5.707   4.363  0.2202  0.6832  0.8363
  312MOL    H2144183   5.860   5.738   4.244  1.3509 -0.6096  0.0813
  312MOL    H2244184   5.719   5.843   4.426  0.2739  0.8058 -1.6596
  312MOL    C2344185   5.915   5.950   4.415 -0.1436  0.4459 -0.5221
  312MOL    C2444186   5.864   6.080   4.483  0.8841 -0.3874 -0.3378
  312MOL    C2544187   5.953   6.196   4.476 -1.0344  0.0750  0.1128
  312MOL    N2644188   6.020   6.294   4.470 -0.1323  0.1575  0.8882
  312MOL    H2744189   6.019   5.930   4.438 -0.6256  0.9092  2.1925
  312MOL    H2844190   5.907   5.968   4.308 -1.0823  2.9516 -0.0629
  312MOL    H2944191   5.863   6.059   4.590  0.4976  1.1413 -0.0368
  312MOL    C3044192   5.728   6.126   4.427  0.3177  1.1104 -0.8132
  312MOL    C3144193   5.663   6.226   4.520 -0.4226  0.6116 -0.4265
  312MOL    C3244194   5.680   6.365   4.472  0.0485  0.3983  0.7587
  312MOL    N3344195   5.691   6.477   4.438  0.2418  0.0975 -0.0670
  312MOL    H3444196   5.747   6.170   4.329 -1.4854  2.0130 -0.7701
  312MOL    H3544197   5.667   6.036   4.415  1.4882  0.0817  0.7676
  312MOL    H3644198   5.712   6.228   4.617 -1.5536 -0.5519  0.1720
  312MOL    C3744199   5.512   6.190   4.542  0.2978  0.4729 -0.5550
  312MOL    C3844200   5.407   6.228   4.430 -0.3071 -0.7673  0.1851
  312MOL    C3944201   5.451   6.201   4.292  0.3867 -0.1690 -0.1710
  312MOL    N4044202   5.491   6.177   4.189 -0.1114 -0.1111  0.1091
  312MOL    H4144203   5.509   6.081   4.550 -0.9790  0.6075  1.1294
  312MOL    H4244204   5.489   6.223   4.644 -0.0123  0.7520 -0.7161
  312MOL    H4344205   5.389   6.335   4.442 -1.5249 -0.3277 -4.3287
  312MOL    C4444206   5.279   6.147   4.458 -0.0025  0.2458  0.5640
  312MOL    C4544207   5.145   6.217   4.424  0.1378 -0.1429  0.2132
  312MOL    C4644208   5.127   6.276   4.290 -0.4925  0.9714 -0.7510
  312MOL    N4744209   5.110   6.318   4.190  0.0703  0.2994  0.6577
  312MOL    H4844210   5.280   6.051   4.406  0.5610  0.4004  0.2866
  312MOL    H4944211   5.274   6.127   4.565 -1.7774 -0.8855  0.2893
  312MOL    H5044212   5.151   6.309   4.482 -0.1823  1.5695 -2.4282
  312MOL    C5144213   5.016   6.135   4.464  0.1026  0.0596  0.1394
  312MOL    C5244214   4.944   6.178   4.596 -0.0383  0.4612  0.1641
  312MOL    C5344215   4.949   6.323   4.618 -0.0490  0.0897 -0.1053
  312MOL    N5444216   4.947   6.443   4.639 -0.4683 -0.0375  0.3346
  312MOL    H5544217   4.943   6.158   4.387 -0.5620  0.1440  0.7919
  312MOL    H5644218   5.034   6.027   4.463  1.8052  0.3293 -2.6900
  312MOL    H5744219   5.010   6.136   4.671 -0.7518 -1.0772 -0.0588
  312MOL    C5844220   4.804   6.117   4.620  0.1976 -0.4483 -0.3012
  312MOL    C5944221   4.715   6.179   4.726  0.5663  0.2113 -0.3820
  312MOL    C6044222   4.786   6.213   4.851  0.2002  0.4025  0.1841
  312MOL    N6144223   4.838   6.222   4.953  0.5042 -0.1062 -0.7249
  312MOL    H6244224   4.763   6.130   4.520 -0.3406  0.5096  0.0343
  312MOL    H6344225   4.810   6.013   4.650  0.0961 -0.0919  0.9715
  312MOL    H6444226   4.652   6.096   4.758 -0.2192  1.5136  1.5687
  312MOL    C6544227   4.617   6.292   4.687 -0.4686  0.2018 -0.4419
  312MOL    C6644228   4.511   6.241   4.589 -0.3871  0.0612 -0.2418
  312MOL    C6744229   4.456   6.112   4.621  0.1362  0.2700  0.1059
  312MOL    N6844230   4.407   6.010   4.647  0.7071 -0.2349 -0.1486
  312MOL    H6944231   4.572   6.336   4.776 -0.4242  0.1469 -0.3919
  312MOL    H7044232   4.668   6.377   4.642  2.4126 -1.2736 -0.1033
  312MOL    H7144233   4.559   6.215   4.494  0.3342 -1.0406  0.4113
  312MOL    C7244234   4.401   6.337   4.562 -0.3491 -0.3770 -0.4829
  312MOL    C7344235   4.272   6.282   4.499 -0.3458 -0.0070 -0.2954
  312MOL    C7444236   4.304   6.184   4.394  0.2983  0.4169  0.1726
  312MOL    N7544237   4.321   6.104   4.312 -0.8445 -0.2747 -0.2880
  312MOL    H7644238   4.377   6.375   4.662 -3.0764 -0.3760 -1.0885
  312MOL    H7744239   4.432   6.415   4.493 -0.8636 -0.8122 -1.2086
  312MOL    H7844240   4.231   6.362   4.438  0.8107  2.5527  2.1579
  312MOL    C7944241   4.158   6.247   4.607  0.0085 -0.2395  0.9146
  312MOL    C8044242   4.046   6.160   4.562 -0.2491  0.6524 -0.2446
  312MOL    C8144243   3.982   6.099   4.679 -0.8239 -0.3695  0.2860
  312MOL    N8244244   3.925   6.053   4.774 -0.0453 -0.0380  0.0341
  312MOL    H8344245   4.209   6.203   4.693  1.4532  0.1292  0.2506
  312MOL    H8444246   4.102   6.335   4.639 -1.3746 -0.9905  0.5937
  312MOL    H8544247   4.097   6.072   4.522 -1.2087  0.3296 -0.7861
  312MOL    C8644248   3.956   6.223   4.449 -0.4209 -0.1251  0.6506
  312MOL    C8744249   3.818   6.267   4.493  0.2363 -0.4698  0.1805
  312MOL    C8844250   3.806   6.338   4.626  0.7883 -0.2491 -0.1917
  312MOL    N8944251   3.801   6.400   4.726  0.0485  0.4691  0.3259
  312MOL    H9044252   4.007   6.291   4.381 -2.7741  1.5695  0.5326
  312MOL    H9144253   3.944   6.133   4.388  0.3325 -0.3727  0.8670
  312MOL    H9244254   3.749   6.183   4.502 -0.0524 -0.1323  1.2756
  312MOL    C9344255   3.756   6.346   4.376 -0.0242 -0.0530 -0.0601
  312MOL    C9444256   3.710   6.269   4.255  0.7566  0.8576 -0.0821
  312MOL    C9544257   3.810   6.184   4.191  0.3719  0.3340 -0.2196
  312MOL    N9644258   3.887   6.116   4.139 -0.5409  0.1728  0.4805
  312MOL    H9744259   3.681   6.419   4.406 -1.5131 -0.7555 -2.0315
  312MOL    H9844260   3.830   6.418   4.341  0.0738 -0.7490 -1.3184
  312MOL    H9944261   3.684   6.348   4.183 -2.4396  0.8684  0.9825
  312MOL   C10044262   3.579   6.182   4.280 -0.0868  0.7747 -0.2543
  312MOL   C10144263   3.499   6.142   4.152  0.0546 -0.0531  0.0720
  312MOL   C10244264   3.571   6.042   4.066 -0.1223 -0.3019 -0.1603
  312MOL   N10344265   3.624   5.965   3.999 -0.3153  0.4944  0.5132
  312MOL   H10444266   3.615   6.099   4.341 -0.1178  0.0919 -1.1510
  312MOL   H10544267   3.518   6.237   4.352 -1.5038  0.0912 -0.9009
  312MOL   H10644268   3.477   6.229   4.091 -0.8578 -0.4630 -0.1876
  312MOL   C10744269   3.359   6.095   4.194 -0.3936 -0.5254  0.0665
  312MOL   C10844270   3.262   6.045   4.082 -0.2895 -0.5647 -0.2327
  312MOL   C10944271   3.261   6.123   3.963 -0.2410 -0.5225 -0.3572
  312MOL   N11044272   3.262   6.180   3.862 -0.1643  0.3033 -0.1167
  312MOL   H11144273   3.359   6.028   4.280 -1.5556  3.8607  3.7030
  312MOL   H11244274   3.321   6.193   4.224 -0.8614  0.4498 -3.4769
  312MOL   H11344275   3.160   6.052   4.120 -0.2193  0.3574 -0.2047
  312MOL   C11444276   3.285   5.906   4.036 -0.2452  0.4214 -0.1991
  312MOL   C11544277   3.193   5.845   3.932  0.3246  0.6680  0.0935
  312MOL   C11644278   3.229   5.710   3.877  0.8497 -0.1918 -0.0119
  312MOL   N11744279   3.256   5.604   3.836  0.9162 -0.4498  0.3929
  312MOL   H11844280   3.385   5.907   3.992 -0.2007  0.6511 -0.0908
  312MOL   H11944281   3.304   5.842   4.122  1.3715  0.7503 -0.3045
  312MOL   H12044282   3.191   5.912   3.845  0.3711 -0.6465 -0.9395
  312MOL   C12144283   3.049   5.832   3.985 -0.5083  0.5533  0.1140
  312MOL   C12244284   2.949   5.759   3.896  0.0065  0.3063 -0.4254
  312MOL   C12344285   2.819   5.739   3.971  0.0262 -0.3256 -0.3221
  312MOL   N12444286   2.723   5.728   4.035  0.3339 -0.3458  0.3537
  312MOL   H12544287   3.056   5.778   4.079 -1.3197 -1.3161 -0.8806
  312MOL   H12644288   3.011   5.932   4.007 -1.6639  0.3931 -1.1052
  312MOL   H12744289   2.982   5.656   3.885  0.5378  0.4417 -0.1185
  312MOL   C12844290   2.931   5.812   3.753 -0.1742 -0.1462 -0.3172
  312MOL   C12944291   2.844   5.728   3.660 -0.2727 -0.3797  0.2684
  312MOL   C13044292   2.704   5.761   3.690  0.2256  0.3773  0.4058
  312MOL   N13144293   2.585   5.782   3.705 -0.0922 -0.1906 -0.1802
  312MOL   H13244294   2.894   5.914   3.754  0.3246  0.0508 -1.6653
  312MOL   H13344295   3.030   5.836   3.714  0.0145 -2.8791 -1.6676
  312MOL   H13444296   2.850   5.622   3.684 -0.8625 -0.7612 -1.1684
  312MOL   C13544297   2.883   5.748   3.516 -0.1535 -0.9161  0.5344
  312MOL   C13644298   2.826   5.642   3.430 -0.0071 -0.8374 -0.9436
  312MOL   C13744299   2.887   5.509   3.444  0.9334  0.2173 -0.9513
  312MOL   N13844300   2.935   5.406   3.456 -0.8090 -0.8506 -0.0548
  312MOL   H13944301   2.853   5.846   3.481 -2.9445 -1.6729  0.7125
  312MOL   H14044302   2.992   5.741   3.512 -0.2171 -1.4660 -0.4371
  312MOL   H14144303   2.829   5.679   3.327  0.7854 -0.3970 -0.7655
  312MOL   H14244304   2.720   5.643   3.454  0.2288 -0.0443  0.0882
  313MOL     C144305   1.649   6.953   6.945  0.6856  0.2111  0.0396
  313MOL     C244306   1.581   7.080   6.994 -0.2444 -0.1247 -0.2379
  313MOL     C344307   1.681   7.184   7.012  0.3326 -0.7460  0.0434
  313MOL     N444308   1.760   7.272   7.027 -0.5223  0.1190 -0.4085
  313MOL     H544309   1.572   6.886   6.905  1.8095 -2.2728  1.9318
  313MOL     H644310   1.707   6.902   7.021 -0.4973 -0.4606  0.5189
  313MOL     H744311   1.536   7.054   7.090 -0.9397  2.4018  0.1627
  313MOL     H844312   1.721   6.976   6.866  1.2038 -3.8714 -0.8105
  313MOL     C944313   1.468   7.143   6.913  0.2173  0.0917  0.3009
  313MOL    C1044314   1.407   7.265   6.976  0.0929 -0.7647  0.0470
  313MOL    C1144315   1.295   7.298   6.885 -0.3137 -0.1608  0.6056
  313MOL    N1244316   1.209   7.319   6.809 -0.0740 -0.1357  0.4062
  313MOL    H1344317   1.503   7.170   6.813 -0.9675  1.5844  0.2756
  313MOL    H1444318   1.388   7.071   6.895  1.0284 -0.4082 -1.4785
  313MOL    H1544319   1.478   7.346   6.965  0.4110 -1.3047 -1.9681
  313MOL    C1644320   1.357   7.254   7.131 -0.6232 -0.6634  0.2450
  313MOL    C1744321   1.226   7.177   7.157 -0.5845 -0.4476 -0.1357
  313MOL    C1844322   1.230   7.038   7.119 -0.0810  0.1299  0.0520
  313MOL    N1944323   1.236   6.924   7.095  0.1378 -0.4204 -0.3391
  313MOL    H2044324   1.434   7.213   7.197 -0.8283  0.0757  0.9430
  313MOL    H2144325   1.346   7.361   7.148 -0.7989 -0.7122  0.4392
  313MOL    H2244326   1.159   7.221   7.083  0.8820  1.3319 -0.4294
  313MOL    C2344327   1.166   7.186   7.301 -0.4610  0.0441 -0.0109
  313MOL    C2444328   1.025   7.134   7.315  0.0079  0.0413  0.2571
  313MOL    C2544329   1.007   6.987   7.314  0.1748 -0.6745 -1.0363
  313MOL    N2644330   0.992   6.872   7.312  0.4972  0.0320  0.1688
  313MOL    H2744331   1.230   7.117   7.356 -0.1808  1.0174  0.9142
  313MOL    H2844332   1.176   7.289   7.336  0.9359 -0.3953  0.9306
  313MOL    H2944333   0.957   7.178   7.242 -0.1146 -0.0889  0.2913
  313MOL    C3044334   0.966   7.179   7.445  0.2177 -0.3605  0.0726
  313MOL    C3144335   0.814   7.176   7.463  0.2124  0.1092 -0.2062
  313MOL    C3244336   0.737   7.244   7.354  0.4179  0.1389 -0.4076
  313MOL    N3344337   0.675   7.299   7.275  0.4570  0.2406 -0.1461
  313MOL    H3444338   1.021   7.133   7.527  0.9165  1.9210  0.8961
  313MOL    H3544339   0.991   7.285   7.452 -0.1636 -0.3416  1.1498
  313MOL    H3644340   0.802   7.231   7.556  0.8699  1.5224 -0.9497
  313MOL    C3744341   0.745   7.045   7.493 -0.1329  0.4060  0.9512
  313MOL    C3844342   0.808   6.952   7.596 -0.5434  0.9564 -0.2426
  313MOL    C3944343   0.853   7.012   7.717 -0.7070  0.2501 -0.1210
  313MOL    N4044344   0.880   7.061   7.818 -0.0115  0.3860 -0.2619
  313MOL    H4144345   0.640   7.051   7.522  0.0379 -1.0854  1.8708
  313MOL    H4244346   0.741   6.995   7.396 -0.5738 -1.2323  1.7981
  313MOL    H4344347   0.906   6.920   7.560 -1.4525 -1.6818 -0.5362
  313MOL    C4444348   0.713   6.834   7.611  0.0023  0.2040  0.1868
  313MOL    C4544349   0.788   6.724   7.694  0.5501  0.7410 -0.6111
  313MOL    C4644350   0.685   6.654   7.771  0.3935  0.1075  1.0994
  313MOL    N4744351   0.602   6.599   7.828  0.1621  0.8570  0.1315
  313MOL    H4844352   0.634   6.875   7.674 -0.7092  0.5080 -0.8821
  313MOL    H4944353   0.669   6.801   7.517 -0.7544  0.7442  0.3422
  313MOL    H5044354   0.846   6.782   7.766 -0.9038  1.4188  0.0573
  313MOL    C5144355   0.873   6.607   7.632 -0.5925 -0.4269 -0.4919
  313MOL    C5244356   0.800   6.516   7.526 -0.0596  0.5181 -0.1531
  313MOL    C5344357   0.830   6.564   7.388  0.4610 -0.3894  0.4395
  313MOL    N5444358   0.857   6.600   7.281  0.0282 -0.2765 -0.2710
  313MOL    H5544359   0.958   6.641   7.572 -1.1529  0.6313 -0.6911
  313MOL    H5644360   0.919   6.550   7.712 -2.4247  0.8951  1.5353
  313MOL    H5744361   0.695   6.538   7.544 -0.8603  0.3140 -4.2405
  313MOL    C5844362   0.827   6.362   7.539  0.4551 -0.3711 -0.5867
  313MOL    C5944363   0.714   6.260   7.514  0.1822  0.9709  0.8419
  313MOL    C6044364   0.597   6.279   7.606  0.2954 -0.1736  0.1589
  313MOL    N6144365   0.510   6.287   7.679  0.0610 -0.1827 -0.3757
  313MOL    H6244366   0.903   6.322   7.472  0.5564 -1.1144 -0.0256
  313MOL    H6344367   0.871   6.335   7.635 -1.4150  0.0864  0.4302
  313MOL    H6444368   0.756   6.167   7.551  0.2292  0.6068 -0.1293
  313MOL    C6544369   0.673   6.259   7.358 -0.5261  0.2243 -0.8154
  313MOL    C6644370   0.661   6.118   7.312 -0.0088  0.0073  0.0376
  313MOL    C6744371   0.539   6.063   7.370  0.4777  0.0502  0.0439
  313MOL    N6844372   0.442   6.023   7.422 -0.1430 -0.2933  0.1334
  313MOL    H6944373   0.590   6.323   7.329  1.1823  2.8493 -0.0585
  313MOL    H7044374   0.758   6.299   7.303  0.8301 -0.1222  0.9505
  313MOL    H7144375   0.743   6.064   7.359 -1.1018 -2.1791 -0.5109
  313MOL    C7244376   0.676   6.112   7.154 -0.6083 -0.3588 -0.2194
  313MOL    C7344377   0.661   5.973   7.096 -0.0843 -0.0863  0.0150
  313MOL    C7444378   0.665   5.984   6.948  0.3018 -0.3439  0.5123
  313MOL    N7544379   0.657   5.992   6.830 -0.4970 -0.2434  0.0310
  313MOL    H7644380   0.595   6.169   7.109  1.4279  1.5765 -1.5621
  313MOL    H7744381   0.769   6.152   7.114 -0.8818  1.1000  0.5581
  313MOL    H7844382   0.561   5.934   7.111 -1.3447  1.7594 -3.1114
  313MOL    C7944383   0.776   5.889   7.159  0.0348 -0.7508 -0.0268
  313MOL    C8044384   0.790   5.745   7.111  0.2698 -0.8313  0.1808
  313MOL    C8144385   0.842   5.748   6.977 -0.2828 -0.2229 -0.5350
  313MOL    N8244386   0.887   5.741   6.873 -0.4463 -0.9033  0.1981
  313MOL    H8344387   0.871   5.940   7.141 -0.1203 -0.6532 -0.5952
  313MOL    H8444388   0.762   5.878   7.266 -1.9930  3.8296  0.3067
  313MOL    H8544389   0.695   5.698   7.087 -1.5092  2.2427  0.8779
  313MOL    C8644390   0.868   5.659   7.205  0.4079  0.4299 -0.2707
  313MOL    C8744391   0.895   5.509   7.175  0.1147 -0.4982 -0.6788
  313MOL    C8844392   0.984   5.480   7.066  0.3794  0.0866  0.4353
  313MOL    N8944393   1.062   5.454   6.983  0.5437  0.1078  0.2009
  313MOL    H9044394   0.964   5.710   7.212 -0.1378  1.4739 -0.2754
  313MOL    H9144395   0.817   5.672   7.301  1.5419  1.2568  0.2242
  313MOL    H9244396   0.800   5.458   7.158  0.7229 -1.7995 -0.1968
  313MOL    C9344397   0.946   5.426   7.291  0.1014  0.2571 -1.1929
  313MOL    C9444398   1.084   5.467   7.348  0.1546  0.1968  0.5010
  313MOL    C9544399   1.085   5.594   7.423 -0.2217  0.6295 -1.0502
  313MOL    N9644400   1.083   5.689   7.481  0.0079  0.3476  0.6601
  313MOL    H9744401   0.873   5.430   7.371  1.7841 -0.3714  0.4103
  313MOL    H9844402   0.957   5.325   7.253 -1.1590 -0.1691 -0.4231
  313MOL    H9944403   1.157   5.472   7.267  0.0064  0.6638  0.3940
  313MOL   C10044404   1.154   5.359   7.430 -0.0339  0.3972  0.1146
  313MOL   C10144405   1.084   5.332   7.565  0.6379  0.3730  0.2682
  313MOL   C10244406   0.988   5.222   7.536 -0.2187  0.6389 -0.4265
  313MOL   N10344407   0.909   5.139   7.521  0.0952 -0.0906  0.1615
  313MOL   H10444408   1.168   5.266   7.376 -1.6457 -1.3032  2.5059
  313MOL   H10544409   1.259   5.385   7.446  0.7643 -2.2382 -0.6456
  313MOL   H10644410   1.019   5.416   7.590 -0.5666 -0.8477  1.3246
  313MOL   C10744411   1.180   5.293   7.686 -0.1737 -0.3228 -0.3551
  313MOL   C10844412   1.217   5.146   7.711  0.2120  0.2237 -0.3108
  313MOL   C10944413   1.246   5.080   7.586  0.5383  0.5509  0.6242
  313MOL   N11044414   1.264   5.023   7.485  0.1705  0.0707 -0.1839
  313MOL   H11144415   1.274   5.346   7.677  0.1178 -1.1028 -2.0261
  313MOL   H11244416   1.133   5.321   7.781  1.5607  0.6520  0.2243
  313MOL   H11344417   1.130   5.094   7.750 -0.1504  0.8789 -0.2517
  313MOL   C11444418   1.325   5.122   7.811 -0.2814  0.4562 -0.4815
  313MOL   C11544419   1.317   4.998   7.895 -0.0904  0.4752 -0.6009
  313MOL   C11644420   1.362   4.878   7.817  0.7941  0.1158 -0.8811
  313MOL   N11744421   1.391   4.783   7.753 -0.1625 -0.0841 -0.4231
  313MOL   H11844422   1.418   5.115   7.755  1.7543 -0.1631  2.8328
  313MOL   H11944423   1.335   5.215   7.867  0.8298  2.1870 -3.4588
  313MOL   H12044424   1.213   4.982   7.922 -0.2120  2.6989  0.3539
  313MOL   C12144425   1.377   5.004   8.038 -0.5715  1.0310  0.3797
  313MOL   C12244426   1.335   5.132   8.114  0.1746  0.4638  0.7291
  313MOL   C12344427   1.194   5.158   8.100  0.5438  0.4533  0.2379
  313MOL   N12444428   1.079   5.176   8.082  0.0580 -0.3562  0.0380
  313MOL   H12544429   1.348   4.913   8.090 -0.0442  0.7924  0.2617
  313MOL   H12644430   1.486   4.996   8.034 -0.7081 -1.3420  0.6786
  313MOL   H12744431   1.394   5.212   8.069  0.0525 -0.4545 -1.0627
  313MOL   C12844432   1.380   5.132   8.259  0.2089 -0.3947 -0.3581
  313MOL   C12944433   1.311   5.231   0.043 -0.5349 -0.7408  0.4576
  313MOL   C13044434   1.358   5.196   0.177  0.1565 -0.2477  0.2538
  313MOL   N13144435   1.395   5.179   0.282  0.1883 -0.0148 -0.4933
  313MOL   H13244436   1.360   5.032   8.298 -2.3847  2.0693  5.1364
  313MOL   H13344437   1.488   5.142   8.273  0.2404  1.2897 -1.6205
  313MOL   H13444438   1.204   5.209   0.039 -0.4838 -0.7171 -2.8281
  313MOL   C13544439   1.343   5.380   0.008  0.2581  0.4538  0.3685
  313MOL   C13644440   1.493   5.415   8.300 -0.2068  0.1650  0.3516
  313MOL   C13744441   1.520   5.560   8.268 -0.2631  0.4183 -0.0299
  313MOL   N13844442   1.538   5.673   8.242 -0.5267  0.5889 -0.1554
  313MOL   H13944443   1.282   5.401   8.233  0.4162 -1.0344 -0.0973
  313MOL   H14044444   1.305   5.451   0.082 -1.0858  0.2653 -0.1282
  313MOL   H14144445   1.539   5.361   8.217  0.2386 -0.2841  0.8887
  313MOL   H14244446   1.543   5.392   0.082 -2.8167 -3.6144  0.9295
  314MOL     C144447   2.451   2.802   7.675 -0.0801  0.0311 -0.2342
  314MOL     C244448   2.458   2.649   7.663  1.2634 -0.1901 -0.7720
  314MOL     C344449   2.326   2.588   7.639 -0.6252  0.2347 -1.4008
  314MOL     N444450   2.221   2.539   7.628  0.5950 -0.5429  0.1434
  314MOL     H544451   2.383   2.839   7.752  0.3384 -0.1286  0.2165
  314MOL     H644452   2.415   2.857   7.588 -0.6285  0.3532  0.1929
  314MOL     H744453   2.494   2.596   7.751 -0.3100 -2.4584 -1.4556
  314MOL     H844454   2.547   2.839   7.711 -0.8966  1.5498  0.4317
  314MOL     C944455   2.547   2.601   7.551  0.4789 -0.3711  0.1326
  314MOL    C1044456   2.686   2.659   7.550 -0.6583  0.1146 -0.3691
  314MOL    C1144457   2.768   2.586   7.645  0.1690 -0.0843  0.3626
  314MOL    N1244458   2.840   2.526   7.720 -0.1206 -0.4190  0.2630
  314MOL    H1344459   2.551   2.493   7.570  2.1971 -0.7139 -1.8540
  314MOL    H1444460   2.489   2.621   7.461  0.4071 -3.3443 -0.5459
  314MOL    H1544461   2.685   2.758   7.596  0.3295  0.9959 -2.1758
  314MOL    C1644462   2.738   2.688   7.408 -0.5518 -0.1511 -0.2193
  314MOL    C1744463   2.783   2.559   7.327 -0.0948  0.3164 -0.4483
  314MOL    C1844464   2.905   2.502   7.388 -1.1869 -0.2695 -0.2618
  314MOL    N1944465   3.004   2.450   7.427  0.4905  0.0628 -0.3102
  314MOL    H2044466   2.664   2.752   7.358 -0.1580 -0.9578 -1.8596
  314MOL    H2144467   2.827   2.746   7.430 -1.2806  0.9041  0.0192
  314MOL    H2244468   2.817   2.600   7.232  0.5172 -0.6408 -0.6505
  314MOL    C2344469   2.664   2.459   7.306 -0.4102 -0.1356  0.2970
  314MOL    C2444470   2.679   2.374   7.172 -0.2077  0.0975  0.0347
  314MOL    C2544471   2.606   2.248   7.175  0.0996  0.0558  0.0219
  314MOL    N2644472   2.559   2.142   7.171  0.1007 -0.4284 -0.2221
  314MOL    H2744473   2.670   2.402   7.399 -0.2466  0.4841  0.6667
  314MOL    H2844474   2.563   2.493   7.328  0.2359 -0.1399  3.4853
  314MOL    H2944475   2.783   2.346   7.157  0.5431  2.2724  1.0539
  314MOL    C3044476   2.629   2.468   7.050 -0.6618 -0.4167  0.0210
  314MOL    C3144477   2.690   2.433   6.911  0.3706  0.2235 -0.2572
  314MOL    C3244478   2.692   2.286   6.881 -0.1432 -0.6329 -0.2398
  314MOL    N3344479   2.698   2.175   6.859  0.2841  1.2631  0.0287
  314MOL    H3444480   2.523   2.445   7.038 -0.3444 -1.0114 -1.9841
  314MOL    H3544481   2.655   2.569   7.080 -0.6090 -0.4340  0.0346
  314MOL    H3644482   2.798   2.445   6.920  0.0783  1.3993  2.0788
  314MOL    C3744483   2.638   2.516   6.795  0.3003 -0.0617  0.5685
  314MOL    C3844484   2.513   2.465   6.714 -0.3029  0.2512  0.2122
  314MOL    C3944485   2.387   2.441   6.797  0.1948 -0.3503  0.3820
  314MOL    N4044486   2.294   2.423   6.863 -0.1503 -0.0979 -0.5861
  314MOL    H4144487   2.623   2.620   6.825 -0.3486  0.4815 -1.5772
  314MOL    H4244488   2.723   2.520   6.728 -1.9042  0.9492 -2.2379
  314MOL    H4344489   2.536   2.364   6.679 -1.7906  0.3923 -1.2250
  314MOL    C4444490   2.481   2.554   6.587 -0.0527 -0.1994  0.1751
  314MOL    C4544491   2.423   2.469   6.469 -0.3766 -0.0833  0.3932
  314MOL    C4644492   2.275   2.440   6.494 -0.5957 -0.1193 -0.5835
  314MOL    N4744493   2.166   2.405   6.520  0.0267 -0.4215 -0.4581
  314MOL    H4844494   2.419   2.638   6.616  0.3256  1.2249 -2.9294
  314MOL    H4944495   2.575   2.603   6.563 -0.6064  0.3521 -0.9083
  314MOL    H5044496   2.461   2.368   6.471 -2.5292 -0.9266  0.5949
  314MOL    C5144497   2.441   2.535   6.333  0.0198 -0.9101 -0.1128
  314MOL    C5244498   2.567   2.492   6.254  0.0456  0.3765  0.1007
  314MOL    C5344499   2.689   2.526   6.330  0.2643  0.0220  0.5090
  314MOL    N5444500   2.787   2.547   6.386  0.4894 -0.1748 -0.3483
  314MOL    H5544501   2.348   2.522   6.278  1.4389 -2.6210 -2.2276
  314MOL    H5644502   2.459   2.641   6.354 -0.6288 -0.7306 -0.4742
  314MOL    H5744503   2.574   2.556   6.166  2.8361 -0.2697 -0.1675
  314MOL    C5844504   2.551   2.349   6.207 -0.2615  0.0013  0.2049
  314MOL    C5944505   2.675   2.299   6.135  0.4087 -0.2518  0.0419
  314MOL    C6044506   2.658   2.157   6.120 -0.3951  0.7332 -0.2310
  314MOL    N6144507   2.645   2.040   6.107  0.3616 -0.2717 -0.3271
  314MOL    H6244508   2.529   2.277   6.286  2.4614 -0.4668  0.6049
  314MOL    H6344509   2.464   2.340   6.143  0.9857 -0.3048 -1.4720
  314MOL    H6444510   2.763   2.313   6.198  0.9977  1.0648 -1.0481
  314MOL    C6544511   2.708   2.362   6.004  0.6124 -0.2247 -0.0783
  314MOL    C6644512   2.826   2.302   5.930  0.4455 -0.0410  0.2241
  314MOL    C6744513   2.791   2.169   5.872 -0.0014 -0.3463 -0.3287
  314MOL    N6844514   2.774   2.063   5.827 -0.6642 -0.0960 -0.4932
  314MOL    H6944515   2.618   2.343   5.945  0.3463 -0.7121  0.4714
  314MOL    H7044516   2.734   2.464   6.034 -0.9095 -0.2011  1.2972
  314MOL    H7144517   2.907   2.282   6.000 -0.8356  0.3853  1.8593
  314MOL    C7244518   2.899   2.391   5.830 -0.0733 -0.2239 -0.1442
  314MOL    C7344519   2.830   2.407   5.698  0.1549 -0.2046 -0.1591
  314MOL    C7444520   2.695   2.463   5.713  0.4411  0.1811  0.2709
  314MOL    N7544521   2.592   2.510   5.730 -0.3900  0.2288  0.2553
  314MOL    H7644522   2.926   2.490   5.866  1.8949  0.2136 -2.7053
  314MOL    H7744523   3.000   2.351   5.825 -0.1992 -0.8811  1.9485
  314MOL    H7844524   2.825   2.310   5.648 -2.4996 -1.1820  1.8874
  314MOL    C7944525   2.911   2.502   5.604  0.3404 -0.0854 -0.1036
  314MOL    C8044526   3.034   2.450   5.534  0.3324  0.3080 -0.6470
  314MOL    C8144527   2.998   2.335   5.456 -0.1801  0.4240  0.5227
  314MOL    N8244528   2.973   2.245   5.391 -0.3069  0.7122 -0.2426
  314MOL    H8344529   2.846   2.532   5.521 -0.8598 -1.2489  0.3951
  314MOL    H8444530   2.934   2.597   5.652  0.3632  1.2808 -2.7449
  314MOL    H8544531   3.092   2.413   5.618 -0.6513  0.0142 -0.0891
  314MOL    C8644532   3.116   2.551   5.448 -0.0904  0.5658  0.0652
  314MOL    C8744533   3.247   2.486   5.382 -0.5901 -0.0312  0.1153
  314MOL    C8844534   3.315   2.587   5.307  0.8436  0.5001  0.7574
  314MOL    N8944535   3.372   2.670   5.246  0.1765 -0.2795 -0.2682
  314MOL    H9044536   3.051   2.599   5.375  0.0256 -0.3645 -0.6609
  314MOL    H9144537   3.150   2.624   5.521  0.6706  1.5902 -1.3107
  314MOL    H9244538   3.203   2.420   5.307 -2.1206 -0.1180  1.0611
  314MOL    C9344539   3.341   2.413   5.489  0.5204  0.6888 -0.0009
  314MOL    C9444540   3.436   2.308   5.438 -0.4860 -0.0017 -0.8562
  314MOL    C9544541   3.534   2.281   5.550 -0.1005  0.2143  0.7484
  314MOL    N9644542   3.617   2.255   5.635 -0.1817  0.1475  0.5938
  314MOL    H9744543   3.393   2.493   5.541 -1.5267  1.1870  1.3244
  314MOL    H9844544   3.284   2.368   5.570 -0.2458  0.3898 -0.7021
  314MOL    H9944545   3.474   2.364   5.353  1.3174 -1.8878 -1.3223
  314MOL   C10044546   3.362   2.178   5.379  0.8386 -0.7776  0.6550
  314MOL   C10144547   3.312   2.071   5.478 -0.5418  0.2873 -0.0303
  314MOL   C10244548   3.219   2.127   5.584  0.3396 -0.0498 -0.1780
  314MOL   N10344549   3.141   2.167   5.663 -0.7750 -0.1461  0.0731
  314MOL   H10444550   3.275   2.221   5.328  1.8208  0.8133  0.2912
  314MOL   H10544551   3.425   2.132   5.303 -1.4307 -0.9743 -1.1728
  314MOL   H10644552   3.403   2.040   5.529 -0.3112  1.7839  0.4917
  314MOL   C10744553   3.239   1.957   5.411 -0.6746  0.0709 -0.0497
  314MOL   C10844554   3.204   1.829   5.488 -0.1518  0.2104  0.3317
  314MOL   C10944555   3.300   1.800   5.595  0.5832  0.0563  0.7248
  314MOL   N11044556   3.381   1.785   5.677  0.6770 -0.6702 -0.2973
  314MOL   H11144557   3.154   1.991   5.352  1.4404  4.8629 -0.6179
  314MOL   H11244558   3.307   1.907   5.342 -1.4851  1.9106 -2.2465
  314MOL   H11344559   3.192   1.734   5.436 -0.7681  0.0990  0.6744
  314MOL   C11444560   3.077   1.842   5.570  0.1297  0.2527  0.2285
  314MOL   C11544561   2.946   1.838   5.487 -0.4054 -0.2761  0.2380
  314MOL   C11644562   2.949   1.709   5.418 -0.4694 -0.4757 -0.0163
  314MOL   N11744563   2.954   1.607   5.359  0.0491  0.7178 -0.4310
  314MOL   H11844564   3.073   1.760   5.641 -1.3569  0.6705  0.6331
  314MOL   H11944565   3.075   1.929   5.635  1.1638 -1.2746  2.3746
  314MOL   H12044566   2.960   1.912   5.408 -0.0524 -1.9711 -1.3022
  314MOL   C12144567   2.822   1.889   5.558 -0.1215 -0.0436  0.6664
  314MOL   C12244568   2.699   1.885   5.463  0.1636  0.3274  0.4001
  314MOL   C12344569   2.637   1.750   5.446  0.0497 -0.4877 -0.8126
  314MOL   N12444570   2.588   1.644   5.422 -0.7083 -0.8650 -0.0750
  314MOL   H12544571   2.798   1.826   5.644  1.0526  1.5511  2.2108
  314MOL   H12644572   2.840   1.990   5.597 -0.3062 -0.7921  2.7679
  314MOL   H12744573   2.733   1.919   5.366  2.2266 -1.0762  0.6117
  314MOL   C12844574   2.591   1.987   5.513 -0.1502 -0.6933  0.1172
  314MOL   C12944575   2.620   2.131   5.481  0.4079 -0.5821  0.4572
  314MOL   C13044576   2.649   2.153   5.334  0.2792 -0.9375  0.2555
  314MOL   N13144577   2.662   2.170   5.220 -0.3862 -0.1051 -0.2031
  314MOL   H13244578   2.503   1.962   5.453 -0.5217  0.6051  0.1098
  314MOL   H13344579   2.586   1.975   5.621 -3.7042  0.6577  0.1740
  314MOL   H13444580   2.712   2.139   5.539  0.0560 -1.3942  1.1362
  314MOL   C13544581   2.511   2.220   5.544 -0.1391 -0.5466  0.2486
  314MOL   C13644582   2.383   2.230   5.456  0.1773 -0.0675  0.0723
  314MOL   C13744583   2.264   2.266   5.525 -0.2765 -0.4349  0.1913
  314MOL   N13844584   2.164   2.294   5.581  1.3660 -0.1107 -0.0438
  314MOL   H13944585   2.478   2.171   5.635  1.5603 -0.3189  1.0045
  314MOL   H14044586   2.552   2.319   5.562  0.6354 -0.7572 -0.3011
  314MOL   H14144587   2.371   2.136   5.402 -1.4627 -0.3040  0.8591
  314MOL   H14244588   2.407   2.304   5.379  0.7631  0.5965  0.8836
  315MOL     C144589   7.110   0.036   8.117 -0.1471  0.5221  0.0686
  315MOL     C244590   7.105   0.068   7.966 -0.0859 -0.5118 -0.0787
  315MOL     C344591   7.226   0.131   7.907 -0.4584 -0.1622 -0.3339
  315MOL     N444592   7.321   0.180   7.864  0.6396  0.6662 -0.5597
  315MOL     H544593   7.136   0.125   8.174 -0.3516 -0.1096  1.1681
  315MOL     H644594   7.175   8.261   8.126 -1.3232 -0.4484 -0.6616
  315MOL     H744595   7.018   0.132   7.951  1.7853  1.4652 -2.9155
  315MOL     H844596   7.008   0.010   8.145 -0.0831 -0.7671 -0.8289
  315MOL     C944597   7.056   8.247   7.897 -0.2464  0.3927 -0.1415
  315MOL    C1044598   7.055   8.245   7.742  0.2132 -0.1770 -0.3144
  315MOL    C1144599   7.027   8.112   7.698  0.1361 -0.4855 -0.8620
  315MOL    N1244600   7.013   8.003   7.661  0.0280  0.4337  0.0324
  315MOL    H1344601   7.117   8.164   7.934 -2.3080 -1.2789 -0.4182
  315MOL    H1444602   6.959   8.215   7.934 -0.8410 -0.0129 -1.9872
  315MOL    H1544603   7.154   8.266   7.702 -0.3984  2.6441 -0.4178
  315MOL    C1644604   6.946   0.029   7.685 -0.1580  0.5565  0.2804
  315MOL    C1744605   6.959   0.069   7.540  0.1174 -0.2127  0.1581
  315MOL    C1844606   7.098   0.101   7.496 -0.1034  0.5996 -0.5846
  315MOL    N1944607   7.206   0.127   7.467  0.2469  0.3202  0.7935
  315MOL    H2044608   6.846   8.303   7.704  0.2715 -0.8443 -0.2471
  315MOL    H2144609   6.948   0.124   7.739  3.3758 -0.6509  2.3938
  315MOL    H2244610   6.906   0.164   7.541 -1.1442 -0.8775 -0.9313
  315MOL    C2344611   6.875   8.293   7.440  0.2588 -0.4707  0.9946
  315MOL    C2444612   6.804   0.064   7.323 -0.2498 -0.0947  0.3868
  315MOL    C2544613   6.896   0.152   7.258  0.6250  0.3504  0.6128
  315MOL    N2644614   6.968   0.226   7.208  0.2507  0.5985 -0.3242
  315MOL    H2744615   6.938   8.216   7.397 -0.0886 -0.0586 -0.2736
  315MOL    H2844616   6.789   8.247   7.489 -1.1414  1.5912  0.5820
  315MOL    H2944617   6.737   0.133   7.374 -1.1829  0.7443 -1.9385
  315MOL    C3044618   6.729   8.287   7.228 -0.4403  0.3435  0.3594
  315MOL    C3144619   6.654   0.048   7.115 -0.1375 -0.1400 -0.5516
  315MOL    C3244620   6.755   0.093   7.013  0.0702 -0.5245 -0.4299
  315MOL    N3344621   6.834   0.124   6.935  0.3965 -0.1647  0.0604
  315MOL    H3444622   6.787   8.205   7.186 -0.5528  0.2294  0.4274
  315MOL    H3544623   6.660   8.224   7.285 -0.9612  0.2455 -0.3637
  315MOL    H3644624   6.611   0.142   7.150 -0.1397 -1.7954  4.2628
  315MOL    C3744625   6.543   8.280   7.039 -0.1853 -0.4373  0.7228
  315MOL    C3844626   6.419   8.249   7.123 -0.4643  0.5200 -0.0481
  315MOL    C3944627   6.407   0.049   7.213  0.1793  0.5887  0.4833
  315MOL    N4044628   6.389   0.140   7.284  0.2838  0.4141  0.7686
  315MOL    H4144629   6.508   0.028   6.955 -0.7589 -1.0846  0.4877
  315MOL    H4244630   6.588   8.187   7.005 -3.4998 -2.7909  2.4209
  315MOL    H4344631   6.434   8.158   7.181  0.2397  0.4686 -0.3104
  315MOL    C4444632   6.292   8.219   7.037 -0.3267 -0.9825  0.0164
  315MOL    C4544633   6.193   8.117   7.100 -0.8509  0.2253  0.3684
  315MOL    C4644634   6.152   8.151   7.243  0.6632  0.1875  0.2989
  315MOL    N4744635   6.118   8.176   7.350 -0.5698 -0.5927 -0.2561
  315MOL    H4844636   6.240   8.311   7.008  1.2116  0.1098  0.6419
  315MOL    H4944637   6.331   8.183   6.941 -0.2122 -0.2277 -0.2246
  315MOL    H5044638   6.251   8.026   7.115  0.6147  1.0600 -0.1167
  315MOL    C5144639   6.081   8.085   7.002  0.0352 -0.0119  0.7166
  315MOL    C5244640   5.968   7.992   7.059 -0.4243  0.0425 -0.7598
  315MOL    C5344641   6.014   7.876   7.133 -1.1881 -0.1553  0.6297
  315MOL    N5444642   6.047   7.779   7.191  0.4642  0.5379 -0.1872
  315MOL    H5544643   6.023   8.168   6.963 -1.7427 -1.2899  0.5631
  315MOL    H5644644   6.125   8.046   6.910 -0.5067 -0.4082  0.6213
  315MOL    H5744645   5.924   7.945   6.972  1.5621 -0.5212 -1.5014
  315MOL    C5844646   5.855   8.069   7.138  0.5275 -0.8171 -0.6095
  315MOL    C5944647   5.712   8.017   7.126  0.2909 -0.8862 -0.1947
  315MOL    C6044648   5.709   7.883   7.188  0.0947  0.2028  0.0746
  315MOL    N6144649   5.701   7.777   7.233  0.0913  0.2905  0.0772
  315MOL    H6244650   5.882   8.085   7.242  0.0315 -0.9934 -0.4508
  315MOL    H6344651   5.856   8.163   7.084  1.0571 -1.3149 -1.4757
  315MOL    H6444652   5.689   8.008   7.019 -0.2548 -0.5501 -0.1061
  315MOL    C6544653   5.616   8.119   7.187  0.4563 -0.1329 -0.2532
  315MOL    C6644654   5.470   8.081   7.173  0.2576 -0.2488 -0.3070
  315MOL    C6744655   5.427   7.992   7.282  0.4998  0.0988  0.4595
  315MOL    N6844656   5.387   7.923   7.371  0.1082 -0.2255  0.4895
  315MOL    H6944657   5.631   8.135   7.294 -2.1690  0.8887  0.0246
  315MOL    H7044658   5.618   8.216   7.138  0.2640  0.2491  0.4698
  315MOL    H7144659   5.462   8.020   7.083  1.0039 -1.6374  0.5437
  315MOL    C7244660   5.370   8.201   7.156 -0.4603  0.3687 -0.7356
  315MOL    C7344661   5.243   8.158   7.080 -0.5850  0.0226  0.2148
  315MOL    C7444662   5.157   8.058   7.147  0.2721  0.5323 -0.1879
  315MOL    N7544663   5.094   7.981   7.204  0.4448  0.4997 -0.2412
  315MOL    H7644664   5.342   8.263   7.241 -0.1944  0.1578 -0.4915
  315MOL    H7744665   5.419   8.276   7.094 -1.5286  2.0208  0.3544
  315MOL    H7844666   5.273   8.093   6.998 -0.9862  1.3448 -0.9928
  315MOL    C7944667   5.154   8.273   7.021 -0.3171 -0.0866 -0.0487
  315MOL    C8044668   5.046   8.226   6.922  0.2761 -0.1750 -0.0183
  315MOL    C8144669   4.937   8.147   6.984  1.2238 -0.5688  0.3065
  315MOL    N8244670   4.847   8.091   7.027  0.2580 -0.0871  0.2566
  315MOL    H8344671   5.117   0.025   7.101 -0.1847  2.0392 -1.6565
  315MOL    H8444672   5.210   0.038   6.968 -1.8778  1.1905  0.1239
  315MOL    H8544673   5.091   8.168   6.842 -1.1473  0.9154 -1.6454
  315MOL    C8644674   4.972   0.028   6.840 -0.2088  0.5713 -0.4269
  315MOL    C8744675   4.939   8.295   6.690 -0.4149  0.3693  0.4115
  315MOL    C8844676   5.064   8.285   6.614  0.7042 -0.7436 -0.3366
  315MOL    N8944677   5.166   8.280   6.557  0.3793 -0.0469  0.8088
  315MOL    H9044678   4.887   0.059   6.901 -1.4216 -0.1434 -1.7153
  315MOL    H9144679   5.036   0.115   6.835 -0.6862  1.0152  0.8112
  315MOL    H9244680   4.890   0.061   6.634 -0.1228  0.6796  0.5866
  315MOL    C9344681   4.851   8.171   6.678 -0.3745  0.7935  0.0035
  315MOL    C9444682   4.714   8.182   6.739  0.1697  0.3210  0.3348
  315MOL    C9544683   4.640   8.292   6.681 -0.3077 -0.3491 -0.2019
  315MOL    N9644684   4.577   0.055   6.625  0.2281 -0.3605  0.3301
  315MOL    H9744685   4.849   8.146   6.572  0.0997  0.9278 -0.0398
  315MOL    H9844686   4.903   8.088   6.725  0.0613 -0.4867 -2.6262
  315MOL    H9944687   4.722   8.227   6.838  0.0672 -0.0567  0.5140
  315MOL   C10044688   4.626   8.046   6.732 -0.1932 -0.2433  0.2661
  315MOL   C10144689   4.491   8.041   6.807 -0.3986  0.1212 -1.0686
  315MOL   C10244690   4.413   7.928   6.747 -0.0380  0.2535 -0.3337
  315MOL   N10344691   4.356   7.840   6.691  0.3556 -0.5293  0.5318
  315MOL   H10444692   4.603   8.020   6.629 -1.2922 -1.3211  0.7724
  315MOL   H10544693   4.681   7.962   6.774 -0.0253 -1.9166 -3.1063
  315MOL   H10644694   4.450   8.142   6.792 -0.0778  0.4589  0.2902
  315MOL   C10744695   4.505   8.029   6.956  0.2573  0.0108 -0.5876
  315MOL   C10844696   4.379   8.027   7.040  0.5024  0.3082  0.5836
  315MOL   C10944697   4.411   8.040   7.181 -0.0606  0.0992 -0.7349
  315MOL   N11044698   4.448   8.061   7.289 -0.1447 -0.1608 -0.4808
  315MOL   H11144699   4.555   7.933   6.968  1.5398  0.3435 -3.0071
  315MOL   H11244700   4.574   8.105   6.991  0.4705 -0.4924  0.0941
  315MOL   H11344701   4.347   7.924   7.023 -1.2106  0.4647  2.6941
  315MOL   C11444702   4.256   8.120   7.010 -0.1789 -0.0827  0.1071
  315MOL   C11544703   4.264   8.264   7.061 -0.3762  0.0055  0.0316
  315MOL   C11644704   4.374   0.014   6.984 -0.5933 -0.4913 -0.0145
  315MOL   N11744705   4.455   0.071   6.922  0.2094 -0.2755  0.0276
  315MOL   H11844706   4.226   8.112   6.906  1.5248 -0.1476 -0.3805
  315MOL   H11944707   4.172   8.076   7.064  1.1597 -0.4252  1.9703
  315MOL   H12044708   4.285   8.281   7.167  2.0239  1.9842 -0.7234
  315MOL   C12144709   4.133   0.023   7.018  0.2720 -0.0944  0.3601
  315MOL   C12244710   4.006   8.284   7.092  0.8021  0.7032  0.2872
  315MOL   C12344711   4.025   0.011   7.236  0.1979  0.6829 -0.3031
  315MOL   N12444712   4.039   0.037   7.345  0.3696 -0.2693 -0.0932
  315MOL   H12544713   4.137   0.131   7.031  0.3974  0.0681 -0.9554
  315MOL   H12644714   4.140   0.014   6.909  2.5586  1.4563  0.3492
  315MOL   H12744715   3.999   8.176   7.082  1.7638  0.4061  2.3903
  315MOL   C12844716   3.872   0.012   7.020  0.6722 -0.0070 -0.0464
  315MOL   C12944717   3.857   8.286   6.872  0.4945  0.6602  0.3395
  315MOL   C13044718   3.886   8.140   6.836  1.3003  0.1466 -0.1961
  315MOL   N13144719   3.901   8.029   6.813 -0.2095 -0.6582  0.4042
  315MOL   H13244720   3.782   8.293   7.073  0.2976  0.7435 -0.2256
  315MOL   H13344721   3.887   0.120   7.023  0.1586  0.2384 -3.7384
  315MOL   H13444722   3.922   0.036   6.811  0.5865 -0.1666 -0.4028
  315MOL   C13544723   3.709   8.302   6.837  0.2998  0.0759 -0.2457
  315MOL   C13644724   3.674   0.139   6.835  0.1186 -0.2997 -0.3803
  315MOL   C13744725   3.541   0.174   6.775 -0.3261  0.1240  0.0880
  315MOL   N13844726   3.435   0.192   6.729  0.0795 -0.3370  0.7717
  315MOL   H13944727   3.704   8.259   6.737 -0.4152 -1.3277  0.3866
  315MOL   H14044728   3.640   8.239   6.892  0.6343 -0.2596 -0.2076
  315MOL   H14144729   3.733   0.200   6.767 -2.2025 -1.9689 -4.0383
  315MOL   H14244730   3.683   0.185   6.933 -1.1258  0.6728 -0.7166
  316MOL     C144731   1.881   1.934   8.050  0.1162  0.2876 -1.4061
  316MOL     C244732   1.825   1.791   8.100 -0.5106 -0.1648  0.0023
  316MOL     C344733   1.691   1.803   8.158 -1.1179  0.0006  1.1345
  316MOL     N444734   1.587   1.807   8.198  0.1881 -0.0155  0.1899
  316MOL     H544735   1.896   1.992   8.141 -2.0983  1.0477 -1.5058
  316MOL     H644736   1.805   1.974   7.983  0.1180  0.7756 -1.1199
  316MOL     H744737   1.885   1.755   8.184 -0.3970 -0.5503 -0.2368
  316MOL     H844738   1.985   1.928   8.017  0.5016  1.0372 -0.3228
  316MOL     C944739   1.833   1.689   7.977  0.2656 -0.6917  0.0214
  316MOL    C1044740   1.972   1.669   7.908  0.4142 -1.0368  0.0935
  316MOL    C1144741   2.069   1.608   7.998 -0.4630 -0.1648 -0.1970
  316MOL    N1244742   2.145   1.567   8.077  0.5800 -0.1897 -0.0382
  316MOL    H1344743   1.778   1.597   7.999  2.1115 -1.4928  1.3606
  316MOL    H1444744   1.765   1.726   7.900  1.1530 -0.3335 -0.5922
  316MOL    H1544745   2.003   1.766   7.870  0.6663 -0.2917  2.1506
  316MOL    C1644746   1.937   1.569   7.794 -0.1163 -0.5388  0.1516
  316MOL    C1744747   2.050   1.569   7.683 -0.5595  0.3318 -0.1204
  316MOL    C1844748   2.161   1.498   7.744 -0.9227  0.6995 -0.6915
  316MOL    N1944749   2.253   1.439   7.783  0.4192 -0.1195  0.1827
  316MOL    H2044750   1.933   1.464   7.824 -0.8178 -0.2351  1.1260
  316MOL    H2144751   1.838   1.592   7.755 -0.6123  1.6521  2.6015
  316MOL    H2244752   2.088   1.668   7.659 -1.5466  0.9548  0.8328
  316MOL    C2344753   2.009   1.488   7.549  0.1824  0.9326  0.6152
  316MOL    C2444754   1.897   1.545   7.462  0.0927 -0.1409  0.0949
  316MOL    C2544755   1.930   1.688   7.435 -0.2799  0.1904  0.0452
  316MOL    N2644756   1.965   1.796   7.422  0.0550 -0.0015 -0.2199
  316MOL    H2744757   2.093   1.485   7.480  1.1984  2.0145  1.7720
  316MOL    H2844758   1.985   1.387   7.582 -1.9941  1.3095  0.2257
  316MOL    H2944759   1.809   1.551   7.526  1.3132  2.3858  1.6020
  316MOL    C3044760   1.876   1.471   7.330 -0.6240 -0.0458  0.1472
  316MOL    C3144761   1.756   1.525   7.244  0.1692 -0.5407 -0.6638
  316MOL    C3244762   1.797   1.630   7.152 -0.5038 -0.0957 -0.2381
  316MOL    N3344763   1.827   1.707   7.075 -0.9301  0.4177 -0.2901
  316MOL    H3444764   1.962   1.466   7.263  0.3158  2.2569  1.1545
  316MOL    H3544765   1.865   1.367   7.359 -2.2229 -0.0634 -0.4452
  316MOL    H3644766   1.687   1.583   7.305  2.7554 -0.7180  2.5310
  316MOL    C3744767   1.673   1.410   7.185 -0.1426 -0.3808 -0.2326
  316MOL    C3844768   1.565   1.445   7.072  0.1534 -0.1367 -0.0531
  316MOL    C3944769   1.524   1.333   6.991 -0.4535 -0.5111  0.2574
  316MOL    N4044770   1.490   1.247   6.933  0.0196  0.1081 -0.3271
  316MOL    H4144771   1.753   1.345   7.148  0.8903  1.1879 -0.8169
  316MOL    H4244772   1.629   1.351   7.265 -1.9159  1.1244 -0.0789
  316MOL    H4344773   1.619   1.510   7.003 -0.8644 -0.6079 -1.3247
  316MOL    C4444774   1.446   1.538   7.122  0.1852  0.5379  0.1485
  316MOL    C4544775   1.316   1.473   7.180  0.6532  0.6188  0.0854
  316MOL    C4644776   1.341   1.398   7.305 -0.4495  0.2627 -0.1661
  316MOL    N4744777   1.367   1.347   7.406 -0.2010 -0.8313  0.2181
  316MOL    H4844778   1.487   1.611   7.192  0.0267 -2.1970  3.2272
  316MOL    H4944779   1.410   1.590   7.033 -1.0225  1.4899  1.1758
  316MOL    H5044780   1.298   1.389   7.112  1.3858  0.3963  0.1626
  316MOL    C5144781   1.198   1.573   7.210 -0.0940  0.2498  0.1631
  316MOL    C5244782   1.128   1.646   7.092 -0.4323 -0.0968 -1.3792
  316MOL    C5344783   1.143   1.569   6.970  0.6030  0.6611  0.1669
  316MOL    N5444784   1.154   1.510   6.874 -0.1415  0.1662  0.0155
  316MOL    H5544785   1.130   1.513   7.270 -1.1234  0.5428 -0.6924
  316MOL    H5644786   1.235   1.645   7.282 -0.2498 -0.1253  0.6167
  316MOL    H5744787   1.192   1.734   7.085 -1.5208  0.9509  1.2240
  316MOL    C5844788   0.986   1.692   7.128 -0.5086 -0.2260 -0.0724
  316MOL    C5944789   0.913   1.778   7.023 -0.0177  0.3622  0.3211
  316MOL    C6044790   1.006   1.875   6.958  0.5554  0.2984 -0.2168
  316MOL    N6144791   1.073   1.955   6.909 -0.2523  0.2005 -0.3249
  316MOL    H6244792   0.927   1.601   7.142 -1.4923  0.2269 -1.1365
  316MOL    H6344793   0.989   1.742   7.224 -3.0091  0.2420 -0.1863
  316MOL    H6444794   0.837   1.836   7.076 -0.1137  0.9894 -0.4977
  316MOL    C6544795   0.842   1.687   6.916  0.1054 -0.0647  0.9014
  316MOL    C6644796   0.726   1.754   6.833 -0.0941  0.0368 -0.1181
  316MOL    C6744797   0.619   1.791   6.922 -0.4147 -0.0400 -0.7687
  316MOL    N6844798   0.530   1.822   6.985 -0.1827  0.0556  0.3056
  316MOL    H6944799   0.912   1.643   6.845 -0.8230  1.2474 -0.8516
  316MOL    H7044800   0.804   1.596   6.963  0.8993 -0.4764  0.7512
  316MOL    H7144801   0.682   1.673   6.775 -0.9003 -1.8818  3.0572
  316MOL    C7244802   0.776   1.877   6.748 -0.5103 -0.5459 -0.2425
  316MOL    C7344803   0.694   1.922   6.624  0.2084 -0.7093 -0.9440
  316MOL    C7444804   0.550   1.940   6.666 -0.0725 -0.7965  0.3140
  316MOL    N7544805   0.439   1.958   6.694  0.3362  0.2713  0.2490
  316MOL    H7644806   0.791   1.961   6.815 -1.9469 -1.5157  1.3241
  316MOL    H7744807   0.875   1.854   6.708  0.0911  1.4757  0.0487
  316MOL    H7844808   0.686   1.844   6.548 -0.4262 -0.2130 -1.3872
  316MOL    C7944809   0.759   2.043   6.553  0.0460 -0.6021  0.0291
  316MOL    C8044810   0.695   2.181   6.578 -0.7089 -0.6694  0.4808
  316MOL    C8144811   0.733   2.245   6.706 -0.5244  0.3942  0.1958
  316MOL    N8244812   0.763   2.300   6.799  0.7151  0.4916 -0.4109
  316MOL    H8344813   0.867   2.049   6.570  0.1018 -0.7348 -0.2675
  316MOL    H8444814   0.756   2.027   6.445  3.7370 -2.5261  0.1357
  316MOL    H8544815   0.589   2.170   6.604 -1.7148  4.7601 -0.7985
  316MOL    C8644816   0.696   2.280   6.460  0.2731 -0.0717  0.3001
  316MOL    C8744817   0.836   2.336   6.422 -0.6415  0.0662  0.4374
  316MOL    C8844818   0.914   2.233   6.352  0.1869  0.3825  0.2618
  316MOL    N8944819   0.977   2.161   6.295  0.0379  0.1634 -0.5298
  316MOL    H9044820   0.645   2.239   6.374  1.4977 -3.0531  0.9050
  316MOL    H9144821   0.637   2.365   6.495 -0.6996 -0.4519 -0.4069
  316MOL    H9244822   0.887   2.362   6.514 -2.0980  2.4080  0.6418
  316MOL    C9344823   0.825   2.455   6.328  0.2137  0.3947  0.1822
  316MOL    C9444824   0.755   2.579   6.392  0.2531  0.1302 -0.0275
  316MOL    C9544825   0.821   2.609   6.521 -0.0306 -0.6673 -0.1057
  316MOL    N9644826   0.870   2.635   6.622 -0.1515 -0.1268  0.1378
  316MOL    H9744827   0.914   2.486   6.275 -0.9541  1.1784 -1.3717
  316MOL    H9844828   0.765   2.417   6.244 -0.2182  2.9312 -0.6929
  316MOL    H9944829   0.654   2.543   6.413 -0.4712 -0.1875 -3.7299
  316MOL   C10044830   0.753   2.700   6.293  0.4731  0.8636 -0.2215
  316MOL   C10144831   0.690   2.678   6.154 -0.5062  0.1334 -0.4240
  316MOL   C10244832   0.561   2.617   6.165  0.4750  0.5674  0.0599
  316MOL   N10344833   0.458   2.569   6.176  0.9076 -0.3294 -0.3032
  316MOL   H10444834   0.718   2.791   6.341  1.1338  0.6326  0.7097
  316MOL   H10544835   0.857   2.724   6.268  1.1525 -0.4817  1.2441
  316MOL   H10644836   0.738   2.599   6.097 -2.3818 -1.1416 -0.2940
  316MOL   C10744837   0.669   2.799   6.062  0.3394  0.2097  0.2552
  316MOL   C10844838   0.617   2.771   5.919  0.4564  0.0788  0.2166
  316MOL   C10944839   0.466   2.768   5.923  0.2400 -0.3085 -0.6198
  316MOL   N11044840   0.350   2.768   5.927  0.0016 -0.2258  0.5736
  316MOL   H11144841   0.592   2.850   6.119 -0.3403  0.2525 -0.6882
  316MOL   H11244842   0.758   2.861   6.071  0.6393 -0.1388 -0.2714
  316MOL   H11344843   0.636   2.674   5.874 -1.4267 -0.3949  0.3896
  316MOL   C11444844   0.661   2.881   5.816 -0.5707  0.0795  0.2792
  316MOL   C11544845   0.805   2.878   5.770  0.1802  0.1840 -0.6257
  316MOL   C11644846   0.845   2.751   5.708  0.3359  0.4811  0.5100
  316MOL   N11744847   0.869   2.654   5.654 -0.1704  0.1130 -0.0183
  316MOL   H11844848   0.599   2.879   5.726 -0.4133  2.3087  0.0882
  316MOL   H11944849   0.640   2.981   5.853  0.7176  0.3149  0.4167
  316MOL   H12044850   0.866   2.864   5.859  1.7940  3.2324 -1.1643
  316MOL   C12144851   0.841   3.005   5.689 -0.0416  0.1738  0.3310
  316MOL   C12244852   0.977   3.044   5.628 -0.2808 -0.4858  0.0137
  316MOL   C12344853   1.093   3.010   5.717  0.3641  0.2711 -0.2094
  316MOL   N12444854   1.189   2.991   5.790  0.3371  0.4165  0.3021
  316MOL   H12544855   0.766   3.033   5.615 -0.5465  2.6461  1.7025
  316MOL   H12644856   0.831   3.086   5.762  0.6639 -1.1488  1.9166
  316MOL   H12744857   0.981   3.153   5.621  0.4672 -0.4892  0.3696
  316MOL   C12844858   1.006   3.010   5.483 -0.0172 -0.2994 -0.4390
  316MOL   C12944859   1.140   3.053   5.425  0.6468  0.3581 -0.5096
  316MOL   C13044860   1.231   2.932   5.426  0.4444 -0.0753  0.4893
  316MOL   N13144861   1.299   2.838   5.441 -0.8028 -0.1907  0.1698
  316MOL   H13244862   0.994   2.901   5.484 -0.7274 -0.2161  0.8132
  316MOL   H13344863   0.910   3.043   5.443 -0.2599  1.2781  1.4020
  316MOL   H13444864   1.200   3.118   5.489  2.0842  0.2443 -1.6889
  316MOL   C13544865   1.126   3.134   5.294 -0.9639 -0.6977  0.2389
  316MOL   C13644866   1.059   3.274   5.295 -0.5144  0.1426 -0.8201
  316MOL   C13744867   0.938   3.285   5.374 -0.0135 -0.4789 -0.4757
  316MOL   N13844868   0.837   3.295   5.431  0.5888 -0.3597  0.1591
  316MOL   H13944869   1.227   3.155   5.259 -0.9499  0.1581  0.7587
  316MOL   H14044870   1.080   3.076   5.214  0.0137  1.2637 -1.7965
  316MOL   H14144871   1.039   3.286   5.189  0.8696  0.1329 -1.0908
  316MOL   H14244872   1.130   3.353   5.319  0.7761 -0.8059 -1.5237
  317MOL     C144873   3.695   1.116   4.602 -0.6498  0.2954  0.4036
  317MOL     C244874   3.741   1.230   4.687  0.1413  1.1600 -0.4154
  317MOL     C344875   3.819   1.183   4.799  0.2619 -0.6381  0.0932
  317MOL     N444876   3.879   1.149   4.894  0.7228 -0.4878 -0.1412
  317MOL     H544877   3.644   1.044   4.666 -2.0025  1.4111  0.6006
  317MOL     H644878   3.773   1.076   4.537 -0.1154  2.3808 -0.2960
  317MOL     H744879   3.653   1.263   4.743 -0.7093 -1.8494  0.1107
  317MOL     H844880   3.613   1.136   4.533 -1.6425 -1.4225  1.0481
  317MOL     C944881   3.802   1.351   4.612  0.1121 -0.2918 -0.3945
  317MOL    C1044882   3.841   1.471   4.701 -0.2536  1.2306 -0.7582
  317MOL    C1144883   3.986   1.495   4.699  0.1696  0.1965 -0.5190
  317MOL    N1244884   4.099   1.514   4.702 -0.3246 -0.1045 -0.2204
  317MOL    H1344885   3.889   1.311   4.561  0.7948 -1.3829  1.5710
  317MOL    H1444886   3.735   1.376   4.529  1.1151  1.2886 -0.7368
  317MOL    H1544887   3.828   1.439   4.805  1.5097  1.1320 -0.5457
  317MOL    C1644888   3.730   1.575   4.675  0.2511  0.0326 -0.4167
  317MOL    C1744889   3.750   1.700   4.761  0.0188  0.0239 -0.2698
  317MOL    C1844890   3.867   1.776   4.720 -0.6006 -0.9769 -0.7862
  317MOL    N1944891   3.955   1.841   4.686  0.2151 -0.3849 -0.2258
  317MOL    H2044892   3.739   1.614   4.573 -0.5143 -0.7445 -0.7836
  317MOL    H2144893   3.632   1.530   4.683  0.2714  0.4115  2.4660
  317MOL    H2244894   3.765   1.670   4.865 -0.0695  0.5124 -0.1159
  317MOL    C2344895   3.618   1.789   4.754  0.2592  0.8936  0.1549
  317MOL    C2444896   3.559   1.832   4.884 -0.2200  0.0919  0.4755
  317MOL    C2544897   3.665   1.907   4.960 -0.0782  0.6148 -0.5434
  317MOL    N2644898   3.739   1.969   5.023 -0.0310 -0.0673  0.1189
  317MOL    H2744899   3.641   1.879   4.697 -2.2455 -0.4808 -3.2314
  317MOL    H2844900   3.549   1.735   4.689  1.1153  0.1638 -0.1647
  317MOL    H2944901   3.534   1.745   4.944  0.6644  0.1713  0.9772
  317MOL    C3044902   3.438   1.923   4.855  0.1523 -0.3662  0.2994
  317MOL    C3144903   3.326   1.864   4.765  0.2312 -0.6818  0.4491
  317MOL    C3244904   3.322   1.723   4.798 -0.8549 -0.0497  0.4030
  317MOL    N3344905   3.318   1.611   4.823  0.0639  0.1733  0.5980
  317MOL    H3444906   3.390   1.939   4.951 -0.0965 -0.7848  0.2440
  317MOL    H3544907   3.465   2.025   4.826 -2.0183  0.3839  0.8369
  317MOL    H3644908   3.346   1.874   4.659  0.2733 -1.0549  0.4213
  317MOL    C3744909   3.188   1.935   4.793 -0.0482 -0.4847  0.0313
  317MOL    C3844910   3.202   2.089   4.787  0.3498 -0.3042  0.3416
  317MOL    C3944911   3.265   2.129   4.660 -0.6174  0.0212 -0.2881
  317MOL    N4044912   3.316   2.154   4.562 -0.1814  0.4912 -0.3128
  317MOL    H4144913   3.112   1.885   4.732  2.5049 -2.1134 -1.9494
  317MOL    H4244914   3.161   1.916   4.897 -0.7209  1.7134  0.2838
  317MOL    H4344915   3.274   2.123   4.861  0.6286  1.4325 -0.7040
  317MOL    C4444916   3.062   2.160   4.796 -0.0370 -1.0740 -0.2691
  317MOL    C4544917   3.007   2.181   4.936  0.3238 -0.1716  0.0729
  317MOL    C4644918   3.063   2.303   5.001 -0.1233 -0.3273 -0.4237
  317MOL    N4744919   3.091   2.406   5.049 -0.1943 -0.2759  0.5519
  317MOL    H4844920   3.075   2.260   4.755 -0.7682 -0.8189  0.1230
  317MOL    H4944921   2.988   2.122   4.725 -1.0085 -1.4951  0.9548
  317MOL    H5044922   3.042   2.098   4.998 -1.4316 -0.2253  1.0245
  317MOL    C5144923   2.855   2.172   4.942 -0.1078 -0.6979 -0.1034
  317MOL    C5244924   2.794   2.034   4.917  0.2513  0.2098 -0.1421
  317MOL    C5344925   2.811   1.954   5.039 -1.0495 -0.6155  1.1097
  317MOL    N5444926   2.829   1.897   5.135 -0.7487  0.2584 -0.2450
  317MOL    H5544927   2.835   2.189   5.048  0.4726  1.9349 -0.3700
  317MOL    H5644928   2.795   2.248   4.892 -1.0180 -0.6717  1.0172
  317MOL    H5744929   2.857   1.981   4.845  0.8796  2.1324 -1.0310
  317MOL    C5844930   2.647   2.027   4.859 -0.4287  0.6082 -0.1679
  317MOL    C5944931   2.605   1.896   4.771  0.0353 -0.4989  0.1471
  317MOL    C6044932   2.615   1.773   4.851  0.0894 -0.3511 -0.4771
  317MOL    N6144933   2.619   1.674   4.908  0.1638  0.1506  0.0160
  317MOL    H6244934   2.567   2.034   4.932 -1.4219 -1.2075 -1.0431
  317MOL    H6344935   2.636   2.108   4.787 -1.9914 -2.2804 -3.3356
  317MOL    H6444936   2.686   1.885   4.699  0.6588 -0.3302  0.8098
  317MOL    C6544937   2.470   1.922   4.705  0.9879 -0.1003 -0.2833
  317MOL    C6644938   2.420   1.801   4.633  0.4003  0.2310 -0.1142
  317MOL    C6744939   2.277   1.817   4.638  0.0583  0.2347  0.2458
  317MOL    N6844940   2.164   1.826   4.636 -0.1343  0.5014 -0.0096
  317MOL    H6944941   2.391   1.951   4.774  0.4854 -0.3196 -0.7643
  317MOL    H7044942   2.477   2.007   4.636 -1.5024  0.3832  0.0166
  317MOL    H7144943   2.430   1.709   4.691 -1.8534  0.4259  0.6344
  317MOL    C7244944   2.478   1.783   4.486  0.3667  0.1288 -0.1224
  317MOL    C7344945   2.456   1.645   4.420  0.3593  0.5361 -0.5740
  317MOL    C7444946   2.332   1.575   4.472  0.3166  0.2387  1.1256
  317MOL    N7544947   2.238   1.515   4.503 -0.1399  0.3684  0.4465
  317MOL    H7644948   2.429   1.866   4.435  2.8232  2.0602  0.5834
  317MOL    H7744949   2.585   1.800   4.492  0.4701 -0.1045 -1.1871
  317MOL    H7844950   2.540   1.582   4.449  0.3082  1.8654  2.6755
  317MOL    C7944951   2.454   1.653   4.268  0.0353  0.3468 -0.1137
  317MOL    C8044952   2.448   1.510   4.206 -0.0067  0.1971 -0.0378
  317MOL    C8144953   2.520   1.393   4.267  0.7691 -0.0880 -0.0367
  317MOL    N8244954   2.576   1.306   4.322  0.2041 -0.2664  0.0184
  317MOL    H8344955   2.378   1.721   4.230  0.6688  0.6487 -0.8318
  317MOL    H8444956   2.548   1.703   4.245  0.4388 -0.1397  0.4419
  317MOL    H8544957   2.514   1.519   4.119  0.9691 -3.0300  0.2954
  317MOL    C8644958   2.313   1.472   4.139  0.1340  0.3175 -1.0265
  317MOL    C8744959   2.312   1.376   4.025  0.5598  0.9863  0.4787
  317MOL    C8844960   2.325   1.236   4.077 -0.0706 -0.4932 -0.5062
  317MOL    N8944961   2.332   1.128   4.111 -0.7179  0.2290 -0.4264
  317MOL    H9044962   2.245   1.440   4.218  1.2372  1.0436  0.2379
  317MOL    H9144963   2.267   1.562   4.101  0.3464  0.6892 -0.4167
  317MOL    H9244964   2.397   1.387   3.957  1.8234  2.9335  2.3250
  317MOL    C9344965   2.198   1.393   3.925  0.0336 -0.4661  0.3094
  317MOL    C9444966   2.167   1.279   3.823 -0.0585  0.2888 -0.7531
  317MOL    C9544967   2.053   1.328   3.747  0.3009  0.4430  0.3672
  317MOL    N9644968   1.964   1.360   3.685 -0.3862 -0.0985  0.4724
  317MOL    H9744969   2.100   1.406   3.972 -0.6873 -2.5423 -0.5231
  317MOL    H9844970   2.217   1.482   3.866  0.6000 -1.7548 -1.4764
  317MOL    H9944971   2.128   1.194   3.879  1.4320  0.2140  0.2123
  317MOL   C10044972   2.266   1.243   3.720  0.0598 -0.0016  0.1630
  317MOL   C10144973   2.232   1.113   3.641 -0.1473  0.1778  0.4538
  317MOL   C10244974   2.320   1.086   3.523  0.4100 -0.2613  0.1439
  317MOL   N10344975   2.390   1.072   3.432 -0.0111 -0.1728 -0.2301
  317MOL   H10444976   2.277   1.326   3.650 -0.7980  3.6554  4.1564
  317MOL   H10544977   2.362   1.226   3.768  0.9302 -1.0926 -1.8628
  317MOL   H10644978   2.133   1.126   3.597  0.5537 -1.9496 -1.8648
  317MOL   C10744979   2.221   0.991   3.733  0.7432 -0.2511 -0.1380
  317MOL   C10844980   2.139   0.872   3.676  0.2331 -0.6457  0.4862
  317MOL   C10944981   2.131   0.868   3.532  0.4398  0.0282  0.1337
  317MOL   N11044982   2.120   0.864   3.415  0.5670  0.4362  0.2332
  317MOL   H11144983   2.325   0.960   3.748  0.8589  0.3337  0.3359
  317MOL   H11244984   2.194   1.010   3.837 -0.9244  1.4778 -0.8618
  317MOL   H11344985   2.040   0.890   3.716  0.8985  1.2292  1.3462
  317MOL   C11444986   2.191   0.738   3.728 -0.0057  0.2541 -0.2769
  317MOL   C11544987   2.178   0.716   3.882  0.6214 -0.1176  0.1144
  317MOL   C11644988   2.043   0.762   3.934 -0.1833 -0.5970 -0.1261
  317MOL   N11744989   1.940   0.798   3.973  0.2096 -0.5861 -0.1730
  317MOL   H11844990   2.145   0.660   3.668 -1.0912 -1.2171  2.3735
  317MOL   H11944991   2.298   0.728   3.712 -0.1870 -0.4857 -1.0449
  317MOL   H12044992   2.248   0.780   3.936  1.9300 -0.6013 -0.9794
  317MOL   C12144993   2.205   0.564   3.918  0.4517 -0.7574  0.3445
  317MOL   C12244994   2.141   0.513   4.055 -0.6698  0.1833 -0.1089
  317MOL   C12344995   2.006   0.459   4.034  0.1777  0.3003  0.7577
  317MOL   N12444996   1.904   0.411   4.026  0.0573 -0.8491  0.0308
  317MOL   H12544997   2.157   0.509   3.838  2.6382 -4.4741  1.4948
  317MOL   H12644998   2.311   0.542   3.910  0.3138 -1.6712  1.0218
  317MOL   H12744999   2.123   0.600   4.118  0.4620  2.2259 -2.4901
  317MOL   C12845000   2.237   0.419   4.130  0.0866  0.4508 -0.4265
  317MOL   C12945001   2.231   0.449   4.280 -0.2379 -0.4421  0.1458
  317MOL   C13045002   2.164   0.356   4.368 -0.8927  0.3541  0.2119
  317MOL   N13145003   2.115   0.285   4.443 -0.4487 -0.6154  0.1314
  317MOL   H13245004   2.230   0.316   4.095  1.0365  0.6244 -1.1409
  317MOL   H13345005   2.339   0.445   4.103  1.1912 -2.0113  1.1165
  317MOL   H13445006   2.176   0.543   4.289  0.8493  0.3113 -0.9429
  317MOL   C13545007   2.367   0.489   4.335  0.3072 -0.1044 -0.0645
  317MOL   C13645008   2.372   0.531   4.482  0.5103 -0.6663 -0.2929
  317MOL   C13745009   2.255   0.610   4.533 -0.3035  0.0308  0.7556
  317MOL   N13845010   2.159   0.673   4.561 -0.2140 -0.6859  0.0728
  317MOL   H13945011   2.440   0.413   4.306 -0.7466 -0.9827 -0.4830
  317MOL   H14045012   2.399   0.576   4.278  0.5743 -0.2083 -0.0731
  317MOL   H14145013   2.452   0.603   4.497 -0.0864  0.3147 -1.8057
  317MOL   H14245014   2.388   0.446   4.550  0.2272 -2.3986 -2.3465
  318MOL     C145015   7.302   3.810   0.163 -0.2055 -0.1687  0.5676
  318MOL     C245016   7.173   3.803   0.256 -0.8433 -0.1690  0.2059
  318MOL     C345017   7.204   3.711   0.361  0.4097  0.5176 -0.7681
  318MOL     N445018   7.228   3.637   0.448  0.8180 -0.1509  0.7563
  318MOL     H545019   7.373   3.878   0.210  0.2602 -0.3409  0.1198
  318MOL     H645020   7.269   3.825   0.060 -1.9123  1.7562  1.3526
  318MOL     H745021   7.089   3.760   0.201 -0.1501 -0.7842 -0.3735
  318MOL     H845022   7.355   3.715   0.165 -0.4160 -0.3472 -1.2521
  318MOL     C945023   7.137   3.934   0.322 -0.9233 -0.5712  0.0847
  318MOL    C1045024   7.103   4.050   0.225 -0.4664  0.2960  0.5419
  318MOL    C1145025   7.236   4.102   0.177 -0.2406  0.7728 -0.0568
  318MOL    N1245026   7.339   4.143   0.145 -0.1372 -0.1763 -0.5211
  318MOL    H1345027   7.058   3.915   0.394 -2.7170 -0.4400 -1.7863
  318MOL    H1445028   7.225   3.957   0.381  0.5999 -4.1882 -0.6321
  318MOL    H1545029   7.047   4.129   0.275 -1.4082 -1.2789  2.0305
  318MOL    C1645030   7.015   4.018   0.098  0.7544  0.2509  0.0368
  318MOL    C1745031   6.984   4.131   8.308 -0.5251  0.5457 -0.1683
  318MOL    C1845032   6.927   4.081   8.182 -0.0867  0.0607 -0.3436
  318MOL    N1945033   6.869   4.041   8.088 -0.2721 -0.2705  0.0497
  318MOL    H2045034   7.056   3.928   0.051 -3.6406 -1.9003  0.0149
  318MOL    H2145035   6.918   3.978   0.126  1.1598  0.3695  1.6270
  318MOL    H2245036   7.077   4.181   8.278 -0.3710  1.1140  1.2100
  318MOL    C2345037   6.896   4.234   0.052  0.7155  0.0976 -1.4110
  318MOL    C2445038   6.898   4.367   8.288  0.2500  0.2052  0.3442
  318MOL    C2545039   6.846   4.362   8.149 -0.8259 -0.2186 -0.6401
  318MOL    N2645040   6.805   4.356   8.041 -0.4438  0.6410 -0.3857
  318MOL    H2745041   6.794   4.204   0.077  1.0217  1.0609  1.1573
  318MOL    H2845042   6.941   4.253   0.149  1.0523  0.0946 -1.5667
  318MOL    H2945043   7.001   4.398   8.272  0.0992 -0.4572 -2.1823
  318MOL    C3045044   6.830   4.488   0.049  0.2906 -0.3513 -0.3008
  318MOL    C3145045   6.887   4.629   0.021 -0.3405 -0.4217 -0.2692
  318MOL    C3245046   6.880   4.665   8.188  0.5384 -0.0737 -0.6391
  318MOL    N3345047   6.877   4.694   8.079  0.3231 -0.1423 -0.2575
  318MOL    H3445048   6.722   4.490   0.042  0.2441  1.2850  0.7534
  318MOL    H3545049   6.846   4.459   0.153  0.7513  1.0842  0.0415
  318MOL    H3645050   6.995   4.627   0.035 -0.3061 -1.1620 -0.6224
  318MOL    C3745051   6.825   4.748   0.107 -0.8422  0.0683  0.0094
  318MOL    C3845052   6.915   4.870   0.110  0.0243  0.3871  0.3539
  318MOL    C3945053   6.900   4.959   8.307 -1.4613 -0.7016 -0.2660
  318MOL    N4045054   6.895   5.030   8.219  0.7998 -0.5124  1.0339
  318MOL    H4145055   6.723   4.774   0.077 -0.9085 -0.9829 -0.6923
  318MOL    H4245056   6.815   4.699   0.205  1.3292  0.4747  0.4483
  318MOL    H4345057   7.014   4.833   0.085 -0.7555 -1.1228 -0.5417
  318MOL    C4445058   6.920   4.922   0.250  0.3703  0.8586  0.0419
  318MOL    C4545059   7.026   5.020   0.298  0.2613  0.4958 -0.2303
  318MOL    C4645060   7.037   5.145   0.219  0.2185 -0.3337 -0.2756
  318MOL    N4745061   7.051   5.239   0.151 -0.3079 -0.5818 -0.0501
  318MOL    H4845062   6.820   4.953   0.277 -0.1050  0.3696 -1.1268
  318MOL    H4945063   6.950   4.827   0.296 -1.5524  0.2992  0.1877
  318MOL    H5045064   7.118   4.961   0.296  0.4527  0.6010  3.4477
  318MOL    C5145065   7.011   5.051   0.443 -0.0997 -0.8906  0.4464
  318MOL    C5245066   7.108   5.158   0.507 -0.3068 -0.5346  0.0575
  318MOL    C5345067   7.038   5.207   0.634 -0.5881  0.5182 -0.9444
  318MOL    N5445068   6.980   5.238   0.728 -0.1151  0.5149  0.8125
  318MOL    H5545069   6.909   5.084   0.463  0.1696 -1.1567  2.4479
  318MOL    H5645070   7.027   4.962   0.504  1.5969 -0.1348  1.1204
  318MOL    H5745071   7.125   5.242   0.438  1.9109 -1.0545 -0.0873
  318MOL    C5845072   7.245   5.105   0.538  0.1388 -0.1857 -0.2154
  318MOL    C5945073   7.351   5.205   0.595  0.1751  0.1044  0.0519
  318MOL    C6045074   7.298   5.286   0.705  0.2895 -0.3738  0.1989
  318MOL    N6145075   7.259   5.350   0.797 -0.3623  0.8174  0.2702
  318MOL    H6245076   7.245   5.047   0.630  1.5614 -1.4937 -1.0238
  318MOL    H6345077   7.281   5.038   0.460 -1.3513 -0.0641 -1.0293
  318MOL    H6445078   7.372   5.274   0.512  1.2342 -1.4847 -1.0258
  318MOL    C6545079   7.478   5.142   0.645  0.1162 -0.2859 -0.3918
  318MOL    C6645080   7.589   5.112   0.535  0.2428 -0.1173 -0.0264
  318MOL    C6745081   7.630   5.226   0.454 -0.2744 -0.1799  0.7670
  318MOL    N6845082   7.668   5.322   0.396 -0.0752 -0.1837 -0.8247
  318MOL    H6945083   7.520   5.202   0.726 -1.0160 -1.4305  1.0461
  318MOL    H7045084   7.447   5.047   0.688 -1.0107 -0.0306 -0.6250
  318MOL    H7145085   7.540   5.040   0.470  0.6833 -0.9967  0.6165
  318MOL    C7245086   7.721   5.041   0.598  0.4685 -0.1592 -0.4703
  318MOL    C7345087   7.716   4.883   0.604  0.3632 -0.0551  0.7300
  318MOL    C7445088   7.576   4.837   0.612  0.0795 -0.1539 -0.2443
  318MOL    N7545089   7.466   4.808   0.620 -0.0923 -1.0911  0.1174
  318MOL    H7645090   7.810   5.080   0.549  1.2987  0.8055  1.7192
  318MOL    H7745091   7.732   5.089   0.695  0.3447  0.5551 -0.8085
  318MOL    H7845092   7.756   4.859   0.703 -0.8329  1.2671  1.5670
  318MOL    C7945093   7.791   4.820   0.488  0.4765 -0.2256 -0.7598
  318MOL    C8045094   7.936   4.799   0.527 -0.0834  0.1604 -0.2716
  318MOL    C8145095   7.959   4.698   0.630  0.6162  0.2692 -0.2465
  318MOL    N8245096   7.984   4.617   0.711 -0.0196 -0.6559  0.2521
  318MOL    H8345097   7.749   4.731   0.443 -1.1172  0.5467 -0.8409
  318MOL    H8445098   7.788   4.891   0.405 -0.4026  0.6855  0.0401
  318MOL    H8545099   7.980   4.894   0.558  2.3321 -0.7270 -0.9186
  318MOL    C8645100   8.026   4.753   0.404  0.4086  0.0881 -0.2349
  318MOL    C8745101   8.022   4.841   0.275  0.3881 -0.2188 -0.0678
  318MOL    C8845102   8.044   4.976   0.304 -0.0148 -0.1718  0.3210
  318MOL    N8945103   8.063   5.089   0.318  0.5435 -0.3006  0.2783
  318MOL    H9045104   8.127   4.760   0.443  0.7369  2.2690 -1.3888
  318MOL    H9145105   7.989   4.656   0.369 -1.0402  1.2766 -2.0873
  318MOL    H9245106   7.923   4.845   0.229  1.0012  1.8661 -1.2179
  318MOL    C9345107   8.113   4.788   0.160 -1.2224 -0.1134  0.0540
  318MOL    C9445108   8.081   4.826   0.020 -0.0371 -0.0097 -0.3448
  318MOL    C9545109   8.091   4.972   8.305  0.7051 -0.4129  0.3853
  318MOL    N9645110   8.099   5.086   8.297  0.5632  0.1296 -0.2796
  318MOL    H9745111   8.213   4.822   0.186 -1.2712  0.3320 -0.3158
  318MOL    H9845112   8.116   4.680   0.174  0.6101 -0.2093 -0.8982
  318MOL    H9945113   7.975   4.806   0.004  0.1625 -1.9921  0.7222
  318MOL   C10045114   8.173   4.754   8.232 -0.5429 -0.6114 -0.1557
  318MOL   C10145115   8.151   4.602   8.234  1.0369 -0.0310  0.0992
  318MOL   C10245116   8.007   4.587   8.194 -0.1208  0.1585  0.3189
  318MOL   N10345117   7.897   4.571   8.164  0.0092 -0.2885 -0.2405
  318MOL   H10445118   8.153   4.788   8.130 -1.6969  0.8042  0.5426
  318MOL   H10545119   8.279   4.772   8.248 -0.8423  0.7174  0.3217
  318MOL   H10645120   8.157   4.556   0.020 -0.4799  0.2438  0.3218
  318MOL   C10745121   8.247   4.540   8.135  0.5462  0.2466  0.5728
  318MOL   C10845122   8.222   4.388   8.124  0.1130  0.1777 -0.1084
  318MOL   C10945123   8.099   4.368   8.046  0.3907  0.1507 -0.2082
  318MOL   N11045124   8.003   4.358   7.980 -1.2198 -0.5353  0.7307
  318MOL   H11145125   8.226   4.572   8.033 -0.0771  0.1929  0.6799
  318MOL   H11245126   0.035   4.567   8.168  1.2673  1.2646 -2.2810
  318MOL   H11345127   8.196   4.356   8.225 -0.6296  0.8464 -0.0823
  318MOL   C11445128   0.023   4.296   8.088  0.1428  0.9004  0.2976
  318MOL   C11545129   0.012   4.150   8.140  0.5226 -0.0031  0.3757
  318MOL   C11645130   8.225   4.086   8.060  0.6595  0.9261 -0.1896
  318MOL   N11745131   8.142   4.033   7.995  0.0255  0.3246  0.5262
  318MOL   H11845132   0.024   4.291   7.979 -0.1133  3.4673  0.1575
  318MOL   H11945133   0.110   4.356   8.116  0.1657  0.3794  1.3664
  318MOL   H12045134   8.290   4.144   8.244 -0.6498  0.7742  0.0400
  318MOL   C12145135   0.149   4.071   8.127 -0.1131 -0.2368  0.1683
  318MOL   C12245136   0.256   4.108   8.222  0.3202 -0.6980 -0.1949
  318MOL   C12345137   0.214   4.118   0.043 -0.1585  0.4212  0.1733
  318MOL   N12445138   0.182   4.136   0.153  0.6359 -0.3383 -0.2843
  318MOL   H12545139   0.120   3.969   8.151 -2.1468 -0.1918 -1.8603
  318MOL   H12645140   0.183   4.065   8.024 -1.5544  3.1156 -0.5527
  318MOL   H12745141   0.290   4.209   8.200  0.2630 -0.5124  0.5423
  318MOL   C12845142   0.382   4.014   8.206  0.3760  0.2053  0.7963
  318MOL   C12945143   0.486   4.033   0.012  0.5093 -0.7232 -0.5466
  318MOL   C13045144   0.600   3.943   8.308 -0.1476  0.4667 -0.3148
  318MOL   N13145145   0.692   3.869   8.309 -0.5957 -0.1614  0.1503
  318MOL   H13245146   0.357   3.908   8.219  2.5625 -0.3866  0.4368
  318MOL   H13345147   0.425   4.034   8.108 -0.3583  0.6984  0.5754
  318MOL   H13445148   0.443   4.013   0.110  0.6355  0.9454 -0.1346
  318MOL   C13545149   0.548   4.172   0.011  0.2166 -0.1858 -0.4030
  318MOL   C13645150   0.675   4.197   8.240 -0.0952 -0.1723 -0.6434
  318MOL   C13745151   0.663   4.169   8.097  0.3213  0.4473 -0.1411
  318MOL   N13845152   0.647   4.140   7.985 -0.1751 -0.1350 -0.3188
  318MOL   H13945153   0.473   4.244   8.292  0.5916  0.1617 -0.4997
  318MOL   H14045154   0.575   4.204   0.111 -2.3816  1.3500 -0.1467
  318MOL   H14145155   0.758   4.131   8.269 -1.4988 -2.5719 -1.9009
  318MOL   H14245156   0.711   4.300   8.246  0.2278 -0.2916 -0.4678
  319MOL     C145157   4.300   2.855   8.014  0.1447 -0.3803 -0.6757
  319MOL     C245158   4.210   2.861   8.134  0.1476  0.4685  0.0715
  319MOL     C345159   4.273   2.816   8.255  0.1231 -0.2491  0.6956
  319MOL     N445160   4.320   2.784   0.047 -0.2919 -0.6533 -0.5632
  319MOL     H545161   4.395   2.906   8.031 -1.0474  0.8392  2.7741
  319MOL     H645162   4.241   2.893   7.931 -0.1433  3.7844  1.3274
  319MOL     H745163   4.131   2.786   8.128 -0.6732  1.3124  0.1721
  319MOL     H845164   4.331   2.750   8.010  1.2458 -0.2832  3.2176
  319MOL     C945165   4.160   3.009   8.169  0.2560  0.3261 -0.3985
  319MOL    C1045166   4.051   3.062   8.065  0.0730  0.3042  0.1167
  319MOL    C1145167   3.922   2.994   8.089  0.0407  0.4641 -0.4761
  319MOL    N1245168   3.825   2.936   8.113  0.6838  0.3324  0.1271
  319MOL    H1345169   4.119   3.020   8.269  1.6650 -3.7408  0.7354
  319MOL    H1445170   4.246   3.075   8.168  0.2893  0.2835 -0.3145
  319MOL    H1545171   4.078   3.043   7.961 -1.7178  0.2925 -0.3578
  319MOL    C1645172   4.039   3.215   8.088  0.3966  0.1737  0.0426
  319MOL    C1745173   3.965   3.293   7.985  0.4653  0.2509  0.8408
  319MOL    C1845174   3.816   3.277   7.997  0.4857 -0.6946  0.0676
  319MOL    N1945175   3.699   3.267   7.999  0.2756  0.2886 -0.1193
  319MOL    H2045176   3.993   3.241   8.183 -0.1239 -0.9649  0.1121
  319MOL    H2145177   4.140   3.253   8.098  1.0448 -1.7703  1.2276
  319MOL    H2245178   3.995   3.241   7.894  0.6695 -1.0108  1.6240
  319MOL    C2345179   3.997   3.445   7.987 -0.2459  0.4420 -0.0356
  319MOL    C2445180   4.018   3.501   7.844  0.3915  0.2860  0.0560
  319MOL    C2545181   3.909   3.475   7.748 -0.6084 -0.1358  0.6927
  319MOL    N2645182   3.829   3.456   7.671 -0.5708 -0.5710 -0.2472
  319MOL    H2745183   3.921   3.505   8.037 -2.7435 -0.7391 -2.2766
  319MOL    H2845184   4.092   3.465   8.038  0.0633  1.6367 -1.0523
  319MOL    H2945185   4.096   3.450   7.788  1.6195  1.5401  0.5933
  319MOL    C3045186   4.062   3.651   7.840  0.2046  0.4080  0.2626
  319MOL    C3145187   4.122   3.691   7.702  0.4764 -0.2285 -0.1481
  319MOL    C3245188   4.093   3.832   7.680 -0.7394 -0.0100  0.6022
  319MOL    N3345189   4.069   3.941   7.657  0.9247  0.1329 -0.8154
  319MOL    H3445190   3.976   3.713   7.862  0.8199  1.3581 -0.0026
  319MOL    H3545191   4.134   3.673   7.919 -0.4923  2.0066  0.4712
  319MOL    H3645192   4.058   3.643   7.628 -1.7479  2.4690 -0.0755
  319MOL    C3745193   4.274   3.658   7.685 -0.3898  0.4618  0.0308
  319MOL    C3845194   4.355   3.740   7.575  0.4205 -0.0299  0.3794
  319MOL    C3945195   4.284   3.746   7.447  1.0975 -0.4586  0.3484
  319MOL    N4045196   4.224   3.741   7.346  0.1216  0.6923 -0.5967
  319MOL    H4145197   4.337   3.657   7.774  1.1508 -0.1693 -1.0593
  319MOL    H4245198   4.264   3.554   7.654  0.3126  0.0001  1.3303
  319MOL    H4345199   4.441   3.673   7.567  2.4538  2.3651  1.5275
  319MOL    C4445200   4.428   3.869   7.616  0.4142 -0.9680 -0.6175
  319MOL    C4545201   4.562   3.903   7.554  0.4318 -0.0295 -0.0516
  319MOL    C4645202   4.667   3.806   7.598  0.3394 -1.1300 -1.0028
  319MOL    N4745203   4.747   3.730   7.632  0.6480 -0.2345 -0.5845
  319MOL    H4845204   4.365   3.956   7.600 -1.6467 -2.3208 -0.1081
  319MOL    H4945205   4.442   3.866   7.724  0.6368 -0.7013 -0.6392
  319MOL    H5045206   4.594   3.996   7.602 -2.2595  0.1833  1.4155
  319MOL    C5145207   4.555   3.917   7.403  0.2886  0.2732  0.0886
  319MOL    C5245208   4.473   4.045   7.360 -0.5614  0.4714  0.3496
  319MOL    C5345209   4.560   4.162   7.399  0.1664  0.0596  0.1432
  319MOL    N5445210   4.626   4.248   7.427 -0.7726  0.1237  0.8133
  319MOL    H5545211   4.653   3.919   7.355  0.6585 -1.4765  0.7245
  319MOL    H5645212   4.510   3.830   7.357  0.1911 -0.1059  0.8884
  319MOL    H5745213   4.380   4.045   7.417  0.4727 -1.0885  2.0927
  319MOL    C5845214   4.430   4.038   7.209  0.5044  0.6688  0.8513
  319MOL    C5945215   4.308   4.115   7.175  0.2874 -0.1554 -0.5689
  319MOL    C6045216   4.303   4.125   7.033  0.6319  0.4178 -0.1896
  319MOL    N6145217   4.297   4.129   6.919 -0.1744  0.1100  0.0825
  319MOL    H6245218   4.508   4.068   7.139  0.6462 -1.5218  0.0209
  319MOL    H6345219   4.407   3.935   7.182  2.9759  0.2402  0.2602
  319MOL    H6445220   4.321   4.218   7.209 -0.8382  0.7368 -2.7070
  319MOL    C6545221   4.172   4.060   7.234  0.5861 -0.0609  0.5706
  319MOL    C6645222   4.053   4.148   7.194  0.3126  0.8675  0.0665
  319MOL    C6745223   3.935   4.058   7.181 -0.9704 -0.3874 -0.2793
  319MOL    N6845224   3.847   3.992   7.159  0.1077  0.2136 -0.7802
  319MOL    H6945225   4.165   3.960   7.190  2.9138  0.3588 -0.8604
  319MOL    H7045226   4.166   4.046   7.342  0.4995  0.3332  0.6170
  319MOL    H7145227   4.074   4.166   7.088 -2.1472 -0.9823 -0.7670
  319MOL    C7245228   4.033   4.281   7.267 -0.0327  0.1124  0.2750
  319MOL    C7345229   3.977   4.286   7.413  0.3607  0.5306  0.8979
  319MOL    C7445230   3.993   4.416   7.473 -0.0954  0.2375 -0.0063
  319MOL    N7545231   4.009   4.516   7.526 -0.6381 -0.5309  0.3153
  319MOL    H7645232   4.122   4.341   7.251  1.3144 -2.4391 -2.3897
  319MOL    H7745233   3.974   4.346   7.202 -1.5301 -2.4761 -1.0278
  319MOL    H7845234   4.032   4.210   7.470  1.7094  0.4298 -0.5120
  319MOL    C7945235   3.837   4.220   7.429  0.4825  0.0636  0.1814
  319MOL    C8045236   3.768   4.250   7.561 -0.2035  0.2369  0.1217
  319MOL    C8145237   3.629   4.211   7.552 -0.0137 -0.5855  0.6796
  319MOL    N8245238   3.513   4.184   7.546 -0.1217 -0.5148 -0.6572
  319MOL    H8345239   3.774   4.236   7.341 -0.6237  1.8374  1.2510
  319MOL    H8445240   3.855   4.113   7.424 -0.6177 -0.1124 -0.3202
  319MOL    H8545241   3.774   4.358   7.575  0.5133  0.1553  0.4452
  319MOL    C8645242   3.840   4.179   7.677 -0.2404 -0.1182 -0.0258
  319MOL    C8745243   3.764   4.206   7.811  0.4171 -0.0303  0.2507
  319MOL    C8845244   3.657   4.105   7.835 -0.6671 -0.4912 -0.7892
  319MOL    N8945245   3.578   4.022   7.855 -0.1348 -0.3390 -0.3261
  319MOL    H9045246   3.843   4.072   7.658  1.5240 -0.0396 -0.2922
  319MOL    H9145247   3.941   4.217   7.694 -0.6760  1.6316 -1.1568
  319MOL    H9245248   3.710   4.299   7.796 -0.8728 -1.0473 -1.6664
  319MOL    C9345249   3.862   4.214   7.929  0.3693 -0.2311 -0.0148
  319MOL    C9445250   3.940   4.083   7.962 -0.9750  0.6446  0.3553
  319MOL    C9545251   4.073   4.127   8.017 -0.7037 -0.0149  0.2200
  319MOL    N9645252   4.178   4.165   8.045  0.1309  0.3225 -0.4581
  319MOL    H9745253   3.924   4.302   7.912 -0.7071  0.2858 -1.2773
  319MOL    H9845254   3.801   4.237   8.017 -2.5632 -1.6113 -1.6246
  319MOL    H9945255   3.975   4.037   7.870 -1.5232  2.5774 -0.8331
  319MOL   C10045256   3.870   3.982   8.051  0.0335 -0.3676  1.0274
  319MOL   C10145257   3.927   3.982   8.195  0.0853 -0.2264  0.3652
  319MOL   C10245258   3.933   4.113   8.257 -0.2396  0.6319  0.2844
  319MOL   N10345259   3.937   4.215   8.300 -0.1659  0.3250 -0.0851
  319MOL   H10445260   3.765   4.010   8.057  0.2653  0.3974  1.6572
  319MOL   H10545261   3.871   3.885   8.001 -0.4303 -0.1526  0.5965
  319MOL   H10645262   4.029   3.945   8.201  0.9738  2.2385  0.6562
  319MOL   C10745263   3.847   3.887   8.289 -0.1662  0.9598 -0.0289
  319MOL   C10845264   3.849   3.737   8.249 -0.2718 -0.3565  0.1024
  319MOL   C10945265   3.989   3.695   8.242 -0.2490  0.1903 -0.2579
  319MOL   N11045266   4.098   3.670   8.232  0.4063 -0.6632  0.2184
  319MOL   H11145267   3.888   3.901   0.076  1.2847  2.0774 -0.7717
  319MOL   H11245268   3.744   3.921   8.287 -0.9442 -1.3138 -0.8089
  319MOL   H11345269   3.824   3.733   8.142  0.2070  1.6637 -0.1070
  319MOL   C11445270   3.767   3.650   0.029  0.4790  0.4839 -0.3216
  319MOL   C11545271   3.832   3.609   0.168 -0.2940 -1.0083  0.3545
  319MOL   C11645272   3.822   3.720   0.277  0.0728 -0.7024 -0.0907
  319MOL   N11745273   3.810   3.801   0.362 -0.2585 -0.4606  0.3605
  319MOL   H11845274   3.669   3.690   0.055  1.8815  2.3610  2.2268
  319MOL   H11945275   3.744   3.563   8.280  0.4088  0.6507 -0.5367
  319MOL   H12045276   3.936   3.586   0.146 -0.4361 -2.4450  1.0557
  319MOL   C12145277   3.783   3.475   0.220  0.0779 -0.6568  0.8110
  319MOL   C12245278   3.641   3.470   0.288 -0.5342 -0.7101 -0.5165
  319MOL   C12345279   3.537   3.502   0.192 -0.4493 -0.1348 -0.6020
  319MOL   N12445280   3.454   3.528   0.118 -0.2341 -0.3268 -0.2391
  319MOL   H12545281   3.797   3.393   0.150 -0.9612 -0.2554  0.1301
  319MOL   H12645282   3.860   3.457   0.296  1.4539 -3.0843 -1.0816
  319MOL   H12745283   3.646   3.557   0.354 -1.1211 -1.5507  0.6559
  319MOL   C12845284   3.608   3.350   0.370 -0.1398 -0.6020 -0.2286
  319MOL   C12945285   3.697   3.326   0.496  0.1761  0.2726  0.0784
  319MOL   C13045286   3.683   3.439   0.589 -0.5222  0.1860  0.4527
  319MOL   N13145287   3.665   3.524   0.661  0.0652  0.0930 -1.0796
  319MOL   H13245288   3.510   3.355   0.416  0.2777  2.5319  0.4207
  319MOL   H13345289   3.620   3.260   0.310  1.0522 -1.0786  0.6878
  319MOL   H13445290   3.799   3.308   0.463  0.2079  1.0574 -0.2756
  319MOL   C13545291   3.675   3.196   0.567 -0.0215  0.0121 -0.3546
  319MOL   C13645292   3.769   3.174   0.685  0.0494  0.7106 -0.4473
  319MOL   C13745293   3.908   3.140   0.656  0.2962 -0.2648  1.0877
  319MOL   N13845294   4.015   3.120   0.631  0.0092  0.1379  0.1286
  319MOL   H13945295   3.573   3.201   0.604  0.2161 -1.9180  0.6624
  319MOL   H14045296   3.687   3.111   0.500  0.4674 -1.0602  1.0754
  319MOL   H14145297   3.740   3.085   0.742  0.9066  1.4634  1.2145
  319MOL   H14245298   3.782   3.251   0.761 -0.2151  0.5894 -0.2806
  320MOL     C145299   1.049   7.669   5.761 -0.6125  0.0295 -0.3905
  320MOL     C245300   1.045   7.610   5.620  0.0456  0.7686 -0.4157
  320MOL     C345301   0.932   7.665   5.548 -0.4289  0.5624  0.1474
  320MOL     N445302   0.838   7.710   5.495 -0.5398  1.0500  0.2236
  320MOL     H545303   1.136   7.632   5.815 -1.2940  0.0768  0.7617
  320MOL     H645304   0.966   7.635   5.823  0.6489 -0.2532  1.1872
  320MOL     H745305   1.028   7.503   5.613  0.0635  0.7391  0.0000
  320MOL     H845306   1.060   7.777   5.748 -0.1261 -0.2655 -2.6881
  320MOL     C945307   1.173   7.656   5.538  0.2913  0.2603  0.5818
  320MOL    C1045308   1.290   7.568   5.592  0.9104 -0.5147  0.3025
  320MOL    C1145309   1.247   7.427   5.580 -0.1414 -0.5965  0.4860
  320MOL    N1245310   1.211   7.313   5.571 -0.2431 -0.2050 -0.0990
  320MOL    H1345311   1.156   7.637   5.432  0.5731 -0.8287  0.7265
  320MOL    H1445312   1.189   7.763   5.533  0.0298  0.2384 -0.9694
  320MOL    H1545313   1.303   7.591   5.698 -3.7213 -1.1160  1.1271
  320MOL    C1645314   1.425   7.600   5.529 -0.2018 -0.0078  1.0457
  320MOL    C1745315   1.466   7.513   5.401 -0.0689 -0.1313  0.6749
  320MOL    C1845316   1.374   7.518   5.290 -0.1340 -0.0685  0.5329
  320MOL    N1945317   1.292   7.514   5.202 -0.8087  0.0808 -0.0774
  320MOL    H2045318   1.427   7.704   5.496  0.5021  0.3150  2.0661
  320MOL    H2145319   1.507   7.605   5.601  1.7725 -0.7037 -1.0875
  320MOL    H2245320   1.467   7.408   5.427 -2.4094 -0.2389  0.4557
  320MOL    C2345321   1.615   7.547   5.364  0.4662 -0.1131  1.0113
  320MOL    C2445322   1.711   7.431   5.387  0.3448 -0.0213 -0.5204
  320MOL    C2545323   1.672   7.305   5.313 -0.1169  0.4045 -0.6794
  320MOL    N2645324   1.639   7.210   5.250  0.1115 -0.5652  0.8075
  320MOL    H2745325   1.621   7.576   5.260  0.8525 -0.0894  1.0372
  320MOL    H2845326   1.644   7.639   5.416 -0.1720  1.0288 -0.6392
  320MOL    H2945327   1.700   7.410   5.493 -0.6409 -0.6931 -0.7519
  320MOL    C3045328   1.856   7.464   5.363 -0.2525  1.0147  0.3555
  320MOL    C3145329   1.912   7.551   5.478  0.3582  0.6129 -0.3495
  320MOL    C3245330   1.933   7.467   5.598 -0.7539 -0.5081  0.3549
  320MOL    N3345331   1.950   7.404   5.695  0.3727  0.4369  0.4054
  320MOL    H3445332   1.927   7.382   5.357  1.6416  2.6615 -0.6446
  320MOL    H3545333   1.861   7.513   5.265  1.2343 -0.3293 -0.2726
  320MOL    H3645334   1.842   7.622   5.521 -0.8721 -0.8531  0.1121
  320MOL    C3745335   2.054   7.612   5.457  0.1696  0.5612  0.6288
  320MOL    C3845336   2.183   7.539   5.518  0.4759  0.8026 -0.3208
  320MOL    C3945337   2.195   7.410   5.454  0.4869  0.1051 -0.4934
  320MOL    N4045338   2.201   7.300   5.419 -0.1927 -0.2813 -0.2258
  320MOL    H4145339   2.074   7.623   5.351  2.0284 -0.2834  0.8692
  320MOL    H4245340   2.053   7.711   5.502 -1.6795  0.1462  1.5930
  320MOL    H4345341   2.175   7.530   5.626 -0.1644 -1.5640 -0.5385
  320MOL    C4445342   2.308   7.631   5.499  0.1892  0.6119 -0.7844
  320MOL    C4545343   2.438   7.587   5.564  0.0814 -0.1453  0.4850
  320MOL    C4645344   2.412   7.560   5.708  0.1900 -0.4508  0.1212
  320MOL    N4745345   2.386   7.541   5.818  0.3321  0.9301  0.0313
  320MOL    H4845346   2.308   7.639   5.390  2.6293  0.9625 -0.7995
  320MOL    H4945347   2.280   7.730   5.536 -1.2707 -0.6131  1.4712
  320MOL    H5045348   2.518   7.661   5.558  0.3196 -0.3438  1.2159
  320MOL    C5145349   2.502   7.466   5.484 -0.3204 -0.2569  0.5876
  320MOL    C5245350   2.530   7.483   5.335  0.4181 -0.9542 -1.2595
  320MOL    C5345351   2.583   7.609   5.289  0.2063 -0.2705 -0.0379
  320MOL    N5445352   2.633   7.713   5.253  0.3621  0.7327 -0.3642
  320MOL    H5545353   2.600   7.448   5.530  0.8060 -1.8141 -2.2675
  320MOL    H5645354   2.434   7.382   5.499 -0.3174 -0.5181 -0.7894
  320MOL    H5745355   2.432   7.475   5.290 -0.2580 -1.7252  0.3029
  320MOL    C5845356   2.615   7.361   5.295 -0.0798 -0.8011  1.2624
  320MOL    C5945357   2.607   7.300   5.148  0.3376 -0.2062 -0.0678
  320MOL    C6045358   2.707   7.197   5.129  1.0738 -0.0498  0.9336
  320MOL    N6145359   2.782   7.113   5.115  0.2748  0.3245  0.3110
  320MOL    H6245360   2.719   7.388   5.314  0.4784 -0.9307 -1.3805
  320MOL    H6345361   2.589   7.280   5.363 -2.2929 -0.9371  0.2969
  320MOL    H6445362   2.632   7.371   5.069 -0.4172  0.9644  0.7271
  320MOL    C6545363   2.466   7.243   5.121  0.6260  0.1735  0.1977
  320MOL    C6645364   2.460   7.180   4.976  0.3000 -0.6557 -0.6708
  320MOL    C6745365   2.541   7.248   4.873 -0.1097 -0.0362  0.3143
  320MOL    N6845366   2.610   7.301   4.792 -0.4576  0.1786 -0.1160
  320MOL    H6945367   2.427   7.178   5.200  0.3837  1.4495  1.1496
  320MOL    H7045368   2.399   7.329   5.122  0.6928  0.2517 -1.5638
  320MOL    H7145369   2.363   7.205   4.932  0.0936 -0.7884 -0.2876
  320MOL    C7245370   2.482   7.034   4.971  0.1469  0.3984  0.4679
  320MOL    C7345371   2.424   6.950   5.085  0.0968  0.0398 -0.4686
  320MOL    C7445372   2.290   7.000   5.131  0.0576  0.3141 -0.8192
  320MOL    N7545373   2.187   7.038   5.168 -0.2597 -1.0886 -0.1667
  320MOL    H7645374   2.431   6.993   4.883 -1.3231  0.6534  1.1821
  320MOL    H7745375   2.584   6.998   4.962 -0.5372 -1.1344 -1.5405
  320MOL    H7845376   2.485   6.972   5.173  0.0708  1.1627 -0.7196
  320MOL    C7945377   2.388   6.798   5.052  0.5394  0.8970  0.3385
  320MOL    C8045378   2.514   6.706   5.067  0.5595  0.5313  0.4104
  320MOL    C8145379   2.578   6.725   5.197  0.6610 -0.0038  0.1020
  320MOL    N8245380   2.631   6.742   5.299  0.2727  0.1429 -0.7316
  320MOL    H8345381   2.324   6.756   5.129  1.4334 -1.5587 -0.2156
  320MOL    H8445382   2.332   6.783   4.960 -0.4628 -0.6074  1.1895
  320MOL    H8545383   2.581   6.729   4.985 -1.5758  2.1896 -0.9567
  320MOL    C8645384   2.480   6.560   5.062  0.5932 -0.5415 -0.6983
  320MOL    C8745385   2.426   6.511   4.927 -0.1780 -0.9467  0.1301
  320MOL    C8845386   2.533   6.505   4.822  0.0986  0.2363 -0.0773
  320MOL    N8945387   2.611   6.497   4.734  0.4491  0.1263 -0.3151
  320MOL    H9045388   2.565   6.497   5.088  0.2539 -0.4158  0.7724
  320MOL    H9145389   2.419   6.527   5.146 -1.2476  1.4767 -1.2061
  320MOL    H9245390   2.360   6.584   4.880  1.7731  1.3393  0.7740
  320MOL    C9345391   2.334   6.389   4.938  0.0768  0.9133  0.5651
  320MOL    C9445392   2.243   6.349   4.815  0.0378 -0.0682  0.3498
  320MOL    C9545393   2.172   6.473   4.764  0.2616 -0.3426  0.0528
  320MOL    N9645394   2.115   6.567   4.724 -0.0168 -0.1028 -0.0936
  320MOL    H9745395   2.391   6.302   4.971  0.4494  0.8919 -0.1252
  320MOL    H9845396   2.259   6.418   5.011 -0.5035  2.5821 -0.6729
  320MOL    H9945397   2.161   6.289   4.854 -0.1261 -0.0660  0.0128
  320MOL   C10045398   2.311   6.266   4.695  0.2183  0.0778 -0.0350
  320MOL   C10145399   2.277   6.276   4.549 -0.0077  0.4910  0.2363
  320MOL   C10245400   2.132   6.274   4.516 -0.0128 -0.0152  0.7395
  320MOL   N10345401   2.019   6.276   4.498  0.4818  0.1638 -0.3690
  320MOL   H10445402   2.417   6.284   4.713  0.1446  0.1723  0.3126
  320MOL   H10545403   2.298   6.164   4.732 -0.1196  0.4847  0.9899
  320MOL   H10645404   2.327   6.185   4.514  0.6037  1.0017 -0.2475
  320MOL   C10745405   2.359   6.395   4.489  0.4024 -0.3540 -0.1427
  320MOL   C10845406   2.348   6.412   4.341 -0.2565 -0.4576  0.0161
  320MOL   C10945407   2.372   6.299   4.256  0.2224 -0.7570 -0.4123
  320MOL   N11045408   2.393   6.201   4.197  0.5219  0.1472  0.4083
  320MOL   H11145409   2.332   6.484   4.545 -0.3586  0.7201 -2.1687
  320MOL   H11245410   2.465   6.377   4.510  0.6775  1.3860  0.0578
  320MOL   H11345411   2.427   6.485   4.321 -0.3099 -0.5301 -0.4640
  320MOL   C11445412   2.227   6.489   4.289 -0.2096  0.3657  0.6914
  320MOL   C11545413   2.230   6.561   4.155 -0.3732 -0.1717 -0.1471
  320MOL   C11645414   2.095   6.567   4.101  0.3891 -0.1486 -0.4165
  320MOL   N11745415   1.987   6.571   4.060 -0.0113 -0.3808 -0.8182
  320MOL   H11845416   2.136   6.428   4.291  0.6622 -0.9806 -0.4226
  320MOL   H11945417   2.201   6.562   4.367 -0.0873 -0.6498  1.6951
  320MOL   H12045418   2.292   6.496   4.094  1.2316 -1.6825  2.9939
  320MOL   C12145419   2.296   6.694   4.160  0.5228 -0.8349  0.6910
  320MOL   C12245420   2.382   6.725   4.035 -0.0592 -0.3886  0.0937
  320MOL   C12345421   2.306   6.695   3.911  0.0993  0.4021 -0.0129
  320MOL   N12445422   2.240   6.670   3.821  0.5864  0.3561  0.1711
  320MOL   H12545423   2.215   6.767   4.165 -0.1229 -1.4360 -0.7456
  320MOL   H12645424   2.363   6.697   4.246  0.4317  0.4121  0.7208
  320MOL   H12745425   2.461   6.651   4.022 -0.6510 -1.0618  0.3059
  320MOL   C12845426   2.441   6.874   4.050 -0.3037 -0.4728  0.3223
  320MOL   C12945427   2.366   6.974   3.969  0.3922  0.0584 -0.2411
  320MOL   C13045428   2.390   6.967   3.826  0.3825  0.1179  0.2368
  320MOL   N13145429   2.404   6.959   3.712 -0.6673 -0.2999  0.6265
  320MOL   H13245430   2.451   6.902   4.155  3.2147 -2.7688  0.6849
  320MOL   H13345431   2.544   6.879   4.015 -0.2368 -2.1843  0.2661
  320MOL   H13445432   2.419   7.066   3.989  4.1084 -2.3611  1.6387
  320MOL   C13545433   2.215   6.979   3.997  0.2222  0.2928  0.4306
  320MOL   C13645434   2.138   7.111   3.957 -0.9078 -0.0500  0.0815
  320MOL   C13745435   1.993   7.100   3.983  0.0164  0.3502  0.0082
  320MOL   N13845436   1.878   7.092   4.007  0.0577 -0.4918  0.0342
  320MOL   H13945437   2.173   6.885   3.962  0.5633  0.3281 -0.0929
  320MOL   H14045438   2.213   6.980   4.106 -3.2889 -1.1337  0.4106
  320MOL   H14145439   2.165   7.144   3.857 -1.3360  0.8113  0.2384
  320MOL   H14245440   2.179   7.198   4.008 -1.0706 -1.4830  2.7683
  321MOL     C145441   4.201   1.371   2.086  0.2435 -0.2748  0.4059
  321MOL     C245442   4.296   1.378   2.213 -0.7704  0.1420  0.2413
  321MOL     C345443   4.219   1.421   2.328 -0.5018 -0.5368  0.4842
  321MOL     N445444   4.164   1.457   2.421 -0.0399 -0.1694 -0.7822
  321MOL     H545445   4.266   1.357   2.000  0.5159 -2.5833  0.9553
  321MOL     H645446   4.143   1.461   2.068  0.1125 -0.7436 -1.5741
  321MOL     H745447   4.369   1.457   2.192  1.1034 -1.3607  0.9739
  321MOL     H845448   4.126   1.292   2.096 -1.3155  1.5734  4.9404
  321MOL     C945449   4.363   1.242   2.244  0.6828 -0.4263 -0.3683
  321MOL    C1045450   4.423   1.231   2.379 -0.0697  0.2111 -0.8322
  321MOL    C1145451   4.490   1.360   2.412  0.8045 -0.4734 -0.8467
  321MOL    N1245452   4.540   1.459   2.440  0.3202 -0.6547 -0.0792
  321MOL    H1345453   4.296   1.158   2.228 -0.3970  0.5796 -1.2622
  321MOL    H1445454   4.425   1.220   2.157  2.0946  2.8805 -0.2748
  321MOL    H1545455   4.494   1.149   2.377 -0.4498 -0.1641  0.7207
  321MOL    C1645456   4.335   1.176   2.495 -0.1780 -0.1179 -0.4157
  321MOL    C1745457   4.402   1.197   2.636 -0.5583  0.1885 -0.3546
  321MOL    C1845458   4.341   1.307   2.719  0.0046 -0.6832  0.0400
  321MOL    N1945459   4.300   1.399   2.785  0.1748  0.0467  0.3466
  321MOL    H2045460   4.233   1.213   2.478  0.9189  2.4619 -1.7871
  321MOL    H2145461   4.311   1.071   2.478  1.4021 -0.6388  0.4829
  321MOL    H2245462   4.507   1.225   2.638 -0.3108 -0.7159 -0.2459
  321MOL    C2345463   4.399   1.070   2.727 -0.3712 -0.0422  0.1559
  321MOL    C2445464   4.483   1.076   2.853  0.2000  0.0127  0.1450
  321MOL    C2545465   4.393   1.117   2.960 -0.1305  0.2260 -0.0890
  321MOL    N2645466   4.322   1.151   3.049  0.0728  0.0568 -0.2054
  321MOL    H2745467   4.301   1.023   2.737 -0.0846 -0.3954  1.3284
  321MOL    H2845468   4.448   0.998   2.661 -0.3640  0.5091 -0.4500
  321MOL    H2945469   4.545   1.163   2.834 -0.4485  0.8095  1.5801
  321MOL    C3045470   4.563   0.944   2.884 -0.3147 -1.1088 -0.3179
  321MOL    C3145471   4.692   0.953   2.978  0.4029 -0.7058 -0.1484
  321MOL    C3245472   4.741   0.817   3.005  0.1961 -1.1330  0.7518
  321MOL    N3345473   4.783   0.711   3.019 -0.4763  0.4533 -0.5124
  321MOL    H3445474   4.484   0.883   2.928 -1.2321  1.8452  2.3310
  321MOL    H3545475   4.598   0.892   2.795  1.4051 -0.7111  0.1174
  321MOL    H3645476   4.669   0.987   3.078 -0.1285 -0.7201 -0.2641
  321MOL    C3745477   4.803   1.041   2.920  0.6129 -0.3704 -0.6629
  321MOL    C3845478   4.875   1.112   3.033  0.3053 -0.6860 -0.5548
  321MOL    C3945479   4.959   1.015   3.100 -0.4501  0.5840 -0.0366
  321MOL    N4045480   5.023   0.940   3.158  0.2931 -0.2468  0.2148
  321MOL    H4145481   4.866   0.984   2.853  0.2329 -0.6874 -0.7568
  321MOL    H4245482   4.763   1.120   2.857 -1.0044 -0.9228 -0.3555
  321MOL    H4345483   4.810   1.150   3.112  0.3600  0.7873 -1.1993
  321MOL    C4445484   4.958   1.233   2.985 -0.0258  0.0023  0.2543
  321MOL    C4545485   5.054   1.285   3.089 -0.1022  0.3728 -0.5697
  321MOL    C4645486   5.185   1.227   3.075  0.0520 -0.6723  0.2426
  321MOL    N4745487   5.286   1.180   3.054 -0.2460 -0.6316 -0.1111
  321MOL    H4845488   5.003   1.216   2.887  1.2041  1.1235  0.6169
  321MOL    H4945489   4.892   1.318   2.964  0.5206  0.5096  0.5958
  321MOL    H5045490   5.027   1.256   3.191 -3.7125 -0.6744 -1.7655
  321MOL    C5145491   5.072   1.441   3.094  0.3545  0.2247  0.3555
  321MOL    C5245492   5.128   1.505   2.952 -0.0741 -0.0540  0.5404
  321MOL    C5345493   5.024   1.508   2.849 -0.3925  0.5205  0.6538
  321MOL    N5445494   4.940   1.519   2.773  0.7434 -0.0639  0.6027
  321MOL    H5545495   4.977   1.484   3.125  0.0654  1.0992 -1.6343
  321MOL    H5645496   5.140   1.456   3.178 -0.2016  1.1948  0.6361
  321MOL    H5745497   5.203   1.437   2.911  1.5481  2.1441 -0.1982
  321MOL    C5845498   5.198   1.639   2.963  0.0463  0.4754 -0.4256
  321MOL    C5945499   5.109   1.764   2.979 -0.5264  0.1463  0.3612
  321MOL    C6045500   5.023   1.743   3.102 -0.5838 -0.0974 -0.3328
  321MOL    N6145501   4.958   1.732   3.197 -0.3613 -0.1601 -0.2221
  321MOL    H6245502   5.271   1.636   3.043 -0.6889 -1.1633  0.2066
  321MOL    H6345503   5.262   1.650   2.875  3.5434 -0.1027  1.9505
  321MOL    H6445504   5.044   1.770   2.892  0.1705  0.7352 -0.1164
  321MOL    C6545505   5.190   1.891   2.998 -0.3325 -0.1202  0.2058
  321MOL    C6645506   5.099   2.016   3.012 -0.5465  0.1004  0.5893
  321MOL    C6745507   5.052   2.050   3.144 -0.8727 -0.2306 -0.1503
  321MOL    N6845508   5.008   2.072   3.249 -0.1709  0.2631 -0.8333
  321MOL    H6945509   5.261   1.880   3.080  0.3566  2.4079 -0.0204
  321MOL    H7045510   5.255   1.902   2.911  1.4366  2.4635  1.7820
  321MOL    H7145511   5.007   1.986   2.962  0.8650 -2.6244 -0.4639
  321MOL    C7245512   5.151   2.139   2.928 -0.1194 -0.5615  0.4979
  321MOL    C7345513   5.035   2.230   2.882 -0.3058 -0.1951 -0.8467
  321MOL    C7445514   5.081   2.370   2.867  0.4450  0.5196  0.3573
  321MOL    N7545515   5.116   2.479   2.855  0.2000  0.0392  0.2466
  321MOL    H7645516   5.232   2.199   2.970  0.3243 -1.9558  1.6766
  321MOL    H7745517   5.198   2.091   2.842 -0.4533  2.3444 -1.3897
  321MOL    H7845518   4.960   2.232   2.961 -0.7014  0.0363 -1.2237
  321MOL    C7945519   4.983   2.166   2.752 -0.5991 -0.1742 -0.1146
  321MOL    C8045520   4.870   2.243   2.678 -0.2777  0.1867 -0.0272
  321MOL    C8145521   4.833   2.170   2.560 -0.4005 -0.6313 -0.8764
  321MOL    N8245522   4.807   2.112   2.463 -0.1991  0.5124  0.1493
  321MOL    H8345523   5.064   2.131   2.688 -0.2572 -0.9845  0.7474
  321MOL    H8445524   4.935   2.072   2.781 -0.0214  0.0076  1.4521
  321MOL    H8545525   4.910   2.333   2.631 -2.3818  0.5167 -1.2440
  321MOL    C8645526   4.740   2.273   2.760 -0.0283  0.6381  0.1139
  321MOL    C8745527   4.626   2.338   2.679 -0.3144 -0.3312 -0.0694
  321MOL    C8845528   4.663   2.425   2.564  0.6616 -0.0585 -0.2253
  321MOL    N8945529   4.690   2.487   2.474  0.3781  0.8075 -0.8686
  321MOL    H9045530   4.712   2.181   2.810 -1.6871  0.1077 -1.7208
  321MOL    H9145531   4.765   2.336   2.846 -0.3969 -0.4610  1.0315
  321MOL    H9245532   4.574   2.396   2.756  0.1989 -1.7312  1.3789
  321MOL    C9345533   4.529   2.225   2.630 -0.9231 -0.4614 -0.0060
  321MOL    C9445534   4.382   2.271   2.616 -0.7301  0.7578 -0.1484
  321MOL    C9545535   4.371   2.364   2.505  0.7455 -0.1467 -0.0135
  321MOL    N9645536   4.365   2.439   2.418  0.0052  0.5098  0.3015
  321MOL    H9745537   4.561   2.187   2.533 -1.0992 -2.1797  0.5927
  321MOL    H9845538   4.536   2.134   2.691  3.5313  1.6123  2.8359
  321MOL    H9945539   4.343   2.328   2.700 -3.0090 -2.0858  0.8263
  321MOL   C10045540   4.281   2.160   2.589  0.2663 -0.2944 -0.3937
  321MOL   C10145541   4.225   2.084   2.711  0.3008  0.1025  0.3013
  321MOL   C10245542   4.331   2.029   2.792 -0.2638  0.5701 -0.1825
  321MOL   N10345543   4.415   1.990   2.861  0.0163 -0.0977 -0.2640
  321MOL   H10445544   4.196   2.192   2.527  1.0879 -0.3336 -1.5614
  321MOL   H10545545   4.330   2.083   2.529 -0.5224 -0.2206 -1.1599
  321MOL   H10645546   4.178   1.994   2.670 -0.5994  0.4388  0.5823
  321MOL   C10745547   4.128   2.173   2.789 -1.1439  0.7789 -0.5705
  321MOL   C10845548   4.098   2.111   2.925 -0.8077 -0.6585 -0.0562
  321MOL   C10945549   4.204   2.154   3.020  0.2907  0.3672 -0.1078
  321MOL   N11045550   4.285   2.183   3.101  0.7958 -0.6017  0.1062
  321MOL   H11145551   4.181   2.266   2.806  1.5721 -0.8271  0.0339
  321MOL   H11245552   4.041   2.203   2.731 -0.2796  3.9163 -0.3347
  321MOL   H11345553   4.089   2.003   2.920  0.8100 -0.9149  1.8990
  321MOL   C11445554   3.964   2.156   2.986 -0.1505 -0.4294  0.6029
  321MOL   C11545555   3.949   2.303   3.044  0.0163 -0.4177 -0.3469
  321MOL   C11645556   4.012   2.404   2.959  0.1773 -0.4428  0.2422
  321MOL   N11745557   4.073   2.484   2.893 -0.4623  0.5482  0.3332
  321MOL   H11845558   3.895   2.135   2.905 -1.0150  2.1178  0.6368
  321MOL   H11945559   3.939   2.081   3.062  2.7168  0.1217  2.1587
  321MOL   H12045560   4.021   2.305   3.126 -0.3765 -0.9958  0.0084
  321MOL   C12145561   3.809   2.329   3.081 -0.7864 -0.0909 -0.1978
  321MOL   C12245562   3.782   2.459   3.147 -0.4133  0.3437 -0.2869
  321MOL   C12345563   3.644   2.505   3.135  0.0919 -0.6537 -0.2203
  321MOL   N12445564   3.533   2.544   3.123 -0.7003 -0.7673  0.5789
  321MOL   H12545565   3.742   2.332   2.995 -1.3088 -0.1309  0.2032
  321MOL   H12645566   3.777   2.245   3.143  2.5950 -1.2010  0.1513
  321MOL   H12745567   3.848   2.533   3.103  0.4562  0.1672  0.7203
  321MOL   C12845568   3.806   2.454   3.296 -0.4616  0.3697 -0.1817
  321MOL   C12945569   3.833   2.582   3.370 -0.1289 -0.5289  0.2251
  321MOL   C13045570   3.816   2.561   3.518  0.1209  0.0485  0.1841
  321MOL   N13145571   3.800   2.545   3.633 -0.1772  0.0700  0.2399
  321MOL   H13245572   3.726   2.396   3.340  1.0588 -0.1003  2.0235
  321MOL   H13345573   3.889   2.387   3.318  0.0217  0.7920 -0.6875
  321MOL   H13445574   3.757   2.656   3.342  0.6023 -0.8989 -2.8113
  321MOL   C13545575   3.973   2.640   3.338 -0.4885 -0.9393  0.0871
  321MOL   C13645576   4.011   2.765   3.419  0.1869 -0.2049 -0.0272
  321MOL   C13745577   4.106   2.857   3.352  0.4857  0.2175 -0.2417
  321MOL   N13845578   4.177   2.919   3.297  0.3632 -0.4362 -0.2499
  321MOL   H13945579   4.050   2.563   3.342  0.4813 -0.0737 -1.1813
  321MOL   H14045580   3.974   2.659   3.230 -1.5049  0.7104  0.3485
  321MOL   H14145581   4.046   2.742   3.520  0.5170 -0.0790 -0.1124
  321MOL   H14245582   3.913   2.810   3.431  0.6924  1.0088 -0.3922
  322MOL     C145583   6.830   7.620   1.022 -0.1539  0.4976  0.0654
  322MOL     C245584   6.945   7.654   0.922  0.1330  0.0603 -0.5620
  322MOL     C345585   6.924   7.552   0.814  0.2043 -0.1678  0.6041
  322MOL     N445586   6.909   7.469   0.736  0.1633  0.1758  0.3735
  322MOL     H545587   6.836   7.685   1.109  2.8918 -1.5300  1.4331
  322MOL     H645588   6.820   7.518   1.059  1.0549 -0.3551 -1.8458
  322MOL     H745589   7.036   7.628   0.976 -0.4007 -0.4602  0.0793
  322MOL     H845590   6.733   7.636   0.976 -0.1538  2.5584  0.7420
  322MOL     C945591   6.943   7.799   0.871  0.1026 -0.3501  0.3846
  322MOL    C1045592   7.032   7.836   0.756 -0.3576  0.1104 -0.6401
  322MOL    C1145593   6.976   7.810   0.624  0.4455 -0.1692 -0.0960
  322MOL    N1245594   6.935   7.796   0.514  0.1515  0.0977  0.0779
  322MOL    H1345595   6.838   7.825   0.853  0.8291  0.1944 -3.7290
  322MOL    H1445596   6.963   7.855   0.962 -1.5006  1.0535 -0.0756
  322MOL    H1545597   7.136   7.804   0.763 -1.0824 -2.1547  0.5288
  322MOL    C1645598   7.045   7.990   0.764 -0.1160  0.0752  0.1703
  322MOL    C1745599   7.157   8.042   0.846  0.1732 -0.5437  0.3235
  322MOL    C1845600   7.285   7.983   0.811  0.1622  0.3908  0.3821
  322MOL    N1945601   7.390   7.939   0.780 -0.0192 -0.0460  0.0663
  322MOL    H2045602   7.060   8.028   0.663 -0.9036  1.9954  0.7530
  322MOL    H2145603   6.950   8.039   0.786 -0.1449 -0.3024  0.8923
  322MOL    H2245604   7.131   8.033   0.952 -0.7469 -2.5757 -0.0687
  322MOL    C2345605   7.162   8.201   0.831  0.3008 -0.5922  0.4092
  322MOL    C2445606   7.278   8.284   0.884  0.2126  0.2594 -0.5090
  322MOL    C2545607   7.316   8.251   1.023 -0.4942 -0.0440 -0.6369
  322MOL    N2645608   7.345   8.219   1.134  0.1608 -0.3502  0.7131
  322MOL    H2745609   7.141   8.229   0.727  4.0461  0.2687 -0.2008
  322MOL    H2845610   7.077   8.250   0.878 -0.7109 -0.0661 -1.8557
  322MOL    H2945611   7.233   0.071   0.885 -0.4324 -0.0230  1.8658
  322MOL    C3045612   7.391   8.293   0.784  0.2813  0.0893  0.6753
  322MOL    C3145613   7.355   0.042   0.649 -0.8850 -0.0388 -0.1132
  322MOL    C3245614   7.258   0.147   0.657 -0.2926 -0.3032 -0.0900
  322MOL    N3345615   7.177   0.228   0.656  0.0569 -0.1879 -0.0904
  322MOL    H3445616   7.474   0.038   0.826  0.6866 -0.1217  0.1786
  322MOL    H3545617   7.438   8.195   0.770  1.0618  0.3342  1.5179
  322MOL    H3645618   7.311   8.279   0.584 -3.0506  0.3146  0.9088
  322MOL    C3745619   7.485   0.079   0.577 -0.1343  0.3286 -0.1552
  322MOL    C3845620   7.591   8.282   0.539 -0.0596  0.1101 -0.4515
  322MOL    C3945621   7.540   8.154   0.484 -0.3457  0.1893  0.1812
  322MOL    N4045622   7.507   8.053   0.436  0.4128  0.2653 -0.3624
  322MOL    H4145623   7.447   0.132   0.490 -1.9107 -1.0047 -0.2221
  322MOL    H4245624   7.525   0.162   0.636 -1.7562  3.0915 -2.8000
  322MOL    H4345625   7.626   8.238   0.632 -1.6339  1.7623  0.9661
  322MOL    C4445626   7.708   0.030   0.468 -0.0405 -0.1806  0.2598
  322MOL    C4545627   7.805   8.249   0.399 -0.3380 -0.3574 -0.4778
  322MOL    C4645628   7.743   8.190   0.277  0.2028 -0.0566  0.3062
  322MOL    N4745629   7.702   8.141   0.184 -0.4735  0.2456 -0.1631
  322MOL    H4845630   7.671   0.107   0.400  0.1427  0.3117  0.7073
  322MOL    H4945631   7.768   0.092   0.534  0.1213 -0.0704  0.0070
  322MOL    H5045632   7.813   8.164   0.465  1.6501  0.5321  0.4486
  322MOL    C5145633   7.949   8.310   0.372  0.4773  0.5244  0.3860
  322MOL    C5245634   8.058   8.211   0.319  0.1999 -0.6223 -0.8731
  322MOL    C5345635   8.069   8.099   0.419  0.9769 -0.4451  0.6762
  322MOL    N5445636   8.075   8.007   0.491  0.6056  0.0962  0.6175
  322MOL    H5545637   7.935   0.082   0.304 -2.4830 -0.9944 -1.0087
  322MOL    H5645638   7.979   0.045   0.465 -0.4364  2.4837 -0.2805
  322MOL    H5745639   8.159   8.252   0.309  0.3789 -0.8276  0.0703
  322MOL    C5845640   8.031   8.161   0.177 -0.0829  0.1636  0.2583
  322MOL    C5945641   8.137   8.071   0.114 -0.0191  0.1761 -0.0259
  322MOL    C6045642   8.137   7.931   0.168 -0.4735  0.2748  0.2549
  322MOL    N6145643   8.136   7.817   0.208 -1.0366 -0.5089  0.0703
  322MOL    H6245644   7.941   8.099   0.172 -1.0004  1.5192 -0.3826
  322MOL    H6345645   8.007   8.251   0.121  3.3546  0.8689 -0.1803
  322MOL    H6445646   8.241   8.103   0.127  0.8037 -0.5746 -3.8849
  322MOL    C6545647   8.107   8.070   8.277  0.1217 -0.7241 -0.0411
  322MOL    C6645648   8.196   7.974   8.189  0.5070  0.3327  0.0339
  322MOL    C6745649   8.151   7.957   8.052  0.0826  0.1557 -0.3330
  322MOL    N6845650   8.111   7.944   7.945 -0.4458 -0.1712  0.0306
  322MOL    H6945651   8.001   8.050   8.262 -0.1736  0.7222  0.0868
  322MOL    H7045652   8.120   8.175   8.251  1.5941 -0.4591  1.6499
  322MOL    H7145653   8.173   7.872   8.218  0.6231  1.3866  4.1964
  322MOL    C7245654   0.038   7.994   8.194 -0.2583  0.0400 -0.5539
  322MOL    C7345655   0.129   7.873   8.155 -0.0786  0.6865  0.0443
  322MOL    C7445656   0.104   7.756   8.243 -0.4565 -0.3680 -0.8407
  322MOL    N7545657   0.085   7.662   8.310  0.2833  0.2389 -0.1841
  322MOL    H7645658   0.068   8.078   8.132  0.5940  0.6386  0.6480
  322MOL    H7745659   0.059   8.031   8.295  2.6090 -0.2684 -0.9995
  322MOL    H7845660   0.234   7.893   8.178  0.3167 -1.0326 -0.1825
  322MOL    C7945661   0.120   7.830   7.998 -0.0824 -0.1643 -0.0884
  322MOL    C8045662   0.137   7.944   7.896 -0.3906 -0.3076 -0.2090
  322MOL    C8145663   0.234   8.047   7.938  0.4827 -0.9680  0.8363
  322MOL    N8245664   0.310   8.126   7.966  0.4087 -0.6180  0.0195
  322MOL    H8345665   0.172   7.741   7.962 -1.2916 -1.8097  2.1472
  322MOL    H8445666   0.017   7.798   7.978 -0.2103  1.0512 -1.4637
  322MOL    H8545667   0.051   8.012   7.894 -0.5793 -0.4475  2.0663
  322MOL    C8645668   0.179   7.885   7.759  0.3963 -0.0156  0.4416
  322MOL    C8745669   0.333   7.848   7.738  0.4802 -0.2251  0.5236
  322MOL    C8845670   0.406   7.756   7.831  0.4737  0.0752  0.2333
  322MOL    N8945671   0.466   7.685   7.905 -0.8116  0.4005  0.3358
  322MOL    H9045672   0.125   7.796   7.727  1.2156 -0.8253  1.3118
  322MOL    H9145673   0.149   7.957   7.682  2.0049  0.1607 -0.0439
  322MOL    H9245674   0.388   7.940   7.758  0.9413 -0.2245 -0.6512
  322MOL    C9345675   0.359   7.822   7.590 -0.4629 -0.0819 -0.6614
  322MOL    C9445676   0.490   7.744   7.562 -0.4921  0.0989  0.6366
  322MOL    C9545677   0.482   7.602   7.588 -0.2790  0.6156  0.3588
  322MOL    N9645678   0.478   7.485   7.613  0.0052  0.4022  0.8245
  322MOL    H9745679   0.281   7.766   7.539 -0.3008 -1.3018  0.4023
  322MOL    H9845680   0.364   7.923   7.549 -2.9451  0.5545  0.4684
  322MOL    H9945681   0.566   7.782   7.631  0.3205  1.0064 -0.7290
  322MOL   C10045682   0.548   7.763   7.424  0.6798 -0.0498  0.1355
  322MOL   C10145683   0.698   7.724   7.401 -0.0577  0.1294  1.1709
  322MOL   C10245684   0.749   7.597   7.453 -0.4364 -0.0496 -0.3487
  322MOL   N10345685   0.796   7.500   7.498  0.1506 -0.0321 -0.8658
  322MOL   H10445686   0.492   7.697   7.358  1.3045  1.9655 -2.4870
  322MOL   H10545687   0.522   7.864   7.393  0.1841 -0.1657  0.1676
  322MOL   H10645688   0.750   7.794   7.467 -0.8505 -0.2275  2.2015
  322MOL   C10745689   0.765   7.758   7.262 -0.0341  0.0675  0.6293
  322MOL   C10845690   0.702   7.673   7.146  0.3533 -0.3411 -0.1133
  322MOL   C10945691   0.565   7.715   7.117  0.0886 -0.1309  0.1360
  322MOL   N11045692   0.457   7.744   7.098 -0.9452  0.0963 -0.7241
  322MOL   H11145693   0.744   7.862   7.235  2.0275  1.0987  2.8498
  322MOL   H11245694   0.873   7.756   7.269  0.2321  1.8053 -2.1297
  322MOL   H11345695   0.687   7.573   7.187  0.0075 -0.3105 -0.1570
  322MOL   C11445696   0.788   7.680   7.024 -0.5204  0.1861  0.4051
  322MOL   C11545697   0.843   7.543   6.989  0.5334  0.1945  0.6103
  322MOL   C11645698   0.927   7.495   7.103  0.1291  0.8096 -0.0770
  322MOL   N11745699   0.991   7.451   7.192  0.1700 -0.1828  0.0078
  322MOL   H11845700   0.732   7.718   6.939 -1.7426  0.2540  1.2236
  322MOL   H11945701   0.872   7.741   7.056 -0.2040 -0.8909  1.6808
  322MOL   H12045702   0.903   7.566   6.900 -1.3030 -0.1489 -0.7490
  322MOL   C12145703   0.733   7.447   6.950 -0.3169 -0.2959  0.2556
  322MOL   C12245704   0.787   7.329   6.854 -0.5242 -0.6815  0.4819
  322MOL   C12345705   0.863   7.229   6.930 -0.2704 -0.2713  0.0341
  322MOL   N12445706   0.932   7.150   6.987  0.1442  0.1145  0.2983
  322MOL   H12545707   0.688   7.409   7.041 -1.4905  0.8757  0.1719
  322MOL   H12645708   0.644   7.490   6.905  2.2699  1.4657 -3.4433
  322MOL   H12745709   0.854   7.371   6.779 -0.2455 -0.1732  1.0049
  322MOL   C12845710   0.665   7.263   6.793 -0.4036  0.1477  0.0427
  322MOL   C12945711   0.578   7.342   6.691  0.4764 -0.8643  0.0576
  322MOL   C13045712   0.676   7.384   6.593  0.6749  0.4577 -0.3199
  322MOL   N13145713   0.754   7.418   6.516  0.0475 -0.0283 -0.6132
  322MOL   H13245714   0.691   7.174   6.736 -0.8299  1.1139 -1.6734
  322MOL   H13345715   0.596   7.234   6.872 -1.2483  0.6780 -0.5008
  322MOL   H13445716   0.528   7.432   6.725  0.0313 -0.7307 -0.9337
  322MOL   C13545717   0.476   7.246   6.621  0.0435 -0.5141 -0.5144
  322MOL   C13645718   0.381   7.331   6.539 -0.4937 -0.1010  0.8384
  322MOL   C13745719   0.269   7.255   6.487 -0.7712 -0.0216  0.2902
  322MOL   N13845720   0.180   7.190   6.445 -0.3071 -0.1391 -0.2206
  322MOL   H13945721   0.531   7.171   6.563 -1.7507 -2.1219 -0.2030
  322MOL   H14045722   0.423   7.188   6.697  0.3634 -1.5807 -1.0838
  322MOL   H14145723   0.428   7.381   6.454 -1.4570 -0.9396 -0.2014
  322MOL   H14245724   0.337   7.402   6.609 -0.4947  0.6710  0.0732
  323MOL     C145725   3.695   7.216   7.315 -0.1915 -1.2064 -0.6192
  323MOL     C245726   3.850   7.249   7.276  0.0506 -0.6097 -0.5684
  323MOL     C345727   3.894   7.382   7.304  0.1102  0.3944 -0.1311
  323MOL     N445728   3.924   7.488   7.329  0.6584 -0.1070  0.6175
  323MOL     H545729   3.681   7.219   7.423 -2.5740  0.5552 -0.9489
  323MOL     H645730   3.674   7.112   7.287  0.4197 -1.7863  1.0572
  323MOL     H745731   3.861   7.254   7.168  0.8909 -1.5186 -0.5296
  323MOL     H845732   3.625   7.280   7.260 -0.5110 -0.5475  0.5437
  323MOL     C945733   3.949   7.150   7.341  0.0519 -0.0085 -0.4568
  323MOL    C1045734   3.916   7.007   7.298 -0.3699 -0.7593  1.3738
  323MOL    C1145735   3.909   6.998   7.150  0.1634 -0.2875  0.0842
  323MOL    N1245736   3.903   6.990   7.036  0.4182  0.2417  0.0752
  323MOL    H1345737   4.054   7.172   7.324 -0.2686  0.5581 -1.7282
  323MOL    H1445738   3.941   7.159   7.449 -1.2987  4.2687 -0.8009
  323MOL    H1545739   3.819   6.964   7.325 -1.8038  1.2373 -0.4302
  323MOL    C1645740   4.027   6.911   7.345  0.0620 -0.1340  0.9330
  323MOL    C1745741   4.022   6.864   7.489  0.0994  0.3885 -0.3537
  323MOL    C1845742   3.893   6.806   7.534 -0.2263 -0.3417 -0.4403
  323MOL    N1945743   3.793   6.770   7.580 -0.3810  0.6609 -0.3289
  323MOL    H2045744   4.025   6.821   7.282 -4.5668 -1.5241  2.8279
  323MOL    H2145745   4.123   6.960   7.329  0.2008 -1.3386 -2.4688
  323MOL    H2245746   4.032   6.953   7.550 -0.5978  3.0268 -3.9033
  323MOL    C2345747   4.123   6.756   7.526  0.5944 -0.4418  0.2027
  323MOL    C2445748   4.275   6.797   7.516 -0.2182 -0.1928  0.2540
  323MOL    C2545749   4.283   6.915   7.602  0.3205  0.0558  0.5599
  323MOL    N2645750   4.285   7.009   7.667  0.2618  0.0418  0.0161
  323MOL    H2745751   4.094   6.739   7.629  0.8520 -0.8638  0.2057
  323MOL    H2845752   4.092   6.669   7.469 -0.3398  0.6581 -1.0014
  323MOL    H2945753   4.296   6.833   7.415  0.6929 -0.4543  0.3414
  323MOL    C3045754   4.376   6.685   7.556  0.1171  0.5393 -0.1328
  323MOL    C3145755   4.403   6.583   7.443 -0.5836 -0.4200 -0.8941
  323MOL    C3245756   4.503   6.630   7.350 -0.0582  0.4557  0.8771
  323MOL    N3345757   4.581   6.668   7.272  0.0966 -0.0227 -0.4944
  323MOL    H3445758   4.465   6.736   7.593 -0.7575  1.4204  0.7908
  323MOL    H3545759   4.333   6.636   7.643  0.3519  0.9561  0.2209
  323MOL    H3645760   4.303   6.583   7.399 -1.2434  1.4170  0.5665
  323MOL    C3745761   4.430   6.439   7.495  0.0601  0.1957 -0.1577
  323MOL    C3845762   4.567   6.395   7.562  0.5492 -0.4194  0.6289
  323MOL    C3945763   4.620   6.498   7.660  0.1407 -0.3914  0.1945
  323MOL    N4045764   4.660   6.577   7.735 -0.6775 -0.1132  0.5341
  323MOL    H4145765   4.355   6.415   7.571 -0.7152 -4.3768 -2.1628
  323MOL    H4245766   4.404   6.378   7.408 -1.0781  0.9977 -0.3946
  323MOL    H4345767   4.641   6.392   7.482  2.3654 -2.7037  2.3408
  323MOL    C4445768   4.568   6.249   7.625 -0.2581 -0.1148  0.4854
  323MOL    C4545769   4.531   6.238   7.772 -0.5303  0.6360  0.5524
  323MOL    C4645770   4.421   6.322   7.819 -0.6851  0.6260 -0.2438
  323MOL    N4745771   4.332   6.383   7.857  0.5060 -0.5076 -0.1346
  323MOL    H4845772   4.512   6.173   7.570 -1.0981  1.1876 -0.5076
  323MOL    H4945773   4.670   6.213   7.625 -0.2615 -0.1249  1.0197
  323MOL    H5045774   4.612   6.282   7.830 -0.3079  0.4808  0.3605
  323MOL    C5145775   4.532   6.091   7.823  0.0715 -0.5393  0.3972
  323MOL    C5245776   4.667   6.015   7.823 -0.3296 -0.6765  0.0000
  323MOL    C5345777   4.783   6.091   7.871 -0.0522 -0.4493 -0.7545
  323MOL    N5445778   4.874   6.150   7.910  0.1812 -0.1113 -0.5847
  323MOL    H5545779   4.501   6.084   7.927 -2.4932  1.8002 -0.1271
  323MOL    H5645780   4.452   6.035   7.775 -1.0186 -0.6279  2.2768
  323MOL    H5745781   4.704   6.000   7.721 -3.3895  0.0160 -1.2843
  323MOL    C5845782   4.644   5.868   7.879 -0.9588 -0.8143  0.7214
  323MOL    C5945783   4.663   5.855   8.031 -0.2226 -0.4382 -0.3093
  323MOL    C6045784   4.549   5.903   8.102 -0.2344 -0.2456 -0.9589
  323MOL    N6145785   4.456   5.939   8.162 -0.5631  0.4882 -0.2377
  323MOL    H6245786   4.562   5.808   7.838  1.2866 -2.4138 -1.5362
  323MOL    H6345787   4.731   5.823   7.832 -2.4387 -1.8490 -1.1469
  323MOL    H6445788   4.751   5.911   8.061  0.2739 -1.5203  0.2973
  323MOL    C6545789   4.709   5.712   8.080  0.4924  1.0646 -0.4114
  323MOL    C6645790   4.611   5.593   8.056 -0.1204  0.3494  0.6778
  323MOL    C6745791   4.597   5.554   7.918  0.1421  0.2652 -0.4106
  323MOL    N6845792   4.583   5.522   7.807  0.3820 -0.0465 -0.5287
  323MOL    H6945793   4.801   5.691   8.025  1.5408  1.6107  1.0904
  323MOL    H7045794   4.727   5.711   8.187 -0.2255 -2.0930 -0.2895
  323MOL    H7145795   4.509   5.622   8.081  0.0806  1.7269 -0.0631
  323MOL    C7245796   4.658   5.465   8.138  0.4341  0.1443  0.6205
  323MOL    C7345797   4.618   5.331   8.083 -0.0383 -0.0328 -0.9212
  323MOL    C7445798   4.715   5.230   8.139 -0.1953 -1.0537 -0.1614
  323MOL    N7545799   4.786   5.155   8.181 -0.0073  0.2978 -0.2417
  323MOL    H7645800   4.766   5.481   8.136  0.4413 -0.0569 -2.8901
  323MOL    H7745801   4.627   5.466   8.243 -1.7482  1.9332 -0.0140
  323MOL    H7845802   4.626   5.336   7.975 -1.8779  0.4804 -1.0575
  323MOL    C7945803   4.474   5.298   8.128  0.5577 -0.0683  0.2890
  323MOL    C8045804   4.414   5.184   8.039 -0.7850 -0.4153 -0.2259
  323MOL    C8145805   4.398   5.205   7.892  0.4389  0.1454 -0.2139
  323MOL    N8245806   4.385   5.219   7.776  0.9013 -0.3896  0.2822
  323MOL    H8345807   4.483   5.269   8.233 -0.5153  0.7683  0.6266
  323MOL    H8445808   4.411   5.387   8.132  0.1491 -0.2543 -1.7530
  323MOL    H8545809   4.307   5.171   8.058 -0.9268  0.0307 -0.7063
  323MOL    C8645810   4.475   5.041   8.065  0.3490  0.1673 -0.4337
  323MOL    C8745811   4.473   4.996   8.210 -0.0072 -0.1884  0.2163
  323MOL    C8845812   4.344   5.013   8.269  0.0454 -0.0903 -1.3286
  323MOL    N8945813   4.238   5.025   0.007 -0.1098 -0.1005 -0.3695
  323MOL    H9045814   4.414   4.970   8.009 -3.3762  1.2042  2.0952
  323MOL    H9145815   4.572   5.028   8.018  1.6845  1.7451  1.8119
  323MOL    H9245816   4.532   5.071   8.263  0.2387 -1.7627  2.2372
  323MOL    C9345817   4.540   4.856   8.230 -0.1386  0.4722 -0.5939
  323MOL    C9445818   4.545   4.820   0.067  0.4906  0.9674 -0.5017
  323MOL    C9545819   4.592   4.678   0.090  1.2141 -0.3940  0.0974
  323MOL    N9645820   4.622   4.571   0.107 -0.7588 -0.0920  0.3922
  323MOL    H9745821   4.477   4.777   8.190  0.1587  0.3582 -0.8367
  323MOL    H9845822   4.637   4.837   8.183 -1.4843 -2.0697 -2.4767
  323MOL    H9945823   4.449   4.824   0.118  1.4586 -1.3200  1.5979
  323MOL   C10045824   4.647   4.923   0.141 -0.3118  0.1478  0.2452
  323MOL   C10145825   4.661   4.899   0.293  0.1825  0.1576  0.6833
  323MOL   C10245826   4.528   4.882   0.348 -0.2030 -0.1876 -0.1755
  323MOL   N10345827   4.424   4.860   0.396  0.8581  0.0697  0.2676
  323MOL   H10445828   4.740   4.912   0.085 -0.1539  0.3672  0.4690
  323MOL   H10545829   4.617   5.027   0.131 -1.0881  0.1176  2.0041
  323MOL   H10645830   4.705   4.989   0.335  1.3116  0.5497 -1.2381
  323MOL   C10745831   4.765   4.787   0.331 -0.6950  0.4780 -0.2338
  323MOL   C10845832   4.824   4.797   0.474 -0.0197  0.3139 -0.1740
  323MOL   C10945833   4.889   4.927   0.497  0.4701 -0.1803  0.3193
  323MOL   N11045834   4.941   5.029   0.522 -0.1154 -1.1824 -0.0944
  323MOL   H11145835   4.715   4.693   0.310 -1.8352  1.3138 -1.3363
  323MOL   H11245836   4.849   4.790   0.262 -0.2686  0.0690  0.2596
  323MOL   H11345837   4.918   4.743   0.461 -0.5047 -0.7442  0.6217
  323MOL   C11445838   4.738   4.754   0.597  0.0714  0.1767  0.0720
  323MOL   C11545839   4.718   4.601   0.609  0.0263  1.2286 -0.8219
  323MOL   C11645840   4.797   4.526   0.516  0.4648  0.7707 -0.6762
  323MOL   N11745841   4.861   4.473   0.438 -0.5405  0.4248 -0.1232
  323MOL   H11845842   4.786   4.800   0.683  0.0355 -2.9731  1.8701
  323MOL   H11945843   4.645   4.811   0.590  0.4455  0.4320 -3.7695
  323MOL   H12045844   4.612   4.579   0.598 -0.0670  1.4728 -0.4428
  323MOL   C12145845   4.732   4.546   0.749  0.3029 -0.5609  1.0611
  323MOL   C12245846   4.881   4.513   0.793 -0.1663  0.4083  0.4075
  323MOL   C12345847   4.966   4.625   0.747 -0.5765  0.3484  0.3829
  323MOL   N12445848   5.034   4.713   0.717  0.1388 -0.3854 -0.3272
  323MOL   H12545849   4.700   4.629   0.813  0.4483 -2.0275  3.0956
  323MOL   H12645850   4.667   4.460   0.766  0.8024 -1.0863  0.3377
  323MOL   H12745851   4.930   4.435   0.735 -0.3091  1.0327 -0.5683
  323MOL   C12845852   4.892   4.489   0.946  0.7529 -0.1181 -0.3398
  323MOL   C12945853   5.027   4.434   0.995  0.0983 -0.2241 -0.3201
  323MOL   C13045854   5.127   4.542   1.007 -0.1413 -0.1371  0.2592
  323MOL   N13145855   5.205   4.626   1.021 -0.3768  0.0745  0.3233
  323MOL   H13245856   4.854   4.568   1.011 -1.0846 -1.7831  0.6831
  323MOL   H13345857   4.820   4.408   0.959  0.4343  0.1798 -0.2237
  323MOL   H13445858   5.072   4.364   0.924 -4.5001 -2.4476 -1.2486
  323MOL   C13545859   5.010   4.364   1.127  0.4308 -0.3354  0.1126
  323MOL   C13645860   4.929   4.235   1.130  0.1038  1.1778 -0.1950
  323MOL   C13745861   4.984   4.126   1.040  0.0941  0.3691  0.5663
  323MOL   N13845862   5.022   4.047   0.966  0.0930  0.2825 -0.7905
  323MOL   H13945863   5.107   4.338   1.169 -0.2961 -1.6722  0.9965
  323MOL   H14045864   4.975   4.439   1.197 -1.4205 -0.1363 -0.9825
  323MOL   H14145865   4.824   4.253   1.109 -0.6057 -1.4350  0.9258
  323MOL   H14245866   4.923   4.192   1.230 -0.9995  3.5692  0.8021
  324MOL     C145867   7.085   4.669   0.903  0.2222  0.1145 -0.4033
  324MOL     C245868   7.002   4.544   0.894  0.1454  0.0986 -0.3121
  324MOL     C345869   6.965   4.492   1.025 -0.5023 -0.8553  0.0089
  324MOL     N445870   6.936   4.455   1.131  0.4116  0.4183  0.0028
  324MOL     H545871   7.049   4.767   0.934  1.1433 -0.4873  2.7998
  324MOL     H645872   7.122   4.699   0.805 -0.1610  0.3344 -0.4819
  324MOL     H745873   7.079   4.477   0.857 -1.4075 -0.2945 -2.9904
  324MOL     H845874   7.173   4.662   0.968  0.0319  0.5276 -0.0938
  324MOL     C945875   6.892   4.535   0.785  0.4542 -0.0327 -0.0695
  324MOL    C1045876   6.786   4.653   0.799 -0.2352 -0.2200 -0.0356
  324MOL    C1145877   6.844   4.784   0.765 -0.1165  0.1508 -0.0359
  324MOL    N1245878   6.890   4.885   0.734  0.3110  0.2760 -0.1357
  324MOL    H1345879   6.945   4.534   0.689 -0.0603 -1.0728 -0.3515
  324MOL    H1445880   6.841   4.439   0.794 -0.3078  0.3559 -0.2475
  324MOL    H1545881   6.766   4.673   0.904  1.8260  1.8943 -0.0232
  324MOL    C1645882   6.658   4.626   0.720  0.5108 -0.1804  0.5555
  324MOL    C1745883   6.652   4.667   0.568  0.3170 -1.5880 -0.2340
  324MOL    C1845884   6.779   4.635   0.504  0.3936  0.4804 -0.1261
  324MOL    N1945885   6.879   4.614   0.456 -0.6708 -0.2109  0.3448
  324MOL    H2045886   6.631   4.521   0.728  0.0459 -0.3660 -2.7296
  324MOL    H2145887   6.579   4.683   0.768  1.9840  1.8354  0.6458
  324MOL    H2245888   6.644   4.776   0.568  0.7803 -1.5354  0.9852
  324MOL    C2345889   6.544   4.607   0.478 -0.2737 -0.3956  0.2063
  324MOL    C2445890   6.400   4.615   0.530 -0.1839  0.1404  0.0227
  324MOL    C2545891   6.370   4.751   0.573 -0.4346  0.4304 -0.2526
  324MOL    N2645892   6.343   4.858   0.609 -0.1345 -0.7035  0.1702
  324MOL    H2745893   6.542   4.664   0.385  0.5591 -2.8130 -1.3556
  324MOL    H2845894   6.571   4.512   0.431 -1.9687 -0.5504 -0.4840
  324MOL    H2945895   6.402   4.542   0.611  0.2105  0.5684  0.4053
  324MOL    C3045896   6.304   4.584   0.408  0.8983  0.1117  0.1178
  324MOL    C3145897   6.327   4.444   0.340  0.0209  0.2057 -0.0948
  324MOL    C3245898   6.319   4.344   0.451  0.4594  0.3247  0.8180
  324MOL    N3345899   6.315   4.269   0.535  0.1285  0.4392 -0.3064
  324MOL    H3445900   6.202   4.594   0.447 -0.0675 -1.0075 -2.0373
  324MOL    H3545901   6.305   4.649   0.321  0.3487 -0.6478 -0.4675
  324MOL    H3645902   6.425   4.443   0.293 -0.2922  2.1506 -0.8710
  324MOL    C3745903   6.220   4.408   0.237 -0.2351 -0.4722  0.5673
  324MOL    C3845904   6.240   4.282   0.153 -0.2291 -0.0234  0.3566
  324MOL    C3945905   6.356   4.290   0.062 -0.1634  0.2254 -0.1423
  324MOL    N4045906   6.444   4.297   8.300 -0.3858  0.1559 -0.0647
  324MOL    H4145907   6.125   4.399   0.290 -0.8277  1.9360 -0.0438
  324MOL    H4245908   6.215   4.496   0.174  1.9368 -0.5570  0.2351
  324MOL    H4345909   6.158   4.277   0.081 -0.7539 -0.9782  1.0068
  324MOL    C4445910   6.242   4.147   0.228  0.2932 -0.1481  0.2330
  324MOL    C4545911   6.265   4.020   0.147  0.0421 -0.4106 -0.0077
  324MOL    C4645912   6.177   4.012   0.029 -0.1481  0.0029  0.1333
  324MOL    N4745913   6.116   4.005   8.243  0.2170  0.0133  0.4067
  324MOL    H4845914   6.326   4.142   0.297 -0.3760  0.7886  1.1458
  324MOL    H4945915   6.155   4.131   0.292  1.5600  0.3135  2.1320
  324MOL    H5045916   6.248   3.938   0.216 -1.0857 -0.5342 -0.4272
  324MOL    C5145917   6.413   3.988   0.099 -0.4877 -0.6898  0.4177
  324MOL    C5245918   6.464   3.858   0.165 -0.5624  0.2198 -0.9122
  324MOL    C5345919   6.592   3.829   0.094  0.2745  0.0009 -0.2838
  324MOL    N5445920   6.694   3.812   0.037 -0.3788  0.4478  0.1392
  324MOL    H5545921   6.406   3.981   8.303 -0.8210 -0.2175  0.4028
  324MOL    H5645922   6.484   4.070   0.107  2.8402 -3.2847 -1.3061
  324MOL    H5745923   6.394   3.777   0.145 -0.3137 -0.2374  0.0629
  324MOL    C5845924   6.509   3.873   0.315 -0.4966  0.1490  0.3015
  324MOL    C5945925   6.638   3.966   0.343 -0.5388  0.7279  0.1886
  324MOL    C6045926   6.640   4.116   0.325  0.3646  0.8271 -0.1649
  324MOL    N6145927   6.637   4.231   0.314  0.0429 -0.0174 -0.9659
  324MOL    H6245928   6.427   3.905   0.379 -0.6738 -0.2315  0.2692
  324MOL    H6345929   6.528   3.771   0.351 -2.3149  0.2981  1.7661
  324MOL    H6445930   6.722   3.930   0.283 -1.8341 -0.3393 -0.9948
  324MOL    C6545931   6.701   3.952   0.480  0.5344 -0.8054  0.7179
  324MOL    C6645932   6.602   3.966   0.595 -0.7224 -0.6461 -0.5195
  324MOL    C6745933   6.545   3.843   0.651  0.5516 -0.0661  0.0421
  324MOL    N6845934   6.499   3.745   0.687  0.1150 -0.1288 -0.6903
  324MOL    H6945935   6.750   3.855   0.480  2.1338 -0.0107  0.5313
  324MOL    H7045936   6.781   4.025   0.495 -0.0868  0.3133 -1.3138
  324MOL    H7145937   6.510   4.016   0.566 -0.0733  2.1991  2.0959
  324MOL    C7245938   6.676   4.049   0.708  0.3115 -0.4745 -0.1128
  324MOL    C7345939   6.593   4.073   0.838 -0.1240 -0.2424  0.3696
  324MOL    C7445940   6.682   4.152   0.927  0.1629  0.0547 -0.5244
  324MOL    N7545941   6.751   4.210   0.996 -0.1846 -0.0801  0.1034
  324MOL    H7645942   6.758   3.989   0.746  0.5932  1.8999  3.2602
  324MOL    H7745943   6.713   4.145   0.671 -2.1345  0.2105 -0.9258
  324MOL    H7845944   6.575   3.976   0.884  1.4985 -1.4787 -1.5395
  324MOL    C7945945   6.467   4.154   0.805 -0.5669  0.2952 -0.2808
  324MOL    C8045946   6.385   4.222   0.919 -0.3079  0.8246  0.7547
  324MOL    C8145947   6.454   4.343   0.962 -0.9119  0.1248 -0.1204
  324MOL    N8245948   6.506   4.443   0.990  0.0290 -0.4376 -0.3275
  324MOL    H8345949   6.488   4.229   0.729  0.1716 -2.3265 -2.7565
  324MOL    H8445950   6.389   4.087   0.769 -1.3563  0.5079  0.9930
  324MOL    H8545951   6.390   4.150   1.002 -1.0913 -0.1095  0.0027
  324MOL    C8645952   6.230   4.228   0.898  0.7164  0.3463  0.5291
  324MOL    C8745953   6.150   4.273   1.021  0.0494  0.4579  0.4147
  324MOL    C8845954   6.029   4.348   0.979  0.1721  0.0515 -0.0572
  324MOL    N8945955   5.925   4.402   0.952  0.4628 -0.7552  0.2077
  324MOL    H9045956   6.218   4.298   0.815  0.1663 -2.8273 -2.2084
  324MOL    H9145957   6.193   4.132   0.862 -1.7960  2.0228 -1.5878
  324MOL    H9245958   6.207   4.355   1.065 -0.7473  1.6679 -0.7491
  324MOL    C9345959   6.122   4.143   1.104 -0.0835 -0.2636  0.5068
  324MOL    C9445960   6.058   4.152   1.245  0.3031 -0.1171  0.5384
  324MOL    C9545961   5.907   4.166   1.238 -0.7000 -0.9656 -0.7601
  324MOL    N9645962   5.794   4.174   1.228  0.0466  0.2396  0.5739
  324MOL    H9745963   6.060   4.071   1.050  1.3043  0.6117 -2.3412
  324MOL    H9845964   6.214   4.085   1.108  0.8534  1.1567 -0.3423
  324MOL    H9945965   6.091   4.252   1.274  1.4855 -0.3437 -0.0084
  324MOL   C10045966   6.107   4.043   1.343  0.6730 -0.8203  0.6438
  324MOL   C10145967   6.095   4.074   1.496 -0.5703  0.2994  0.3669
  324MOL   C10245968   5.983   4.003   1.567 -0.3454 -0.5608  0.4190
  324MOL   N10345969   5.892   3.954   1.617 -0.5892  0.0649  0.0238
  324MOL   H10445970   6.068   3.945   1.316 -0.3715 -0.1248 -0.4271
  324MOL   H10545971   6.215   4.052   1.329  0.3481  1.2461 -0.8125
  324MOL   H10645972   6.058   4.176   1.503  1.2532  1.0334 -0.3384
  324MOL   C10745973   6.229   4.064   1.575  0.3201 -0.0396  0.7331
  324MOL   C10845974   6.292   3.922   1.575 -0.5774  0.4281 -0.4761
  324MOL   C10945975   6.300   3.841   1.450 -0.0035 -0.5175  0.3934
  324MOL   N11045976   6.298   3.776   1.355  0.1776  0.5724 -0.3122
  324MOL   H11145977   6.293   4.139   1.530 -1.2434  0.7670 -0.1701
  324MOL   H11245978   6.226   4.106   1.675 -1.4113  0.4120  0.5090
  324MOL   H11345979   6.229   3.866   1.644 -0.5647  0.6077 -0.3173
  324MOL   C11445980   6.434   3.935   1.633  0.0698 -0.0734 -0.2470
  324MOL   C11545981   6.519   3.811   1.642 -0.3029 -0.1529  0.0820
  324MOL   C11645982   6.662   3.844   1.663 -0.6681  0.4838 -0.2430
  324MOL   N11745983   6.770   3.878   1.682 -0.7256 -0.0498 -0.0815
  324MOL   H11845984   6.495   4.000   1.570  1.5058 -0.9229  0.2240
  324MOL   H11945985   6.422   3.994   1.723 -0.6196  0.5334 -0.7390
  324MOL   H12045986   6.516   3.770   1.541 -0.7007 -0.2542  0.1346
  324MOL   C12145987   6.466   3.710   1.750 -0.1640  0.5784  0.6203
  324MOL   C12245988   6.529   3.563   1.737 -0.3014  0.0770 -0.5443
  324MOL   C12345989   6.519   3.512   1.601  0.4054  0.3251 -0.3803
  324MOL   N12445990   6.507   3.476   1.495 -0.5105  0.0242  0.6719
  324MOL   H12545991   6.479   3.758   1.847 -0.8702  1.7794  0.1321
  324MOL   H12645992   6.359   3.707   1.728 -0.0887 -0.3226  0.3686
  324MOL   H12745993   6.477   3.489   1.798 -2.1558  0.4253 -1.7064
  324MOL   C12845994   6.679   3.559   1.790 -0.6332 -0.2116 -0.2355
  324MOL   C12945995   6.731   3.426   1.841  0.0453 -0.1632 -1.0339
  324MOL   C13045996   6.792   3.357   1.725  0.0832  0.4515 -0.6510
  324MOL   N13145997   6.832   3.305   1.634 -0.5609 -0.0220  0.1804
  324MOL   H13245998   6.747   3.594   1.713 -1.2980 -0.0297 -0.7495
  324MOL   H13345999   6.690   3.626   1.875 -0.4488  0.0391 -0.4596
  324MOL   H13446000   6.651   3.366   1.886 -0.8982 -0.2816 -2.8218
  324MOL   C13546001   6.824   3.452   1.959  0.7510  0.7583 -0.0723
  324MOL   C13646002   6.909   3.335   2.015 -0.0108  0.7770  1.3279
  324MOL   C13746003   7.016   3.294   1.921 -0.4830  0.8006  0.1731
  324MOL   N13846004   7.103   3.266   1.852  0.3197 -0.2087  0.0833
  324MOL   H13946005   6.885   3.542   1.951  0.4684  0.9469 -0.1091
  324MOL   H14046006   6.764   3.481   2.045  1.0839 -2.2433  1.2341
  324MOL   H14146007   6.850   3.243   2.014  0.6050  0.3722 -0.6285
  324MOL   H14246008   6.951   3.349   2.114  2.1501  1.4353  0.3516
  325MOL     C146009   3.805   0.879   2.353  0.3174  0.7135 -0.2714
  325MOL     C246010   3.954   0.905   2.354 -0.0535  0.2564 -0.0790
  325MOL     C346011   3.973   1.026   2.282  0.6408 -0.1644  0.5837
  325MOL     N446012   3.979   1.130   2.226  0.3685  0.4396 -0.0232
  325MOL     H546013   3.760   0.871   2.254 -0.3479 -0.7432  0.1291
  325MOL     H646014   3.749   0.961   2.399 -1.7994  0.6373 -2.6359
  325MOL     H746015   4.000   0.828   2.293  1.2275  0.4458  0.6192
  325MOL     H846016   3.773   0.795   2.414  1.9200  1.3801  1.5356
  325MOL     C946017   4.023   0.908   2.487 -0.0446  0.4626  0.6698
  325MOL    C1046018   4.031   0.772   2.553  0.5952  0.1424  0.7460
  325MOL    C1146019   4.085   0.666   2.464 -0.2654 -0.5258 -0.0048
  325MOL    N1246020   4.135   0.587   2.393 -0.2489 -0.4043  0.4188
  325MOL    H1346021   4.126   0.942   2.469 -0.1513  0.7038  0.5021
  325MOL    H1446022   3.988   0.986   2.554 -1.4963 -0.0501  0.5180
  325MOL    H1546023   3.928   0.750   2.580 -0.0249  1.3694 -0.5590
  325MOL    C1646024   4.130   0.767   2.682 -0.6608 -0.2877  0.4650
  325MOL    C1746025   4.151   0.631   2.754 -0.9951 -0.3626 -0.6499
  325MOL    C1846026   4.285   0.627   2.825 -0.3953 -0.5754 -0.0249
  325MOL    N1946027   4.388   0.625   2.877  0.2942  0.2576 -0.0129
  325MOL    H2046028   4.231   0.804   2.662 -0.6828 -0.5828 -0.2106
  325MOL    H2146029   4.083   0.833   2.755  0.2712  2.2640 -1.1707
  325MOL    H2246030   4.181   0.554   2.682 -1.1337 -0.7804 -0.2674
  325MOL    C2346031   4.032   0.600   2.849 -0.5252 -0.0894 -0.0907
  325MOL    C2446032   4.053   0.488   2.955 -0.2761 -0.1298 -0.0477
  325MOL    C2546033   4.111   0.546   3.079 -0.2016  0.7017 -0.0770
  325MOL    N2646034   4.157   0.593   3.171  0.9347  0.4024  0.0718
  325MOL    H2746035   4.016   0.689   2.909  0.5554 -0.8936  1.4297
  325MOL    H2846036   3.936   0.591   2.797 -0.8959 -0.1891  0.5971
  325MOL    H2946037   4.124   0.415   2.916  0.1597  0.5015 -0.4383
  325MOL    C3046038   3.911   0.419   2.970 -0.1253  0.2330  0.9047
  325MOL    C3146039   3.900   0.294   3.053 -0.3003 -0.2226  0.3479
  325MOL    C3246040   3.771   0.296   3.122 -0.7881  0.5611  0.0548
  325MOL    N3346041   3.672   0.302   3.177 -0.0358 -0.0893  0.0152
  325MOL    H3446042   3.840   0.496   2.999 -1.0379 -0.0253 -0.5670
  325MOL    H3546043   3.874   0.386   2.873  1.7191  0.2815  0.1584
  325MOL    H3646044   3.969   0.304   3.136 -0.6293  1.1163  0.4731
  325MOL    C3746045   3.931   0.159   2.976 -0.4486 -0.0795  0.4208
  325MOL    C3846046   3.935   0.035   3.057 -0.4005  0.9325 -0.2474
  325MOL    C3946047   3.804   8.288   3.092 -0.5116 -0.3174  0.0910
  325MOL    N4046048   3.703   8.243   3.122  0.3635 -0.3829  0.0485
  325MOL    H4146049   3.875   0.143   2.884  0.7590  1.9693 -0.6928
  325MOL    H4246050   4.033   0.165   2.938 -0.2399 -0.1489  0.9653
  325MOL    H4346051   3.979   0.064   3.152 -1.0327  1.3409 -0.0747
  325MOL    C4446052   4.021   8.239   3.005  0.0898 -0.1867  0.0962
  325MOL    C4546053   4.174   8.247   3.016 -0.4888 -0.0169 -0.7571
  325MOL    C4646054   4.211   8.311   3.149 -0.1416 -0.5892 -0.1936
  325MOL    N4746055   4.234   0.050   3.250 -0.8210 -0.2989 -0.4329
  325MOL    H4846056   4.003   8.149   3.065  1.8289 -1.3061 -1.0330
  325MOL    H4946057   3.999   8.218   2.901 -0.0038 -2.4455  0.5475
  325MOL    H5046058   4.204   8.311   2.933  0.1120  2.1367  1.0836
  325MOL    C5146059   4.242   8.116   2.996  0.2730 -0.7620 -0.0394
  325MOL    C5246060   4.383   8.118   2.938 -0.7171 -0.2546 -0.4421
  325MOL    C5346061   4.476   8.216   3.010  0.7936  0.0828 -0.2086
  325MOL    N5446062   4.546   8.283   3.073  0.2294 -0.5727 -0.2790
  325MOL    H5546063   4.232   8.047   3.080  2.1428  0.4135  1.1736
  325MOL    H5646064   4.180   8.060   2.925  0.9218 -0.6542 -0.7013
  325MOL    H5746065   4.387   8.155   2.835 -3.0518  1.3421 -0.0168
  325MOL    C5846066   4.422   7.972   2.932 -0.1398 -0.2517  0.3180
  325MOL    C5946067   4.541   7.943   2.843  0.3185  0.2302  0.6527
  325MOL    C6046068   4.665   7.981   2.914  0.4852  0.2170 -0.2443
  325MOL    N6146069   4.759   8.017   2.967  0.3058 -0.2472  0.2023
  325MOL    H6246070   4.434   7.924   3.029 -1.8275 -1.0137  0.1669
  325MOL    H6346071   4.335   7.922   2.889 -0.0959  0.6378 -0.8404
  325MOL    H6446072   4.535   8.007   2.755  1.1789  0.4576  0.7535
  325MOL    C6546073   4.550   7.798   2.802 -0.0935 -0.1974 -0.0203
  325MOL    C6646074   4.533   7.778   2.645 -0.4435 -0.5264 -0.4121
  325MOL    C6746075   4.652   7.834   2.582 -0.1810 -0.3380  1.2303
  325MOL    N6846076   4.750   7.876   2.535  0.5788 -0.8870 -0.2089
  325MOL    H6946077   4.650   7.758   2.821 -0.4556 -1.5818 -0.9323
  325MOL    H7046078   4.485   7.737   2.865  0.5401  0.8074  1.6383
  325MOL    H7146079   4.457   7.840   2.599 -0.0762  1.0946  1.1247
  325MOL    C7246080   4.526   7.629   2.607 -0.2592 -0.1954 -0.3475
  325MOL    C7346081   4.488   7.610   2.456 -0.2593 -0.3468 -0.4302
  325MOL    C7446082   4.555   7.491   2.404 -0.0075 -0.4922 -0.1871
  325MOL    N7546083   4.606   7.395   2.362  0.1758 -0.2117  0.2338
  325MOL    H7646084   4.617   7.574   2.632 -0.0935 -0.7544 -2.1115
  325MOL    H7746085   4.453   7.582   2.674  1.5726  0.5164  2.2128
  325MOL    H7846086   4.534   7.689   2.398 -1.3541 -0.5654 -1.6250
  325MOL    C7946087   4.331   7.628   2.415  0.7264  0.0147 -0.3515
  325MOL    C8046088   4.245   7.512   2.436  0.6430 -0.3759 -0.0004
  325MOL    C8146089   4.110   7.551   2.480  0.5723  0.1032 -0.1597
  325MOL    N8246090   4.007   7.583   2.523 -0.0071  0.4625  0.2063
  325MOL    H8346091   4.289   7.714   2.466  2.3900  0.7475 -0.1573
  325MOL    H8446092   4.328   7.662   2.311  1.0708  0.2045 -0.3014
  325MOL    H8546093   4.293   7.460   2.519  3.0439 -0.2928 -1.3050
  325MOL    C8646094   4.225   7.423   2.316  0.3084 -0.3757 -0.0820
  325MOL    C8746095   4.142   7.289   2.334 -0.4506 -0.0159  0.1601
  325MOL    C8846096   4.129   7.242   2.472 -0.3732 -0.2338  0.5797
  325MOL    N8946097   4.122   7.211   2.580  0.4792 -0.2116  0.4297
  325MOL    H9046098   4.177   7.484   2.240 -0.3281 -1.6186 -0.6878
  325MOL    H9146099   4.320   7.398   2.268 -0.4125  0.2199 -1.8405
  325MOL    H9246100   4.217   7.220   2.296 -1.5003 -0.7223 -0.6632
  325MOL    C9346101   4.022   7.271   2.243  0.0143 -0.0031  0.6460
  325MOL    C9446102   4.018   7.127   2.181 -0.4284  0.4476  0.2144
  325MOL    C9546103   4.009   7.020   2.286 -0.3958  0.5690 -0.1525
  325MOL    N9646104   3.995   6.943   2.372 -0.0127  0.1694  0.2866
  325MOL    H9746105   3.928   7.278   2.298 -0.4041 -2.4451  0.2897
  325MOL    H9846106   4.017   7.346   2.164 -4.6101 -0.5016  0.2840
  325MOL    H9946107   4.110   7.109   2.125 -0.4437 -3.4031  1.2518
  325MOL   C10046108   3.902   7.107   2.078  0.1130  0.4576  0.1338
  325MOL   C10146109   3.905   7.188   1.951 -0.2639  0.2972 -0.3296
  325MOL   C10246110   3.855   7.330   1.955 -0.4918  0.4877 -0.0867
  325MOL   N10346111   3.816   7.435   1.964 -0.4623 -0.0517 -0.6685
  325MOL   H10446112   3.900   7.002   2.049  2.1017  0.2918  0.4995
  325MOL   H10546113   3.802   7.129   2.113 -0.8488 -1.4761 -1.3087
  325MOL   H10646114   3.835   7.143   1.882 -1.4975 -0.9712  1.7014
  325MOL   C10746115   4.040   7.183   1.882  0.1094 -0.3272  0.8506
  325MOL   C10846116   4.035   7.233   1.736  0.2233 -0.0551  0.1198
  325MOL   C10946117   4.170   7.287   1.703 -0.2386 -0.0297 -0.0218
  325MOL   N11046118   4.272   7.328   1.679 -0.4715 -0.1113  0.7679
  325MOL   H11146119   4.100   7.243   1.949 -0.6709 -0.7963  1.9804
  325MOL   H11246120   4.088   7.085   1.886  0.4509 -0.1672  0.6313
  325MOL   H11346121   3.974   7.322   1.726 -0.9356 -1.0302 -1.8327
  325MOL   C11446122   3.991   7.121   1.640 -0.4598 -0.5042 -0.6632
  325MOL   C11546123   4.029   7.129   1.490  0.8766  0.0854 -0.6600
  325MOL   C11646124   4.060   6.990   1.440 -0.0973  0.1175  0.6358
  325MOL   N11746125   4.080   6.881   1.405  0.4199 -0.9447 -0.6662
  325MOL   H11846126   4.030   7.026   1.677 -1.9908 -0.7716  0.3012
  325MOL   H11946127   3.883   7.113   1.645 -0.5405  0.2811 -1.0848
  325MOL   H12046128   4.121   7.187   1.482  0.4811  0.6958 -0.7350
  325MOL   C12146129   3.922   7.189   1.404 -0.1038 -0.1514  0.1393
  325MOL   C12246130   3.880   7.333   1.433  0.5633  0.2777  0.4277
  325MOL   C12346131   3.989   7.429   1.444 -0.9363 -0.2479 -0.6062
  325MOL   N12446132   4.073   7.505   1.456 -0.1516 -0.4511  0.1920
  325MOL   H12546133   3.949   7.180   1.299 -1.0596 -3.4302  0.1228
  325MOL   H12646134   3.835   7.127   1.427  0.6769 -1.1137  0.5359
  325MOL   H12746135   3.829   7.327   1.529  1.2450 -1.5038  0.6965
  325MOL   C12846136   3.791   7.377   1.308 -0.3912  0.2751 -0.0469
  325MOL   C12946137   3.723   7.513   1.316  0.2989  0.6962  0.5415
  325MOL   C13046138   3.802   7.632   1.358 -0.4552  0.3295 -0.2838
  325MOL   N13146139   3.856   7.727   1.393  0.5227 -0.3533 -0.7473
  325MOL   H13246140   3.853   7.383   1.219 -1.2805 -0.1034 -0.6952
  325MOL   H13346141   3.711   7.304   1.292  2.7433 -2.5093 -3.8774
  325MOL   H13446142   3.645   7.502   1.391 -0.3885  2.2131  0.0775
  325MOL   C13546143   3.666   7.553   1.179  0.3212 -0.5501 -0.4787
  325MOL   C13646144   3.553   7.454   1.136 -0.3287 -0.2451 -0.5612
  325MOL   C13746145   3.451   7.429   1.238  0.2365  0.2330  0.0995
  325MOL   N13846146   3.374   7.408   1.318  0.2313  0.3432  0.3645
  325MOL   H13946147   3.623   7.651   1.197  0.3635 -0.7708  0.9102
  325MOL   H14046148   3.736   7.569   1.097 -0.5486 -3.0966 -1.7903
  325MOL   H14146149   3.592   7.354   1.117 -1.2038 -1.0608  1.6726
  325MOL   H14246150   3.491   7.482   1.051  0.8831  0.9034 -1.0897
  326MOL     C146151   0.967   1.817   6.353 -0.1269 -0.4319  0.4083
  326MOL     C246152   1.049   1.711   6.432  0.0753 -0.0686  0.5742
  326MOL     C346153   0.967   1.639   6.529  0.7194 -0.3322 -0.5216
  326MOL     N446154   0.903   1.580   6.609  0.1538  0.1948 -0.2503
  326MOL     H546155   0.879   1.765   6.315  0.4613 -2.2845  1.5197
  326MOL     H646156   1.021   1.851   6.264 -0.6580  0.0079  0.2526
  326MOL     H746157   1.129   1.766   6.482  1.6267  0.9898 -2.9239
  326MOL     H846158   0.935   1.893   6.424  1.8134 -0.4631  1.3422
  326MOL     C946159   1.109   1.615   6.320  0.1922  0.3112  0.1787
  326MOL    C1046160   1.182   1.491   6.376 -0.0065  0.8719  0.4709
  326MOL    C1146161   1.244   1.423   6.262  0.2165  1.3617  0.6984
  326MOL    N1246162   1.295   1.367   6.173  0.3197  0.2011 -0.1335
  326MOL    H1346163   1.025   1.575   6.264 -0.3139  1.3207  0.1974
  326MOL    H1446164   1.180   1.658   6.250  0.2991 -0.4389 -0.1782
  326MOL    H1546165   1.109   1.418   6.412 -1.7820  1.6433 -1.4891
  326MOL    C1646166   1.273   1.535   6.492 -0.3413 -0.1899 -0.1300
  326MOL    C1746167   1.356   1.425   6.559  0.2818 -0.4482  0.0448
  326MOL    C1846168   1.270   1.308   6.595 -1.0679 -0.2972  0.8357
  326MOL    N1946169   1.206   1.215   6.612 -0.3600  0.6947  0.3034
  326MOL    H2046170   1.336   1.619   6.463 -0.4412 -0.5178 -1.3240
  326MOL    H2146171   1.218   1.586   6.571 -1.1620 -2.8152  1.0526
  326MOL    H2246172   1.399   1.455   6.654 -0.3474  0.4030  0.0678
  326MOL    C2346173   1.483   1.383   6.473  0.0496  0.5402 -0.1329
  326MOL    C2446174   1.597   1.302   6.534 -0.3822  1.1880 -0.2374
  326MOL    C2546175   1.643   1.382   6.648 -0.1687 -0.4186  0.1529
  326MOL    N2646176   1.683   1.443   6.740 -0.3500  0.4140 -0.1954
  326MOL    H2746177   1.454   1.332   6.381  0.1644 -0.1900  0.2277
  326MOL    H2846178   1.520   1.473   6.423  1.2029  0.8363  1.2076
  326MOL    H2946179   1.680   1.287   6.465  0.9888 -1.2440  1.8623
  326MOL    C3046180   1.554   1.160   6.574 -0.4110 -0.3237  0.4230
  326MOL    C3146181   1.669   1.067   6.606 -0.1541  0.8599  0.0820
  326MOL    C3246182   1.611   0.959   6.680 -0.0296  0.2083 -0.8322
  326MOL    N3346183   1.566   0.870   6.738  0.1002 -0.1609  0.3334
  326MOL    H3446184   1.495   1.175   6.664 -0.9893  0.4431 -0.0731
  326MOL    H3546185   1.491   1.103   6.506 -1.4998 -0.0186  1.1542
  326MOL    H3646186   1.742   1.115   6.671 -0.4583  0.8506  0.4340
  326MOL    C3746187   1.736   1.008   6.476 -0.0412 -0.2315 -1.7845
  326MOL    C3846188   1.881   0.961   6.493 -0.4552 -0.0258 -0.2517
  326MOL    C3946189   1.895   0.861   6.600  0.1683  0.2010  0.1951
  326MOL    N4046190   1.905   0.784   6.685 -0.0457 -0.1073 -0.3390
  326MOL    H4146191   1.677   0.925   6.436  1.9438 -2.9812  0.7611
  326MOL    H4246192   1.739   1.081   6.396 -2.2740  0.0965 -1.5968
  326MOL    H4346193   1.938   1.049   6.522 -1.6509  1.2076 -1.5282
  326MOL    C4446194   1.939   0.921   6.356  0.4602  0.2496 -0.0546
  326MOL    C4546195   1.897   0.782   6.289 -0.3410 -0.5036 -0.5857
  326MOL    C4646196   1.757   0.782   6.249 -0.3236 -0.2971  0.8382
  326MOL    N4746197   1.649   0.794   6.213  0.6980 -0.0608 -0.5651
  326MOL    H4846198   1.940   1.001   6.282 -0.4125  0.6844  0.3939
  326MOL    H4946199   2.044   0.912   6.385  0.4092 -0.5855 -0.1100
  326MOL    H5046200   1.897   0.703   6.365  2.1509 -0.0034 -0.0486
  326MOL    C5146201   1.991   0.731   6.178 -0.7840 -0.4464 -0.0064
  326MOL    C5246202   1.976   0.587   6.136 -0.8914 -0.5680 -0.3231
  326MOL    C5346203   1.993   0.490   6.245 -0.4084 -0.3281 -0.1165
  326MOL    N5446204   2.000   0.423   6.336 -0.1497 -0.1635  0.0921
  326MOL    H5546205   1.985   0.801   6.095 -1.6467 -0.9269 -0.3620
  326MOL    H5646206   2.094   0.736   6.214 -0.6596 -1.6689 -0.1634
  326MOL    H5746207   2.071   0.574   6.084  0.2134  0.9755  1.2081
  326MOL    C5846208   1.864   0.557   6.043 -0.7071 -0.2651  0.4197
  326MOL    C5946209   1.860   0.627   5.907 -0.5632  0.0607 -0.0996
  326MOL    C6046210   1.989   0.605   5.829 -0.1242 -0.9120  0.5994
  326MOL    N6146211   2.088   0.590   5.768 -0.0977 -0.1295 -0.0228
  326MOL    H6246212   1.861   0.449   6.023  0.1719 -0.4829  1.4177
  326MOL    H6346213   1.768   0.579   6.089 -1.5368 -0.4669 -1.1745
  326MOL    H6446214   1.861   0.734   5.929 -0.6973  0.3696 -1.5469
  326MOL    C6546215   1.728   0.599   5.833  0.0497 -0.1018  0.1879
  326MOL    C6646216   1.725   0.661   5.692 -1.0828 -0.1204  0.3320
  326MOL    C6746217   1.604   0.599   5.630  0.3803  0.3220 -0.8745
  326MOL    N6846218   1.511   0.557   5.580  0.0725 -0.3464  0.2071
  326MOL    H6946219   1.717   0.492   5.820  0.9405 -0.0855 -0.8724
  326MOL    H7046220   1.654   0.627   5.908  0.5369 -0.5804  0.8534
  326MOL    H7146221   1.807   0.617   5.635  1.2632  1.8972  2.0547
  326MOL    C7246222   1.723   0.816   5.686 -0.8907 -0.1890  0.7366
  326MOL    C7346223   1.760   0.887   5.550  0.2257 -0.7311  0.7002
  326MOL    C7446224   1.679   0.826   5.445 -0.1665 -0.6319 -0.6298
  326MOL    N7546225   1.622   0.777   5.367 -0.3179  0.6710 -0.4169
  326MOL    H7646226   1.632   0.857   5.731  0.5164  1.0128  2.5832
  326MOL    H7746227   1.798   0.856   5.755  1.1630 -3.2716  0.3868
  326MOL    H7846228   1.866   0.864   5.533  0.3023 -0.2866  0.5738
  326MOL    C7946229   1.767   1.042   5.551 -0.5505 -0.5493  0.1230
  326MOL    C8046230   1.759   1.115   5.416 -0.6910 -0.2025  0.2226
  326MOL    C8146231   1.827   1.044   5.302 -0.5828 -0.7358  0.1122
  326MOL    N8246232   1.882   0.995   5.216  0.7753  0.4832  0.1197
  326MOL    H8346233   1.682   1.068   5.614 -0.6174  0.2356 -0.2904
  326MOL    H8446234   1.861   1.063   5.601 -1.0997  0.7173  0.6356
  326MOL    H8546235   1.808   1.211   5.432  1.2279 -1.2211  0.5393
  326MOL    C8646236   1.615   1.155   5.375 -0.2672 -0.0177 -0.6914
  326MOL    C8746237   1.611   1.224   5.239  0.3892  0.8409  0.2423
  326MOL    C8846238   1.482   1.266   5.196 -0.1891 -0.1301  0.4703
  326MOL    N8946239   1.375   1.296   5.168 -0.1165 -0.0325  0.0769
  326MOL    H9046240   1.556   1.063   5.369  0.2066 -0.3147 -0.9153
  326MOL    H9146241   1.581   1.216   5.458  1.2297 -1.9710  1.4309
  326MOL    H9246242   1.639   1.153   5.161 -1.7965 -1.9046  1.8346
  326MOL    C9346243   1.709   1.343   5.215 -0.3953  0.3776  0.1842
  326MOL    C9446244   1.692   1.471   5.305 -0.7948 -0.5362  0.2482
  326MOL    C9546245   1.774   1.444   5.424  0.4457 -0.5764  0.4677
  326MOL    N9646246   1.837   1.431   5.517 -0.0913  0.4780  0.3776
  326MOL    H9746247   1.811   1.305   5.217 -0.8140 -0.7343  2.7330
  326MOL    H9846248   1.681   1.374   5.115  0.8135  0.0977 -0.2447
  326MOL    H9946249   1.587   1.471   5.334 -0.8258  0.1857  0.1604
  326MOL   C10046250   1.741   1.598   5.234  0.0105 -0.5197 -0.1118
  326MOL   C10146251   1.744   1.729   5.313  0.3094 -0.0310  0.2464
  326MOL   C10246252   1.611   1.760   5.382 -0.5074 -0.2070  0.0918
  326MOL   N10346253   1.513   1.785   5.432  0.1210 -0.1859 -0.0786
  326MOL   H10446254   1.846   1.590   5.206 -0.4315 -2.3948 -1.3144
  326MOL   H10546255   1.679   1.614   5.146  1.3088  1.6963 -0.6497
  326MOL   H10646256   1.763   1.807   5.240  2.0008 -1.6367 -1.0489
  326MOL   C10746257   1.865   1.747   5.411 -0.0010  0.2852  0.4617
  326MOL   C10846258   1.893   1.893   5.446 -0.8076 -0.0392 -0.0011
  326MOL   C10946259   1.830   1.981   5.351 -0.8441 -0.6790 -0.6455
  326MOL   N11046260   1.782   2.055   5.280 -0.0158 -0.2269  0.5620
  326MOL   H11146261   1.857   1.695   5.507  1.3857 -0.3663  0.2245
  326MOL   H11246262   1.955   1.708   5.364 -0.7012  1.1793 -1.6844
  326MOL   H11346263   1.999   1.915   5.429 -0.5740 -0.8408  0.3768
  326MOL   C11446264   1.854   1.924   5.591  0.0277 -0.2099 -0.2358
  326MOL   C11546265   1.916   2.058   5.645 -0.3650 -0.4014 -0.4028
  326MOL   C11646266   1.822   2.169   5.630  0.5245  0.2610  0.1471
  326MOL   N11746267   1.742   2.256   5.628  0.5416 -0.0787  0.0133
  326MOL   H11846268   1.746   1.937   5.604  0.2282  0.5128  0.7595
  326MOL   H11946269   1.886   1.839   5.651  0.5512 -0.2932 -0.6304
  326MOL   H12046270   2.003   2.092   5.589 -0.2858 -0.2212 -0.1700
  326MOL   C12146271   1.959   2.038   5.793  0.8526  0.0738 -0.3921
  326MOL   C12246272   2.075   1.932   5.804 -0.2342  0.0487 -0.6130
  326MOL   C12346273   2.178   1.947   5.694  0.6084  0.5220 -0.1499
  326MOL   N12446274   2.255   1.959   5.609  0.2827 -0.6170 -0.2260
  326MOL   H12546275   2.003   2.131   5.829  3.2078 -1.3823  0.6456
  326MOL   H12646276   1.866   2.017   5.846  1.0508  1.3234  0.4638
  326MOL   H12746277   2.045   1.828   5.788 -0.3510  0.2690 -1.8479
  326MOL   C12846278   2.139   1.943   5.947  0.0644 -0.3748  0.5384
  326MOL   C12946279   2.231   1.831   6.000 -0.0912  0.1941 -0.0239
  326MOL   C13046280   2.171   1.698   5.993 -0.1067 -0.1864  0.2306
  326MOL   N13146281   2.125   1.590   5.986  0.2126  0.1316  0.1323
  326MOL   H13246282   2.198   2.034   5.944 -1.3000  0.6828  3.3129
  326MOL   H13346283   2.053   1.963   6.011 -1.8012  0.8361 -2.2719
  326MOL   H13446284   2.230   1.849   6.107  1.2054 -0.7744  0.1597
  326MOL   C13546285   2.371   1.826   5.934 -0.6104 -0.2917 -0.8597
  326MOL   C13646286   2.446   1.695   5.975 -0.2701  0.2563 -0.0151
  326MOL   C13746287   2.562   1.664   5.888  0.1037  0.5992 -1.1323
  326MOL   N13846288   2.654   1.639   5.820 -0.3332 -0.3715  0.6152
  326MOL   H13946289   2.365   1.830   5.826 -2.0317  0.4341 -0.7580
  326MOL   H14046290   2.429   1.910   5.973  0.7427 -0.0763 -3.2510
  326MOL   H14146291   2.389   1.604   5.961  0.2725 -0.2316  0.8817
  326MOL   H14246292   2.477   1.699   6.079  1.6087  0.9307 -0.5835
  327MOL     C146293   1.527   6.842   6.460 -0.3118 -0.2611  0.4484
  327MOL     C246294   1.416   6.940   6.417 -0.5749 -0.0189 -0.1521
  327MOL     C346295   1.467   7.039   6.320 -1.0102 -0.0283  0.0627
  327MOL     N446296   1.501   7.113   6.238  0.5479  0.0338 -0.6491
  327MOL     H546297   1.625   6.889   6.457  0.4237 -1.8326 -0.3053
  327MOL     H646298   1.524   6.753   6.398 -0.7161  0.2009 -0.2031
  327MOL     H746299   1.381   6.984   6.510  0.5511 -2.3476  1.4505
  327MOL     H846300   1.509   6.823   6.566 -3.5789  0.5930  0.1126
  327MOL     C946301   1.286   6.879   6.355 -0.2291  0.0987  0.7174
  327MOL    C1046302   1.229   6.757   6.438  0.2002 -0.1742  0.7184
  327MOL    C1146303   1.305   6.634   6.411  0.3361  0.0565  0.0277
  327MOL    N1246304   1.363   6.537   6.385  0.0992 -0.3014 -0.2093
  327MOL    H1346305   1.215   6.962   6.349  0.4542  0.7110  1.0103
  327MOL    H1446306   1.302   6.846   6.253  0.9248  1.7997  0.3339
  327MOL    H1546307   1.134   6.737   6.387  0.4444  0.9932 -0.2180
  327MOL    C1646308   1.202   6.799   6.582  0.1468 -0.1759  0.3417
  327MOL    C1746309   1.133   6.695   6.676  0.6812  0.5208 -0.8120
  327MOL    C1846310   1.196   6.564   6.672  0.4668 -0.7169 -0.4445
  327MOL    N1946311   1.251   6.459   6.671  0.2050  0.2465  0.0254
  327MOL    H2046312   1.303   6.794   6.622  0.2482  1.8207  0.3876
  327MOL    H2146313   1.160   6.899   6.592  1.2143  0.3405 -0.2742
  327MOL    H2246314   1.038   6.678   6.627  1.1840  1.2337 -2.0568
  327MOL    C2346315   1.117   6.750   6.823  0.2586  0.7903  0.8340
  327MOL    C2446316   1.010   6.854   6.860  0.0633  0.0936  0.6223
  327MOL    C2546317   0.950   6.947   6.766 -0.4098 -0.1859 -0.5960
  327MOL    N2646318   0.894   7.015   6.689  0.9303  0.5465 -0.7425
  327MOL    H2746319   1.101   6.653   6.870 -2.2846  2.3660  3.3657
  327MOL    H2846320   1.212   6.796   6.853  1.9836 -1.4042 -1.1141
  327MOL    H2946321   1.072   6.921   6.920 -0.8856  1.2886  0.2964
  327MOL    C3046322   0.916   6.810   6.974  0.1465  0.0245  0.0659
  327MOL    C3146323   0.789   6.748   6.917  0.0704  0.3631 -0.0598
  327MOL    C3246324   0.830   6.621   6.852  0.2300 -0.9606  0.2293
  327MOL    N3346325   0.865   6.528   6.804 -0.7387  0.4678 -0.1036
  327MOL    H3446326   0.966   6.754   7.053 -1.5052 -0.6983  0.6224
  327MOL    H3546327   0.886   6.901   7.025 -1.6830 -0.2602 -0.4850
  327MOL    H3646328   0.759   6.815   6.836  0.4070  2.0631  1.2200
  327MOL    C3746329   0.677   6.718   7.022 -0.1459  0.3334 -0.0255
  327MOL    C3846330   0.561   6.624   6.993  0.3658  0.8430  0.7181
  327MOL    C3946331   0.606   6.484   6.973 -0.2765 -0.0181  0.4976
  327MOL    N4046332   0.642   6.376   6.963 -0.6720  0.2955  0.9001
  327MOL    H4146333   0.726   6.681   7.112 -2.2865  1.3139  1.6068
  327MOL    H4246334   0.639   6.812   7.064 -2.7690  0.4436 -2.4741
  327MOL    H4346335   0.509   6.665   6.907 -0.8861 -0.5950  0.7699
  327MOL    C4446336   0.457   6.613   7.107 -0.1278 -0.4481 -0.3458
  327MOL    C4546337   0.323   6.529   7.085  0.2427 -0.5288  0.0050
  327MOL    C4646338   0.332   6.397   7.147  0.1889 -0.2522 -0.4824
  327MOL    N4746339   0.348   6.297   7.191  0.4577  0.1111  0.3320
  327MOL    H4846340   0.508   6.562   7.189 -1.1565  2.5035  2.2320
  327MOL    H4946341   0.431   6.710   7.150  0.1276 -1.0691  1.2664
  327MOL    H5046342   0.317   6.512   6.978 -2.3312  2.2374 -0.3793
  327MOL    C5146343   0.197   6.614   7.125  0.2988  0.8316  0.8319
  327MOL    C5246344   0.147   6.732   7.044  0.2876 -0.2749  0.2782
  327MOL    C5346345   0.240   6.834   6.999 -0.3490 -0.3429  0.5692
  327MOL    N5446346   0.313   6.917   6.965  0.9624 -0.3515  0.2711
  327MOL    H5546347   0.109   6.552   7.119 -0.6246  2.3484 -2.2929
  327MOL    H5646348   0.211   6.651   7.227  2.7056  1.5867  0.2668
  327MOL    H5746349   0.079   6.778   7.116 -1.9777 -1.7247 -0.8608
  327MOL    C5846350   0.061   6.698   6.914  0.0472 -0.2010 -0.1870
  327MOL    C5946351   8.234   6.636   6.939  0.1266 -0.0281 -0.3247
  327MOL    C6046352   8.169   6.715   7.045 -0.2934  0.2937  0.0691
  327MOL    N6146353   8.130   6.780   7.130 -0.4994  0.6830  0.0902
  327MOL    H6246354   0.040   6.774   6.839 -1.1290  1.4113  1.7262
  327MOL    H6346355   0.108   6.617   6.858 -1.2218 -1.6311  0.7601
  327MOL    H6446356   8.263   6.539   6.979 -0.5734  1.1098  3.0721
  327MOL    C6546357   8.148   6.632   6.813 -0.0199  0.2147 -0.9860
  327MOL    C6646358   8.032   6.530   6.822 -0.9609 -0.1841  0.0247
  327MOL    C6746359   7.901   6.584   6.860 -0.1511  0.9476 -0.2829
  327MOL    N6846360   7.798   6.626   6.896 -0.6845 -0.2184 -0.1169
  327MOL    H6946361   8.107   6.732   6.803 -0.6195  0.2274  1.2911
  327MOL    H7046362   8.212   6.602   6.730  0.4410 -2.5811  0.3066
  327MOL    H7146363   8.054   6.466   6.907  1.3467  0.9459  0.2992
  327MOL    C7246364   8.024   6.447   6.702  0.5538 -0.8669  0.3720
  327MOL    C7346365   7.989   6.515   6.566  0.4687 -0.8469 -0.1674
  327MOL    C7446366   7.978   6.660   6.568 -0.3617  0.7868  0.4124
  327MOL    N7546367   7.965   6.773   6.571 -0.1118  0.4058 -0.2832
  327MOL    H7646368   8.116   6.390   6.695  1.6663  0.4821  3.1232
  327MOL    H7746369   7.945   6.375   6.725  0.7173 -1.5412 -1.1234
  327MOL    H7846370   7.891   6.481   6.531  0.0625 -0.3175  0.4397
  327MOL    C7946371   8.092   6.473   6.464  0.3827  0.4201  0.1079
  327MOL    C8046372   8.097   6.320   6.427  0.1203 -0.1383 -0.3122
  327MOL    C8146373   7.968   6.255   6.398 -0.2041  0.1415 -0.0395
  327MOL    N8246374   7.862   6.211   6.373  0.4931 -0.0902  0.2409
  327MOL    H8346375   8.075   6.525   6.369  0.7068 -1.6276 -1.1143
  327MOL    H8446376   8.187   6.505   6.505  1.1560 -0.1845 -1.1753
  327MOL    H8546377   8.141   6.258   6.504  1.3656  1.1595  0.0345
  327MOL    C8646378   8.183   6.298   6.303 -0.0351 -0.2048  0.0818
  327MOL    C8746379   8.309   6.380   6.294  0.0578  0.5599  0.1738
  327MOL    C8846380   0.088   6.360   6.409  0.1423  0.1471 -0.6170
  327MOL    N8946381   0.160   6.343   6.498  0.0631  0.0198  0.1092
  327MOL    H9046382   8.206   6.192   6.288  0.5505 -0.0600 -0.0357
  327MOL    H9146383   8.115   6.323   6.221 -0.1139  0.0108  0.2144
  327MOL    H9246384   8.267   6.480   6.292 -2.2650 -0.3111  2.3231
  327MOL    C9346385   0.080   6.367   6.168 -0.2437  0.0829 -0.6290
  327MOL    C9446386   0.172   6.243   6.174  0.5557  1.2195 -0.4671
  327MOL    C9546387   0.098   6.116   6.163  0.4403  0.0224 -0.1728
  327MOL    N9646388   0.036   6.014   6.157 -0.8054  0.0218  0.5462
  327MOL    H9746389   0.005   6.374   6.089 -1.8184  0.0813  0.8171
  327MOL    H9846390   0.138   6.459   6.172  1.4666 -1.0670  2.2067
  327MOL    H9946391   0.232   6.222   6.263  0.2542  2.2757 -0.0100
  327MOL   C10046392   0.278   6.254   6.064  0.7356  0.6111 -0.8162
  327MOL   C10146393   0.407   6.324   6.104  0.1320 -0.5143  0.7271
  327MOL   C10246394   0.457   6.247   6.219 -0.4054 -0.9294 -0.4626
  327MOL   N10346395   0.490   6.188   6.307  0.1046 -0.1054  0.0054
  327MOL   H10446396   0.292   6.157   6.016 -2.6766 -2.4040  3.8425
  327MOL   H10546397   0.242   6.307   5.976 -1.2303  1.3815  0.4365
  327MOL   H10646398   0.378   6.420   6.147  1.2152  0.4128 -0.5703
  327MOL   C10746399   0.514   6.342   5.989 -0.1305 -0.1534  0.1096
  327MOL   C10846400   0.486   6.470   5.902 -0.6125  0.4904  0.0717
  327MOL   C10946401   0.481   6.587   5.988 -0.1795  0.0583  0.0829
  327MOL   N11046402   0.473   6.676   6.059  0.0276 -0.3626 -0.6412
  327MOL   H11146403   0.617   6.339   6.027 -0.5247 -0.1290  1.1828
  327MOL   H11246404   0.507   6.258   5.919 -1.9157 -1.2607  1.5814
  327MOL   H11346405   0.392   6.450   5.851 -0.7811 -0.7158  0.8086
  327MOL   C11446406   0.603   6.481   5.798  0.2934  0.2028 -0.3521
  327MOL   C11546407   0.602   6.608   5.703 -0.4092  0.0689  0.5203
  327MOL   C11646408   0.723   6.683   5.727 -0.1830  0.0172 -0.0161
  327MOL   N11746409   0.818   6.753   5.741  0.2749  0.0306 -0.5304
  327MOL   H11846410   0.694   6.480   5.858  1.3139  3.1129 -1.7465
  327MOL   H11946411   0.609   6.384   5.751 -0.6475 -0.1179  0.1772
  327MOL   H12046412   0.529   6.682   5.734 -0.0129  0.3693  0.7355
  327MOL   C12146413   0.586   6.568   5.554  0.2928 -0.0083  0.1270
  327MOL   C12246414   0.719   6.531   5.482 -0.9457  0.6983 -0.4393
  327MOL   C12346415   0.789   6.421   5.546 -0.1723  0.4798 -0.9408
  327MOL   N12446416   0.849   6.339   5.598 -0.4710  0.0035 -0.0429
  327MOL   H12546417   0.511   6.490   5.543 -1.1536  1.2131  0.9962
  327MOL   H12646418   0.538   6.655   5.509  2.5317  1.1041 -0.1688
  327MOL   H12746419   0.788   6.615   5.485 -0.3962  0.2070  1.3017
  327MOL   C12846420   0.702   6.496   5.326 -0.9041  0.0404 -0.0765
  327MOL   C12946421   0.826   6.520   5.237 -0.1698  0.2677  0.5982
  327MOL   C13046422   0.946   6.434   5.263 -0.3753  0.2861  0.4641
  327MOL   N13146423   1.038   6.363   5.279  0.6902 -0.3032  0.2375
  327MOL   H13246424   0.667   6.393   5.320  2.2676 -1.2310  1.8330
  327MOL   H13346425   0.621   6.560   5.290 -2.0175 -1.8669 -1.0308
  327MOL   H13446426   0.859   6.623   5.252 -1.0687  0.4238  1.6452
  327MOL   C13546427   0.797   6.513   5.088  0.4866  0.3638  0.2605
  327MOL   C13646428   0.753   6.373   5.035  0.4238 -0.8961  0.3830
  327MOL   C13746429   0.603   6.352   5.061  0.0834  0.4088  0.0074
  327MOL   N13846430   0.489   6.335   5.079 -0.2637  0.0536  0.8310
  327MOL   H13946431   0.722   6.584   5.051  2.2280  0.7329 -2.7203
  327MOL   H14046432   0.892   6.528   5.036  1.4705  0.8260  2.1487
  327MOL   H14146433   0.809   6.292   5.082  2.8471 -1.0178 -2.5968
  327MOL   H14246434   0.763   6.369   4.927  0.1086 -1.9385  0.3835
  328MOL     C146435   1.871   4.638   4.247 -0.7028  0.5355  0.4424
  328MOL     C246436   1.848   4.763   4.334  0.2732 -0.4233  0.1332
  328MOL     C346437   1.894   4.890   4.265  0.0646 -0.1460  0.5060
  328MOL     N446438   1.930   4.983   4.212 -0.5035  0.6104  0.0149
  328MOL     H546439   1.966   4.644   4.194 -0.2083 -1.4116  1.0815
  328MOL     H646440   1.784   4.640   4.181 -0.5002 -0.5725  0.1489
  328MOL     H746441   1.918   4.745   4.415 -0.3945 -2.8601  0.2207
  328MOL     H846442   1.858   4.545   4.303  3.4184  0.2085  0.9765
  328MOL     C946443   1.709   4.754   4.402 -0.3198  0.5747  0.4914
  328MOL    C1046444   1.681   4.873   4.493  0.3258 -0.0407 -0.2178
  328MOL    C1146445   1.797   4.911   4.580 -0.1765  0.5275 -0.4413
  328MOL    N1246446   1.887   4.946   4.643 -0.0235 -0.2537  0.1329
  328MOL    H1346447   1.627   4.744   4.331 -0.1427  3.2350 -0.1296
  328MOL    H1446448   1.707   4.667   4.467  0.7096  0.7986  0.8346
  328MOL    H1546449   1.600   4.845   4.561 -1.0400  0.5681 -1.5636
  328MOL    C1646450   1.629   4.994   4.416  0.3539  0.3324  0.2054
  328MOL    C1746451   1.595   5.125   4.481  0.0178 -0.4829  0.1716
  328MOL    C1846452   1.509   5.206   4.396  0.3015 -0.5344 -0.6533
  328MOL    N1946453   1.445   5.270   4.324  0.3838  0.2830  0.0875
  328MOL    H2046454   1.691   5.015   4.330  1.2479 -1.6735  0.3337
  328MOL    H2146455   1.536   4.955   4.373 -0.2102 -0.2121  1.8463
  328MOL    H2246456   1.690   5.178   4.479 -0.1429 -0.1965  0.1108
  328MOL    C2346457   1.555   5.114   4.627  0.3836 -0.6954 -0.2731
  328MOL    C2446458   1.452   5.225   4.683 -0.7829 -0.6589  0.0240
  328MOL    C2546459   1.322   5.219   4.616  0.2224 -0.2675 -0.2557
  328MOL    N2646460   1.218   5.215   4.565  0.3460  0.7153  0.0647
  328MOL    H2746461   1.491   5.027   4.645  1.1684 -0.6320  3.3367
  328MOL    H2846462   1.647   5.105   4.685  0.3915  2.1868  0.2084
  328MOL    H2946463   1.500   5.322   4.667 -1.0255 -0.7332 -1.1401
  328MOL    C3046464   1.430   5.204   4.835  0.1031  0.8010 -0.6520
  328MOL    C3146465   1.348   5.321   4.905 -0.0166 -0.1521  0.1659
  328MOL    C3246466   1.438   5.440   4.928  0.2614 -0.0820  0.7149
  328MOL    N3346467   1.503   5.532   4.941  0.2198 -0.6669 -0.1021
  328MOL    H3446468   1.387   5.105   4.850 -1.3371  1.3685 -0.8936
  328MOL    H3546469   1.527   5.205   4.883 -0.3874  0.9301  0.3453
  328MOL    H3646470   1.338   5.274   5.003 -0.0910  0.2092  0.3316
  328MOL    C3746471   1.203   5.354   4.864 -0.4415 -0.0579  0.8714
  328MOL    C3846472   1.093   5.244   4.890 -0.6062  0.2481  0.3361
  328MOL    C3946473   1.071   5.212   5.031  0.2359  0.7951  1.3854
  328MOL    N4046474   1.055   5.189   5.145  0.5381 -1.0879  0.0806
  328MOL    H4146475   1.182   5.443   4.923  0.6242  1.7719 -1.4048
  328MOL    H4246476   1.204   5.379   4.757 -1.9348 -0.4609  0.7451
  328MOL    H4346477   1.116   5.143   4.856 -1.1478  0.0022  0.6936
  328MOL    C4446478   0.964   5.309   4.827 -0.4428 -0.4209 -0.0674
  328MOL    C4546479   0.861   5.208   4.780  0.1888 -0.1525 -0.3934
  328MOL    C4646480   0.769   5.275   4.690  0.1517  0.2745  0.3663
  328MOL    N4746481   0.697   5.330   4.609  0.2632  0.2012  0.1099
  328MOL    H4846482   0.923   5.382   4.897  0.0909  0.3462 -0.5462
  328MOL    H4946483   0.995   5.366   4.740 -0.3162  2.0807  1.5854
  328MOL    H5046484   0.802   5.171   4.864  1.9915  0.6060  1.2631
  328MOL    C5146485   0.915   5.077   4.726 -0.8057  0.3967  0.3415
  328MOL    C5246486   0.814   4.964   4.684  0.2755 -0.5078  0.1649
  328MOL    C5346487   0.680   4.985   4.625  0.1045  0.1019  0.3439
  328MOL    N5446488   0.577   5.000   4.578 -0.3098 -0.1000 -0.1235
  328MOL    H5546489   0.996   5.078   4.654  0.1792 -2.8130  1.3519
  328MOL    H5646490   0.965   5.025   4.807  1.4897  1.3882 -0.3899
  328MOL    H5746491   0.791   4.933   4.786  1.1902 -1.2846  0.1418
  328MOL    C5846492   0.872   4.834   4.614 -0.4460  0.0926  0.1559
  328MOL    C5946493   0.856   4.713   4.705 -0.3894 -0.0264  0.3230
  328MOL    C6046494   0.921   4.730   4.835  0.5111  0.2555 -0.0495
  328MOL    N6146495   0.964   4.750   4.943  0.6496  0.1051  0.1024
  328MOL    H6246496   0.825   4.808   4.519  1.3253  0.0432 -0.7273
  328MOL    H6346497   0.977   4.848   4.591  0.4163  0.0764  3.7500
  328MOL    H6446498   0.910   4.637   4.649 -0.6738  1.0354 -1.4567
  328MOL    C6546499   0.705   4.670   4.712 -0.3979 -0.4048 -0.6855
  328MOL    C6646500   0.652   4.580   4.595  0.1584  0.1901  0.1470
  328MOL    C6746501   0.730   4.455   4.574 -0.1463 -0.5280 -0.1952
  328MOL    N6846502   0.790   4.360   4.561  0.3055 -0.3003 -0.2026
  328MOL    H6946503   0.680   4.621   4.806 -1.0262  1.3090  0.0520
  328MOL    H7046504   0.638   4.755   4.707 -0.8467 -0.7644 -0.8023
  328MOL    H7146505   0.674   4.629   4.500 -0.0598 -0.9015 -0.4778
  328MOL    C7246506   0.500   4.544   4.600 -0.4923  0.1405  0.1088
  328MOL    C7346507   0.401   4.661   4.561  0.0713 -0.3464  0.0959
  328MOL    C7446508   0.453   4.735   4.443  0.3832  0.0492 -0.4088
  328MOL    N7546509   0.500   4.788   4.353 -0.4373  0.1708 -0.1657
  328MOL    H7646510   0.478   4.461   4.533  3.2924 -0.4944 -0.4323
  328MOL    H7746511   0.466   4.500   4.694  4.9215 -1.9447  1.2531
  328MOL    H7846512   0.383   4.740   4.634 -0.0615  0.7020 -1.0547
  328MOL    C7946513   0.263   4.611   4.515 -1.2880 -0.0011  0.2138
  328MOL    C8046514   0.161   4.606   4.628  0.3860 -0.4610 -0.3703
  328MOL    C8146515   0.140   4.735   4.694  0.0958 -0.4975 -0.0037
  328MOL    N8246516   0.118   4.833   4.748  0.3041  0.0635  0.8231
  328MOL    H8346517   0.222   4.690   4.453  1.3163  1.2860  0.0633
  328MOL    H8446518   0.275   4.517   4.460 -0.9946  0.9977 -1.4358
  328MOL    H8546519   0.194   4.539   4.708  1.8516  1.2534  0.5099
  328MOL    C8646520   0.035   4.551   4.574 -0.6082 -0.0946 -0.0973
  328MOL    C8746521   0.032   4.401   4.524 -0.3146  0.4825 -0.9019
  328MOL    C8846522   0.061   4.312   4.643 -0.4904  0.5079 -0.4995
  328MOL    N8946523   0.081   4.241   4.731  0.1880 -0.3567  0.5716
  328MOL    H9046524   8.281   4.558   4.661 -2.1402  1.1510 -1.3273
  328MOL    H9146525   8.310   4.615   4.494  1.4760 -0.9274 -1.7617
  328MOL    H9246526   0.119   4.391   4.459  0.2583  0.6284 -0.1673
  328MOL    C9346527   8.210   4.361   4.449  0.7469 -0.2351 -0.2728
  328MOL    C9446528   8.180   4.225   4.399  0.3631  0.7362  0.4981
  328MOL    C9546529   8.157   4.140   4.516 -0.2919 -0.7984  0.6394
  328MOL    N9646530   8.139   4.077   4.609  0.0867  0.1086 -0.6286
  328MOL    H9746531   8.123   4.397   4.505  1.2929  2.3876 -1.0222
  328MOL    H9846532   8.214   4.435   4.369  1.1947  1.2414  1.0785
  328MOL    H9946533   8.271   4.196   4.345  1.4190  1.5420  1.7932
  328MOL   C10046534   8.069   4.217   4.290 -0.2493  0.0074 -0.0647
  328MOL   C10146535   8.026   4.078   4.245  0.1723  0.0730  0.5883
  328MOL   C10246536   8.131   3.976   4.246 -0.7687 -0.0818  0.3206
  328MOL   N10346537   8.212   3.894   4.249 -0.2016 -0.4915  0.1732
  328MOL   H10446538   7.982   4.272   4.327  0.2097  0.0756  0.9445
  328MOL   H10546539   8.112   4.274   4.208  0.0141  0.7592  0.5819
  328MOL   H10646540   8.013   4.070   4.137  2.5423  0.4786  0.2363
  328MOL   C10746541   7.884   4.046   4.301  0.0852 -1.3359  0.0064
  328MOL   C10846542   7.837   3.903   4.266  0.4751 -0.3537  0.1799
  328MOL   C10946543   7.895   3.814   4.368 -0.0072 -0.8603  0.1621
  328MOL   N11046544   7.942   3.738   4.441  0.2660 -0.2931 -0.0177
  328MOL   H11146545   7.877   4.068   4.407  1.8979 -0.9399  0.0597
  328MOL   H11246546   7.818   4.118   4.253 -0.1895 -1.1182  0.7220
  328MOL   H11346547   7.878   3.871   4.171 -1.9054  0.2885 -1.0966
  328MOL   C11446548   7.685   3.900   4.265  0.8045  1.0225 -0.0499
  328MOL   C11546549   7.613   3.803   4.170  0.2186  0.2126 -0.3958
  328MOL   C11646550   7.470   3.810   4.192 -0.2246  0.1101 -0.6095
  328MOL   N11746551   7.354   3.820   4.208 -0.7228 -0.4940 -0.1981
  328MOL   H11846552   7.660   3.881   4.369  0.8068  1.7178  0.0819
  328MOL   H11946553   7.643   4.001   4.264 -0.1016  0.7278  3.0197
  328MOL   H12046554   7.638   3.700   4.195 -2.4919 -0.5243 -0.5051
  328MOL   C12146555   7.642   3.853   4.025  0.3234 -0.5738 -0.8617
  328MOL   C12246556   7.556   3.802   3.911 -0.5084  0.1610  0.4767
  328MOL   C12346557   7.585   3.898   3.794  0.1924 -0.3827 -0.3626
  328MOL   N12446558   7.611   3.967   3.705 -0.0446 -0.1575 -0.3770
  328MOL   H12546559   7.623   3.960   4.021  0.7119 -0.4965 -0.6511
  328MOL   H12646560   7.743   3.835   3.989  0.5348 -3.8353  1.0910
  328MOL   H12746561   7.450   3.812   3.932 -0.5955 -0.5187  0.3569
  328MOL   C12846562   7.580   3.651   3.890 -0.0806 -0.3426 -0.3798
  328MOL   C12946563   7.512   3.579   3.769 -0.8933  0.1859 -0.2352
  328MOL   C13046564   7.374   3.533   3.801 -1.0127 -0.0403  0.0925
  328MOL   N13146565   7.266   3.505   3.829  0.0683  0.1164 -0.2211
  328MOL   H13246566   7.686   3.626   3.893 -0.1632 -0.7716 -0.8663
  328MOL   H13346567   7.539   3.594   3.974  2.0551 -2.2289 -0.5664
  328MOL   H13446568   7.574   3.491   3.754 -0.3838  0.3073  1.1122
  328MOL   C13546569   7.518   3.659   3.638  0.5465 -0.0661  0.1330
  328MOL   C13646570   7.455   3.587   3.520 -0.1227  0.5812  0.9241
  328MOL   C13746571   7.550   3.484   3.469  0.3868  0.0043 -0.4135
  328MOL   N13846572   7.623   3.407   3.424  0.1434  0.5314 -0.1943
  328MOL   H13946573   7.455   3.748   3.632  0.1475 -0.4007 -0.7906
  328MOL   H14046574   7.623   3.684   3.624  1.0340 -2.1499 -0.2180
  328MOL   H14146575   7.437   3.661   3.441 -1.3567 -2.0859 -1.3697
  328MOL   H14246576   7.359   3.545   3.550  0.6955 -1.1329  1.1736
  329MOL     C146577   5.874   0.840   6.680  0.0354 -0.2980 -0.4517
  329MOL     C246578   5.964   0.878   6.561 -0.0218  0.0527 -0.0755
  329MOL     C346579   5.901   0.983   6.479  0.3128 -0.2280  0.0910
  329MOL     N446580   5.848   1.068   6.418 -0.1597 -0.0375  0.3323
  329MOL     H546581   5.916   0.751   6.726 -2.1498 -1.0095  0.2456
  329MOL     H646582   5.767   0.828   6.660 -0.0188 -0.3475 -0.1390
  329MOL     H746583   5.980   0.793   6.495 -0.7510 -0.3854  0.3055
  329MOL     H846584   5.875   0.917   6.758 -0.7317 -2.8240  2.1347
  329MOL     C946585   6.107   0.912   6.599 -0.1638 -0.1710  0.6918
  329MOL    C1046586   6.192   0.803   6.668  0.1798  0.6785 -0.2067
  329MOL    C1146587   6.235   0.700   6.569 -0.8494 -0.1099 -0.4217
  329MOL    N1246588   6.266   0.621   6.492  0.1913 -0.5191  0.0500
  329MOL    H1346589   6.160   0.947   6.510  0.8421  0.7699  1.6491
  329MOL    H1446590   6.097   1.006   6.654 -1.2187  0.6598 -0.8788
  329MOL    H1546591   6.136   0.752   6.747  2.2266 -0.8850  0.2618
  329MOL    C1646592   6.316   0.866   6.725  0.5056 -0.0242 -0.4007
  329MOL    C1746593   6.283   0.962   6.848  0.7819  0.5204 -0.3044
  329MOL    C1846594   6.193   0.901   6.951 -0.0735 -0.0694 -0.1001
  329MOL    N1946595   6.128   0.846   7.034 -0.5971 -0.1878  0.6733
  329MOL    H2046596   6.388   0.789   6.754  1.8417  1.2900 -0.1715
  329MOL    H2146597   6.366   0.931   6.653  2.2148 -1.1179 -0.2285
  329MOL    H2246598   6.240   1.053   6.807  0.0377 -0.0721 -0.8596
  329MOL    C2346599   6.414   0.999   6.931  0.1544 -0.7758 -0.0828
  329MOL    C2446600   6.532   1.037   6.849  0.0365  0.5757 -0.2765
  329MOL    C2546601   6.501   1.141   6.750  0.3593  0.1678 -0.0743
  329MOL    N2646602   6.479   1.223   6.669  0.3755 -0.2044  0.4656
  329MOL    H2746603   6.393   1.079   7.003  1.0668 -0.0144 -0.6464
  329MOL    H2846604   6.441   0.914   6.994 -2.1348 -0.1483  1.8351
  329MOL    H2946605   6.568   0.959   6.782 -1.0517 -1.3802  1.3635
  329MOL    C3046606   6.655   1.077   6.935  0.4467  0.4634  0.2608
  329MOL    C3146607   6.775   1.141   6.867  1.1779 -0.0495  0.0931
  329MOL    C3246608   6.743   1.278   6.820 -0.3018 -0.1604 -0.6037
  329MOL    N3346609   6.709   1.382   6.791  0.3832 -0.1611 -0.0577
  329MOL    H3446610   6.614   1.134   7.019  0.5239 -0.4203  0.9000
  329MOL    H3546611   6.692   0.984   6.978  1.5110  0.1223 -1.3545
  329MOL    H3646612   6.788   1.083   6.775  3.8342  0.6166 -0.0100
  329MOL    C3746613   6.914   1.129   6.940  0.0187  0.2160 -0.0820
  329MOL    C3846614   7.027   1.177   6.855  0.0988 -0.1831 -0.4491
  329MOL    C3946615   7.155   1.190   6.927  0.7082  1.0114  0.1135
  329MOL    N4046616   7.255   1.208   6.984 -0.7317  0.6209  0.1035
  329MOL    H4146617   6.921   1.196   7.026  2.7498  1.5770 -1.3140
  329MOL    H4246618   6.925   1.027   6.979  2.2215  0.8878  1.1391
  329MOL    H4346619   7.006   1.280   6.828 -4.2633 -0.4255  1.6660
  329MOL    C4446620   7.043   1.110   6.722 -0.3951  0.7364  1.1187
  329MOL    C4546621   7.063   0.957   6.734  0.4144 -0.4649 -0.4831
  329MOL    C4646622   6.939   0.878   6.759  0.3815 -0.1533 -0.7903
  329MOL    N4746623   6.847   0.808   6.784  0.3124  0.5609 -0.0793
  329MOL    H4846624   6.956   1.147   6.667  0.3944  0.6108 -0.2497
  329MOL    H4946625   7.122   1.152   6.661  0.3573 -0.0790  1.5264
  329MOL    H5046626   7.134   0.947   6.816  1.7357 -1.2774 -1.7102
  329MOL    C5146627   7.126   0.904   6.605 -0.2157 -0.4167  0.0725
  329MOL    C5246628   7.039   0.915   6.480 -0.1644  0.7715  0.4055
  329MOL    C5346629   7.047   1.040   6.405  0.5575  0.3521  0.4297
  329MOL    N5446630   7.048   1.140   6.347 -0.1133  0.3831 -0.0686
  329MOL    H5546631   7.215   0.964   6.589  0.4646 -1.0487  1.4784
  329MOL    H5646632   7.167   0.805   6.621 -0.9896 -0.6377  0.7614
  329MOL    H5746633   6.934   0.910   6.509 -0.4621 -2.5552 -0.9881
  329MOL    C5846634   7.041   0.793   6.387  0.1272  0.5324  0.0486
  329MOL    C5946635   7.171   0.779   6.297  0.1365 -0.5286 -0.5836
  329MOL    C6046636   7.243   0.653   6.323  0.0552  0.6054  0.4617
  329MOL    N6146637   7.302   0.553   6.346  0.1633  0.2456  0.2887
  329MOL    H6246638   7.044   0.706   6.453  1.3473 -0.6631 -1.5552
  329MOL    H6346639   6.958   0.779   6.317  2.2213 -2.0137 -2.0259
  329MOL    H6446640   7.242   0.852   6.334  0.7772 -1.3324 -0.2024
  329MOL    C6546641   7.163   0.801   6.146  0.1649 -0.5228  1.1078
  329MOL    C6646642   7.162   0.946   6.083 -0.0674  0.1689 -0.0114
  329MOL    C6746643   7.271   1.024   6.142  0.1697 -0.6560  0.5640
  329MOL    N6846644   7.363   1.086   6.182 -0.1782 -0.2132 -0.1720
  329MOL    H6946645   7.251   0.753   6.103 -1.0707 -2.7916  0.9998
  329MOL    H7046646   7.085   0.740   6.100  0.2575  0.0338  0.1807
  329MOL    H7146647   7.070   0.993   6.118  0.6241  0.9579  0.7846
  329MOL    C7246648   7.164   0.948   5.929  0.6347 -0.0345  0.0654
  329MOL    C7346649   7.131   1.084   5.865 -0.1188 -0.3331 -0.5095
  329MOL    C7446650   7.183   1.104   5.728  0.0582 -0.5189 -0.0806
  329MOL    N7546651   7.227   1.121   5.618  0.3259  0.5871  0.2165
  329MOL    H7646652   7.267   0.925   5.904  1.2968  0.3244  2.3096
  329MOL    H7746653   7.114   0.861   5.885 -1.4287  1.2452 -0.1676
  329MOL    H7846654   7.175   1.166   5.923 -1.9221  1.4395 -1.5877
  329MOL    C7946655   6.978   1.105   5.881  0.4273 -0.1752 -0.1081
  329MOL    C8046656   6.934   1.241   5.819  0.1077  0.3748  0.0916
  329MOL    C8146657   6.915   1.241   5.671  0.0988 -0.4120  0.8449
  329MOL    N8246658   6.898   1.243   5.555 -0.9818  0.3667 -0.4739
  329MOL    H8346659   6.923   1.026   5.829  0.2450  0.8149 -1.4634
  329MOL    H8446660   6.945   1.106   5.984 -0.2559  1.7122 -0.3348
  329MOL    H8546661   7.008   1.320   5.831  0.6720  0.2663 -2.4398
  329MOL    C8646662   6.805   1.291   5.891  0.0246  0.1073 -0.0551
  329MOL    C8746663   6.745   1.425   5.845  0.1435 -0.3332  0.2323
  329MOL    C8846664   6.596   1.418   5.860 -0.7569  0.5037  0.7926
  329MOL    N8946665   6.482   1.418   5.875 -0.1458  0.5035 -0.2079
  329MOL    H9046666   6.727   1.219   5.865 -0.6365  1.0792 -0.8013
  329MOL    H9146667   6.807   1.290   6.000 -2.9241 -2.5129  0.0420
  329MOL    H9246668   6.757   1.428   5.737  1.3490 -1.6146  0.3183
  329MOL    C9346669   6.813   1.541   5.909  0.2296 -0.4423 -0.1927
  329MOL    C9446670   6.725   1.668   5.889  0.2044  0.9684 -0.0793
  329MOL    C9546671   6.631   1.677   6.005 -0.6765 -0.6141  0.1986
  329MOL    N9646672   6.556   1.688   6.095  0.5181 -0.2951 -0.6860
  329MOL    H9746673   6.839   1.531   6.014 -2.5875  0.2665  0.6281
  329MOL    H9846674   6.907   1.562   5.858  0.3641  1.2181  0.7102
  329MOL    H9946675   6.670   1.644   5.797 -0.5764 -0.4304  0.7316
  329MOL   C10046676   6.790   1.805   5.876 -0.0695  0.1837 -0.2092
  329MOL   C10146677   6.908   1.813   5.768 -0.2965 -0.7639 -0.4050
  329MOL   C10246678   6.861   1.763   5.642  0.2268 -0.4244  0.3320
  329MOL   N10346679   6.822   1.720   5.542  0.5184  0.1291 -0.3430
  329MOL   H10446680   6.708   1.868   5.840 -1.3630 -1.2831  0.0775
  329MOL   H10546681   6.829   1.850   5.967  1.6463  0.3199 -0.9943
  329MOL   H10646682   6.981   1.743   5.810  1.0518  0.7415 -0.2046
  329MOL   C10746683   6.973   1.948   5.735 -0.1989  0.2552  0.3273
  329MOL   C10846684   7.114   1.976   5.797  0.1429  0.1658  0.1867
  329MOL   C10946685   7.210   1.873   5.764 -0.0502  0.0472 -0.0605
  329MOL   N11046686   7.288   1.794   5.738  1.0535  0.2704 -0.3134
  329MOL   H11146687   6.973   1.965   5.628  1.8142  1.3693  0.4934
  329MOL   H11246688   6.903   2.025   5.768  0.2370  0.7997 -0.0292
  329MOL   H11346689   7.102   1.966   5.905  2.1855  2.0778  0.6461
  329MOL   C11446690   7.178   2.114   5.761  0.3281 -0.6488  0.1942
  329MOL   C11546691   7.262   2.176   5.867  0.2294  0.1004 -0.2391
  329MOL   C11646692   7.200   2.215   5.991  1.1892  0.0113  0.6238
  329MOL   N11746693   7.151   2.250   6.091 -0.3972  0.5373  0.4252
  329MOL   H11846694   7.228   2.101   5.665 -0.8200 -0.7270 -0.4040
  329MOL   H11946695   7.094   2.184   5.764  0.4765 -0.3382 -2.0245
  329MOL   H12046696   7.300   2.275   5.842  0.0356  0.3515  0.4417
  329MOL   C12146697   7.387   2.089   5.903 -1.1752 -0.1563  0.0192
  329MOL   C12246698   7.489   2.075   5.784 -0.0764 -0.0177  1.1725
  329MOL   C12346699   7.544   2.199   5.728  0.1810 -0.3358 -0.5433
  329MOL   N12446700   7.592   2.296   5.678  0.5432  0.1945  0.1037
  329MOL   H12546701   7.447   2.125   5.986  1.2586  3.1982 -3.0383
  329MOL   H12646702   7.352   1.994   5.943  1.3523 -1.2306 -0.2078
  329MOL   H12746703   7.442   2.010   5.710  1.7259 -2.7596  2.3262
  329MOL   C12846704   7.603   1.992   5.833 -0.3094 -0.1113 -0.2936
  329MOL   C12946705   7.690   2.038   5.949 -0.5015 -0.0057 -0.4479
  329MOL   C13046706   7.640   1.993   6.080 -0.8170  0.3869 -0.9657
  329MOL   N13146707   7.597   1.960   6.181 -0.4184 -0.0561  0.3306
  329MOL   H13246708   7.572   1.892   5.863  1.8443 -0.9366 -0.7190
  329MOL   H13346709   7.676   1.965   5.756 -0.2097  1.2133 -0.6645
  329MOL   H13446710   7.665   2.143   5.945 -1.1145 -0.0326  1.8235
  329MOL   C13546711   7.838   2.009   5.939 -0.1989  0.6512  0.2180
  329MOL   C13646712   7.936   2.096   6.027  0.7639  0.1920  0.5375
  329MOL   C13746713   7.922   2.053   6.164  0.4596  0.7180 -0.0542
  329MOL   N13846714   7.911   2.026   6.278  0.0058  0.4951 -0.0050
  329MOL   H13946715   7.865   1.905   5.955  0.7740  0.7701 -0.6411
  329MOL   H14046716   7.867   2.031   5.836 -0.7376 -0.4887 -0.1878
  329MOL   H14146717   7.903   2.199   6.011 -1.9316 -0.6041  0.6686
  329MOL   H14246718   8.038   2.087   5.990  0.7526  2.1867 -0.0068
  330MOL     C146719   5.627   3.544   2.255  0.1938 -0.4104 -0.0599
  330MOL     C246720   5.616   3.454   2.377  0.2765 -0.9436  0.2933
  330MOL     C346721   5.494   3.463   2.456 -0.4021 -0.1650  0.0388
  330MOL     N446722   5.397   3.468   2.515  0.1273 -0.3677 -0.7388
  330MOL     H546723   5.621   3.648   2.287 -1.2031 -0.4536 -0.1453
  330MOL     H646724   5.546   3.521   2.187 -1.9581 -0.4652  2.4294
  330MOL     H746725   5.693   3.486   2.447  0.0103 -1.9866  1.0718
  330MOL     H846726   5.721   3.533   2.202  0.1616 -1.1357  0.0339
  330MOL     C946727   5.648   3.307   2.363 -0.6602 -0.5350  0.5576
  330MOL    C1046728   5.546   3.227   2.285 -1.0529 -0.4318 -0.0571
  330MOL    C1146729   5.556   3.259   2.143  0.4997 -0.4514  0.0670
  330MOL    N1246730   5.559   3.285   2.031 -0.0515 -0.3058 -0.1036
  330MOL    H1346731   5.740   3.283   2.310 -1.2573 -4.3391  1.0665
  330MOL    H1446732   5.670   3.261   2.459 -1.0706  1.6461  1.7337
  330MOL    H1546733   5.446   3.245   2.323 -0.6721 -0.5833  1.0437
  330MOL    C1646734   5.584   3.077   2.306  0.3527 -0.0101 -0.4148
  330MOL    C1746735   5.477   2.972   2.252  0.2420 -0.3110 -0.3846
  330MOL    C1846736   5.353   2.983   2.330 -1.1164  0.1234  0.1602
  330MOL    N1946737   5.250   2.998   2.389  0.1134  0.8890 -0.1884
  330MOL    H2046738   5.679   3.057   2.257  2.3958 -2.8664  4.4066
  330MOL    H2146739   5.586   3.055   2.412 -1.4987  3.1171  0.3624
  330MOL    H2246740   5.524   2.877   2.278  1.2728  0.5081  0.7862
  330MOL    C2346741   5.448   2.969   2.091 -0.4180  0.0412 -0.1259
  330MOL    C2446742   5.573   2.942   1.997 -0.3045 -0.4044  0.0333
  330MOL    C2546743   5.636   2.808   2.024 -0.2009 -0.4727  0.4575
  330MOL    N2646744   5.678   2.706   2.046  0.2087 -0.0829  0.2663
  330MOL    H2746745   5.385   2.881   2.078  0.5885 -0.5756 -0.8967
  330MOL    H2846746   5.394   3.057   2.058 -1.7349 -0.9495 -0.6462
  330MOL    H2946747   5.651   3.012   2.027  0.7264 -1.1214 -0.9310
  330MOL    C3046748   5.545   2.959   1.844 -0.4281 -0.1197 -0.3964
  330MOL    C3146749   5.676   2.954   1.755  0.6960  0.7120 -0.4766
  330MOL    C3246750   5.633   2.964   1.613 -0.4676 -0.4977 -0.4510
  330MOL    N3346751   5.601   2.969   1.504 -0.2938  0.2980  0.4737
  330MOL    H3446752   5.471   2.882   1.821  0.8718 -0.9105 -2.0009
  330MOL    H3546753   5.500   3.057   1.827 -1.0825 -0.1098  1.2795
  330MOL    H3646754   5.717   2.854   1.767  0.7573  0.7010 -0.7714
  330MOL    C3746755   5.781   3.058   1.794 -0.4813  0.7924  0.1164
  330MOL    C3846756   5.897   3.082   1.701  0.2743 -0.2864  0.3816
  330MOL    C3946757   5.985   3.180   1.765  0.1185  0.1440  0.4391
  330MOL    N4046758   6.051   3.254   1.820 -1.0245 -0.3015 -0.1948
  330MOL    H4146759   5.733   3.157   1.797  0.6492  1.3420  0.3055
  330MOL    H4246760   5.819   3.045   1.896  2.7278 -0.0017 -1.1235
  330MOL    H4346761   5.853   3.144   1.622  0.1366  0.1757  0.8193
  330MOL    C4446762   5.971   2.956   1.647 -0.8376  0.0003  0.4678
  330MOL    C4546763   6.112   2.979   1.581  0.0447 -0.5360  0.4261
  330MOL    C4646764   6.171   2.846   1.534  0.2754 -0.1999  0.3319
  330MOL    N4746765   6.217   2.743   1.498  0.3206  0.0909 -0.2469
  330MOL    H4846766   5.990   2.899   1.737  0.2799  0.4162  0.5083
  330MOL    H4946767   5.913   2.893   1.579  2.0179 -1.0099 -1.1192
  330MOL    H5046768   6.173   3.025   1.658  0.8178 -1.0590  0.1285
  330MOL    C5146769   6.117   3.084   1.462 -0.5789  0.0626  0.6252
  330MOL    C5246770   6.258   3.104   1.400  0.1577 -0.3996  0.0446
  330MOL    C5346771   6.251   3.177   1.273  0.4694 -0.0265  0.0673
  330MOL    N5446772   6.239   3.236   1.175  0.9861  0.1729 -0.2304
  330MOL    H5546773   6.059   3.049   1.376  1.0200 -0.9210 -0.0707
  330MOL    H5646774   6.067   3.176   1.491  0.9308  0.9686  0.4417
  330MOL    H5746775   6.305   3.006   1.387  1.0656  0.3068 -2.1014
  330MOL    C5846776   6.348   3.184   1.499 -0.0101  0.1951  0.1878
  330MOL    C5946777   6.495   3.144   1.488 -0.5297 -0.1676 -0.3305
  330MOL    C6046778   6.521   3.005   1.532  0.0856  0.3787  0.0135
  330MOL    N6146779   6.534   2.897   1.577  0.2386  0.0694  0.3796
  330MOL    H6246780   6.340   3.293   1.488  0.6247  0.3617  1.3346
  330MOL    H6346781   6.325   3.163   1.604  0.9934  1.2813  0.6431
  330MOL    H6446782   6.550   3.206   1.559 -0.9079 -1.6826  1.3068
  330MOL    C6546783   6.555   3.161   1.344  0.2333 -0.2376  0.4171
  330MOL    C6646784   6.707   3.181   1.349 -0.0267 -0.0274  0.1357
  330MOL    C6746785   6.773   3.056   1.343 -0.2615  1.0292  0.1414
  330MOL    N6846786   6.826   2.953   1.343 -0.5532 -0.5272  0.3749
  330MOL    H6946787   6.512   3.085   1.279 -1.2403  1.1116 -0.2314
  330MOL    H7046788   6.511   3.243   1.287 -0.5496 -0.2297  1.0262
  330MOL    H7146789   6.734   3.217   1.448  0.1938  0.6784 -0.1792
  330MOL    C7246790   6.758   3.272   1.237 -0.1689 -0.1704 -0.9875
  330MOL    C7346791   6.713   3.418   1.241  0.0310 -0.2024 -0.1453
  330MOL    C7446792   6.777   3.499   1.344  0.1995 -0.6906 -0.2207
  330MOL    N7546793   6.827   3.567   1.419 -0.1503 -0.3371 -0.4499
  330MOL    H7646794   6.866   3.260   1.227  0.3872  2.6522  0.9852
  330MOL    H7746795   6.712   3.245   1.142  0.1286 -0.6085 -1.0107
  330MOL    H7846796   6.607   3.428   1.264  0.4439 -0.2266  1.8025
  330MOL    C7946797   6.737   3.489   1.105 -0.6335 -0.4620 -1.4919
  330MOL    C8046798   6.637   3.591   1.073  0.4363  0.2732 -0.1681
  330MOL    C8146799   6.693   3.684   0.975 -0.2820 -0.3542 -0.1364
  330MOL    N8246800   6.740   3.757   0.897  0.3771  0.3042 -0.4127
  330MOL    H8346801   6.833   3.540   1.108 -0.1128 -1.4990 -0.4238
  330MOL    H8446802   6.743   3.409   1.031  0.3389 -2.1810  0.3952
  330MOL    H8546803   6.619   3.646   1.165  2.1735 -1.7905  1.4479
  330MOL    C8646804   6.506   3.543   1.026 -0.9420 -0.0297 -0.0482
  330MOL    C8746805   6.374   3.621   1.052 -0.4542  0.1704  0.2490
  330MOL    C8846806   6.376   3.773   1.021  0.2094  0.5185  0.1778
  330MOL    N8946807   6.374   3.892   0.998 -0.9280 -0.0250  0.1372
  330MOL    H9046808   6.509   3.512   0.921  0.4347 -0.8769  0.2215
  330MOL    H9146809   6.491   3.451   1.083 -0.8511  0.3392  0.5747
  330MOL    H9246810   6.355   3.622   1.160 -1.4813 -1.3188  0.0942
  330MOL    C9346811   6.256   3.555   0.978 -0.1072 -0.6164 -0.3373
  330MOL    C9446812   6.116   3.617   1.008  0.7962 -0.0239  0.3980
  330MOL    C9546813   6.014   3.569   0.915 -0.2224  0.5045 -0.2787
  330MOL    N9646814   5.934   3.536   0.836  0.2735  0.2403 -0.1618
  330MOL    H9746815   6.284   3.559   0.873 -3.1190  0.8704 -1.1423
  330MOL    H9846816   6.245   3.448   0.996 -2.4483 -0.5222 -1.0226
  330MOL    H9946817   6.125   3.724   0.991 -1.0270 -0.0796 -0.9941
  330MOL   C10046818   6.072   3.590   1.157  0.3038  0.7081  0.0806
  330MOL   C10146819   5.921   3.579   1.186 -0.5097 -0.2247  0.8966
  330MOL   C10246820   5.879   3.438   1.164 -0.8648 -0.0880  0.2334
  330MOL   N10346821   5.853   3.320   1.155 -0.7032  0.1559  0.7078
  330MOL   H10446822   6.116   3.500   1.200 -0.1954  0.1357 -0.5796
  330MOL   H10546823   6.109   3.673   1.217  2.1709 -0.6832  0.9182
  330MOL   H10646824   5.866   3.635   1.110 -1.0069 -0.8559  0.7869
  330MOL   C10746825   5.854   3.631   1.318 -0.0351  0.0549  0.2535
  330MOL   C10846826   5.863   3.525   1.433  0.3748  0.2450  0.1183
  330MOL   C10946827   6.005   3.481   1.447  0.1573  0.8864  0.3486
  330MOL   N11046828   6.112   3.449   1.458  0.2224 -0.3684  0.1315
  330MOL   H11146829   5.895   3.727   1.350 -3.4736  0.7608  2.8704
  330MOL   H11246830   5.753   3.641   1.281 -0.1063  1.8825  0.8955
  330MOL   H11346831   5.803   3.438   1.409 -0.6195  1.0504 -0.3553
  330MOL   C11446832   5.813   3.585   1.567  0.1183 -0.2036  0.1393
  330MOL   C11546833   5.671   3.547   1.604 -0.4529  0.5411  0.2959
  330MOL   C11646834   5.645   3.402   1.605 -0.2022 -0.2126 -0.7098
  330MOL   N11746835   5.625   3.290   1.606  0.5912 -0.1090 -0.0232
  330MOL   H11846836   5.867   3.519   1.634 -0.0590 -0.8259 -0.3293
  330MOL   H11946837   5.837   3.690   1.584  0.2966  0.0167 -1.4118
  330MOL   H12046838   5.604   3.578   1.524  3.1922 -0.4571 -3.3143
  330MOL   C12146839   5.640   3.598   1.748 -0.6235  0.5808 -0.0613
  330MOL   C12246840   5.643   3.751   1.779  0.0044 -0.1981  0.2760
  330MOL   C12346841   5.537   3.821   1.706  0.4063 -0.1375  0.1552
  330MOL   N12446842   5.453   3.878   1.651 -0.0744  0.1327  0.1182
  330MOL   H12546843   5.547   3.556   1.787 -0.3463 -0.4972 -0.5412
  330MOL   H12646844   5.718   3.552   1.808  1.0405 -0.0820 -2.6636
  330MOL   H12746845   5.737   3.793   1.744  1.0816 -1.8242  1.1895
  330MOL   C12846846   5.626   3.780   1.933 -0.4096  0.4612 -0.4156
  330MOL   C12946847   5.585   3.923   1.988 -0.3769  0.3460 -0.0124
  330MOL   C13046848   5.546   3.920   2.125 -0.7051 -0.4786  0.7507
  330MOL   N13146849   5.520   3.922   2.237  0.6534 -0.4209  0.0389
  330MOL   H13246850   5.540   3.728   1.975 -0.1497  0.4523  0.1207
  330MOL   H13346851   5.710   3.731   1.982 -0.0900  1.7585  0.3674
  330MOL   H13446852   5.496   3.958   1.935  0.8215  2.5863 -0.6011
  330MOL   C13546853   5.700   4.022   1.950 -0.1515 -1.0144  0.1882
  330MOL   C13646854   5.669   4.170   1.974 -0.9567 -0.5126 -0.0547
  330MOL   C13746855   5.529   4.203   2.018 -0.4435  0.0215  0.3752
  330MOL   N13846856   5.422   4.233   2.048 -1.0729  0.1341  0.1602
  330MOL   H13946857   5.785   3.988   2.010 -1.4869 -0.4920  2.4101
  330MOL   H14046858   5.721   4.012   1.843  2.1307  1.4252  0.3709
  330MOL   H14146859   5.669   4.226   1.881 -0.4070 -0.2513  0.0954
  330MOL   H14246860   5.742   4.212   2.043 -0.7652 -1.4315  0.3136
  331MOL     C146861   2.180   0.434   7.136 -0.8038  0.9779 -0.0964
  331MOL     C246862   2.263   0.349   7.243 -0.2122 -0.2573  0.2315
  331MOL     C346863   2.323   0.226   7.195 -0.1892  0.1815 -0.7019
  331MOL     N446864   2.374   0.126   7.155 -0.8180 -0.0829 -0.6262
  331MOL     H546865   2.099   0.370   7.102 -0.3232  0.5644 -0.4576
  331MOL     H646866   2.246   0.481   7.064 -0.1726  1.4350  0.7698
  331MOL     H746867   2.195   0.312   7.319  1.2066  0.5197  1.9252
  331MOL     H846868   2.139   0.514   7.199  1.7130  2.3756 -0.1571
  331MOL     C946869   2.376   0.428   7.312 -0.8274 -0.5556 -0.0603
  331MOL    C1046870   2.489   0.486   7.235 -0.1336  0.3771  0.0919
  331MOL    C1146871   2.455   0.586   7.143  0.2148  0.2415 -0.2059
  331MOL    N1246872   2.433   0.671   7.065 -0.1632 -0.0985 -0.1575
  331MOL    H1346873   2.326   0.505   7.372  1.8034 -0.7594  2.5357
  331MOL    H1446874   2.417   0.366   7.391 -1.1906 -0.7813 -0.0493
  331MOL    H1546875   2.528   0.406   7.173 -0.7664  1.2720 -1.4804
  331MOL    C1646876   2.599   0.533   7.324 -0.2873  0.0119  0.0742
  331MOL    C1746877   2.740   0.543   7.257 -0.3692 -0.2011  0.3643
  331MOL    C1846878   2.751   0.645   7.149  0.0400 -0.0374  0.3889
  331MOL    N1946879   2.768   0.725   7.069  0.0014 -0.0409  0.7995
  331MOL    H2046880   2.570   0.628   7.370 -0.3222 -0.4552  1.0349
  331MOL    H2146881   2.606   0.469   7.412 -0.9770  0.9582  0.8288
  331MOL    H2246882   2.764   0.445   7.217  2.3790  0.0289  1.3591
  331MOL    C2346883   2.849   0.566   7.362 -0.2647  0.2057 -0.3029
  331MOL    C2446884   2.896   0.447   7.442  0.6301 -0.1409  0.9020
  331MOL    C2546885   2.942   0.339   7.354 -0.6926  0.2531 -0.1440
  331MOL    N2646886   2.979   0.256   7.283  0.4497 -0.4788 -0.5049
  331MOL    H2746887   2.927   0.623   7.311  1.2057 -1.1465  0.4054
  331MOL    H2846888   2.821   0.641   7.436 -0.6527 -1.7720  1.6184
  331MOL    H2946889   2.814   0.416   7.507 -2.1198  0.3047 -2.2362
  331MOL    C3046890   3.000   0.488   7.551 -0.1968 -0.5823 -0.4208
  331MOL    C3146891   3.024   0.387   7.667  0.5455 -0.4559  0.2435
  331MOL    C3246892   3.064   0.255   7.610  0.3530  0.2311  0.1756
  331MOL    N3346893   3.095   0.153   7.563  0.4989 -0.5637 -0.4403
  331MOL    H3446894   3.089   0.539   7.514 -0.0189  0.7581  1.7922
  331MOL    H3546895   2.960   0.574   7.604 -1.4990 -1.5496  0.1978
  331MOL    H3646896   2.926   0.379   7.714 -0.2753  1.6082 -1.0134
  331MOL    C3746897   3.124   0.446   7.766  0.3542 -0.0338 -0.6324
  331MOL    C3846898   3.159   0.363   7.886 -0.8915 -0.9123 -0.3159
  331MOL    C3946899   3.268   0.434   7.958  0.9710 -0.7023 -0.2697
  331MOL    N4046900   3.355   0.486   8.017 -0.3715  0.1120  0.5899
  331MOL    H4146901   3.216   0.466   7.710 -0.1589  1.0918 -1.0832
  331MOL    H4246902   3.097   0.549   7.789 -1.3310 -0.8551  1.1491
  331MOL    H4346903   3.208   0.272   7.853  0.5197 -0.7643  1.3296
  331MOL    C4446904   3.027   0.329   7.970 -0.0103 -0.2321  0.5818
  331MOL    C4546905   3.051   0.280   8.120  0.3019 -0.2343  0.1328
  331MOL    C4646906   2.911   0.267   8.178  0.2730  0.2431 -0.5239
  331MOL    N4746907   2.805   0.249   8.228  0.6479  0.8046  0.1574
  331MOL    H4846908   2.953   0.408   7.961  0.2312 -0.0315  0.3216
  331MOL    H4946909   2.979   0.243   7.924  1.3405  0.8589 -3.0968
  331MOL    H5046910   3.098   0.362   8.174 -0.1529  0.2611 -0.2121
  331MOL    C5146911   3.142   0.155   8.117  0.3939  0.5334 -0.2033
  331MOL    C5246912   3.193   0.095   8.251  0.6563  0.3226  0.0029
  331MOL    C5346913   3.090   0.105   0.043 -0.1952  0.5206  0.2773
  331MOL    N5446914   3.009   0.103   0.122  0.0504 -0.7101  0.3903
  331MOL    H5546915   3.089   0.071   8.074  1.4924 -0.9025  1.2135
  331MOL    H5646916   3.228   0.177   8.054 -0.7825  1.1814 -1.6080
  331MOL    H5746917   3.275   0.156   8.288  1.8406 -2.1070  1.5143
  331MOL    C5846918   3.242   8.260   8.244 -0.0032  0.3204 -0.8559
  331MOL    C5946919   3.355   8.232   8.144  0.0223 -0.6869  0.7422
  331MOL    C6046920   3.474   8.300   8.193  0.1143 -0.1571  0.4788
  331MOL    N6146921   3.572   0.039   8.228  0.0332 -0.1465  0.4914
  331MOL    H6246922   3.257   8.223   0.033 -3.1979  1.3163  0.0455
  331MOL    H6346923   3.157   8.197   8.217 -0.4626  0.7872 -0.4954
  331MOL    H6446924   3.325   8.287   8.055 -0.9335 -1.0140  0.8544
  331MOL    C6546925   3.377   8.083   8.122  0.4334  0.2131  0.6867
  331MOL    C6646926   3.350   8.034   7.980 -0.4207 -0.2498  0.6707
  331MOL    C6746927   3.432   7.913   7.951 -0.3161  0.8306  0.0604
  331MOL    N6846928   3.496   7.817   7.928 -0.1619  0.3703 -0.1789
  331MOL    H6946929   3.479   8.056   8.149  1.3842  2.7453 -0.2319
  331MOL    H7046930   3.318   8.023   8.192  0.0884  0.1711  0.3603
  331MOL    H7146931   3.380   8.117   7.917 -1.6622 -2.2345 -2.6431
  331MOL    C7246932   3.200   8.008   7.955 -0.1677  0.0074  0.3551
  331MOL    C7346933   3.161   7.987   7.807  0.5464  0.1223 -0.3486
  331MOL    C7446934   3.216   7.867   7.744  0.1510  0.1178  0.4844
  331MOL    N7546935   3.260   7.774   7.688 -0.4353 -0.6394 -0.1677
  331MOL    H7646936   3.182   7.917   8.012  1.0069 -0.2466  0.3311
  331MOL    H7746937   3.156   8.096   8.001 -2.5620  0.6857 -3.0212
  331MOL    H7846938   3.214   8.061   7.747  1.5317 -0.9576 -0.8300
  331MOL    C7946939   3.009   7.978   7.791  1.0166  0.1589 -0.4994
  331MOL    C8046940   2.940   8.094   7.854  0.2762 -0.8737  0.1191
  331MOL    C8146941   3.013   8.217   7.847  0.1755  0.0626 -0.5076
  331MOL    N8246942   3.073   0.006   7.843 -0.1990 -0.5327 -0.3419
  331MOL    H8346943   2.977   7.980   7.687 -2.1081  0.8266  0.4469
  331MOL    H8446944   2.970   7.886   7.835  0.9229  0.5256  0.1840
  331MOL    H8546945   2.941   8.072   7.961  0.3538  2.4973  0.8769
  331MOL    C8646946   2.789   8.110   7.812  0.2564  0.2284  0.1382
  331MOL    C8746947   2.756   8.219   7.712  0.0117  0.4011 -0.3017
  331MOL    C8846948   2.746   0.047   7.753 -0.0983 -0.5970  0.1975
  331MOL    N8946949   2.746   0.154   7.791  0.1986  0.2812 -0.8049
  331MOL    H9046950   2.764   8.016   7.762  0.8562  0.1414  0.0031
  331MOL    H9146951   2.730   8.116   7.904 -0.0464  3.8527 -0.2248
  331MOL    H9246952   2.651   8.203   7.687 -0.2006  0.4542  0.5280
  331MOL    C9346953   2.830   8.215   7.583 -0.1148 -0.5957  0.2921
  331MOL    C9446954   2.762   8.268   7.461 -0.3178  0.3350 -0.3236
  331MOL    C9546955   2.713   0.095   7.478  0.4814  0.3198 -0.8267
  331MOL    N9646956   2.676   0.205   7.493 -0.1783  0.6653  0.1781
  331MOL    H9746957   2.926   8.262   7.604  1.0433 -2.7751  0.0739
  331MOL    H9846958   2.848   8.111   7.555 -0.7935 -0.3106 -1.2818
  331MOL    H9946959   2.669   8.216   7.439 -1.1928  0.7614  2.1713
  331MOL   C10046960   2.854   8.263   7.337 -0.0945  0.0115 -0.3855
  331MOL   C10146961   2.797   0.013   7.208 -0.1821  0.6543  0.8159
  331MOL   C10246962   2.900   0.011   7.107  0.0439  0.0356  0.4432
  331MOL   N10346963   2.985   0.005   7.027  0.3833  0.4669 -0.1053
  331MOL   H10446964   2.947   0.006   7.350 -0.9536  1.6641 -1.1002
  331MOL   H10546965   2.908   8.169   7.326  1.8131  1.2699 -2.1368
  331MOL   H10646966   2.780   0.119   7.227  0.7880  0.8775  0.4766
  331MOL   C10746967   2.670   8.258   7.145  0.5006 -0.0133 -0.0849
  331MOL   C10846968   2.683   8.109   7.108  0.1223  0.0987  0.2190
  331MOL   C10946969   2.690   8.031   7.237  0.0757 -1.0830  0.8334
  331MOL   N11046970   2.698   7.976   7.338 -0.5792  0.4298  0.7024
  331MOL   H11146971   2.586   8.279   7.210  1.1728 -0.7063  1.0195
  331MOL   H11246972   2.635   0.003   7.059  0.0664 -1.3784 -0.8432
  331MOL   H11346973   2.776   8.091   7.053  0.4947 -0.3510  0.9825
  331MOL   C11446974   2.569   8.077   7.010 -0.6605  0.6264 -0.3179
  331MOL   C11546975   2.571   7.924   6.970  0.4902  0.4534 -0.2495
  331MOL   C11646976   2.540   7.824   7.075  0.5769 -0.2028  1.0580
  331MOL   N11746977   2.513   7.750   7.157  0.8438 -0.0799  0.6284
  331MOL   H11846978   2.471   8.090   7.056 -0.4894 -0.4660  0.3599
  331MOL   H11946979   2.577   8.143   6.924  3.3594 -0.7735 -1.1043
  331MOL   H12046980   2.673   7.896   6.944  0.1040 -2.6388  1.2981
  331MOL   C12146981   2.487   7.915   6.832 -0.3691  0.2475 -0.4853
  331MOL   C12246982   2.462   7.778   6.773  0.1879 -0.8287 -0.5838
  331MOL   C12346983   2.363   7.705   6.858 -0.0706  0.7685 -0.1625
  331MOL   N12446984   2.282   7.655   6.927 -0.3529 -0.0201 -0.3302
  331MOL   H12546985   2.393   7.969   6.838 -0.6785 -0.3144 -0.1460
  331MOL   H12646986   2.552   7.955   6.755  1.6743  1.1083  1.6282
  331MOL   H12746987   2.559   7.728   6.779  1.0519  0.9277  0.3617
  331MOL   C12846988   2.435   7.780   6.619  0.2950 -0.2800  0.1389
  331MOL   C12946989   2.439   7.649   6.547  0.0579 -0.0027  0.6339
  331MOL   C13046990   2.572   7.582   6.575  0.0583 -0.4887  0.8186
  331MOL   N13146991   2.673   7.535   6.600  0.1439  0.3048  0.0972
  331MOL   H13246992   2.333   7.812   6.599  1.4111  2.6978 -1.1981
  331MOL   H13346993   2.498   7.854   6.569  1.9599 -1.5982  0.2341
  331MOL   H13446994   2.440   7.667   6.439 -1.7115 -0.8073  0.4557
  331MOL   C13546995   2.319   7.556   6.577  0.1842 -0.2523 -0.0131
  331MOL   C13646996   2.321   7.432   6.482  0.4954  0.2826  0.7311
  331MOL   C13746997   2.322   7.471   6.343  0.5767  0.1205 -0.2981
  331MOL   N13846998   2.326   7.506   6.234 -0.3532  0.8375  0.7069
  331MOL   H13946999   2.328   7.519   6.679  0.5793 -0.6429 -0.1891
  331MOL   H14047000   2.222   7.606   6.572 -0.1295 -1.0627 -3.2644
  331MOL   H14147001   2.228   7.377   6.496  1.2654 -1.4619 -0.6672
  331MOL   H14247002   2.405   7.364   6.499 -0.5824 -1.0681  0.7304
  332MOL     C147003   0.980   1.770   2.430  0.5392 -0.0455 -0.5921
  332MOL     C247004   0.948   1.878   2.536  0.3445  0.0664 -0.6664
  332MOL     C347005   1.064   1.907   2.616  1.0625 -0.1529 -0.1778
  332MOL     N447006   1.157   1.935   2.682 -0.2116 -0.3230 -0.3637
  332MOL     H547007   0.891   1.772   2.366  0.6328 -1.2405 -0.7798
  332MOL     H647008   1.010   1.680   2.485 -3.1143  0.1609  1.9423
  332MOL     H747009   0.871   1.840   2.603 -0.6432 -0.3869 -2.0569
  332MOL     H847010   1.064   1.812   2.375  1.4891 -0.0974  0.7971
  332MOL     C947011   0.877   1.992   2.462  0.1482 -0.7053  0.2288
  332MOL    C1047012   0.889   2.134   2.529 -0.7097 -0.2439  0.6463
  332MOL    C1147013   0.830   2.244   2.445  0.1626  0.3406 -0.2935
  332MOL    N1247014   0.788   2.325   2.383  0.0044  0.0332 -0.2526
  332MOL    H1347015   0.922   2.002   2.363  2.4306 -0.4129  1.2559
  332MOL    H1447016   0.773   1.967   2.442 -0.5713  2.9129 -0.8292
  332MOL    H1547017   0.996   2.151   2.521  0.0080 -4.1132  1.1539
  332MOL    C1647018   0.845   2.144   2.676  0.8500  0.7687  0.0659
  332MOL    C1747019   0.701   2.105   2.714  0.1559 -0.2336 -0.1517
  332MOL    C1847020   0.689   2.143   2.857 -0.1040  0.6593  0.5458
  332MOL    N1947021   0.677   2.162   2.971 -0.6822  0.0763 -0.4684
  332MOL    H2047022   0.909   2.087   2.744 -0.2317 -1.1618 -0.4750
  332MOL    H2147023   0.854   2.250   2.699  0.0600  1.1174 -1.1461
  332MOL    H2247024   0.678   1.999   2.711 -2.2907  0.1821  2.1130
  332MOL    C2347025   0.590   2.173   2.625  0.5282 -0.4270  0.3987
  332MOL    C2447026   0.444   2.170   2.676  0.4516 -1.3434 -0.3115
  332MOL    C2547027   0.404   2.045   2.735 -0.1533 -0.4848 -0.2055
  332MOL    N2647028   0.369   1.949   2.786 -0.1365  0.2699  0.9324
  332MOL    H2747029   0.610   2.279   2.611  1.1785 -0.1413  3.1311
  332MOL    H2847030   0.598   2.123   2.529 -1.4533  1.3457 -0.7229
  332MOL    H2947031   0.376   2.193   2.594  0.3043  1.9731  0.6938
  332MOL    C3047032   0.418   2.294   2.766  0.9817  0.6348  0.2211
  332MOL    C3147033   0.289   2.300   2.862 -0.3605  0.0150  0.6175
  332MOL    C3247034   0.159   2.286   2.795  0.4288 -0.2256 -0.5894
  332MOL    N3347035   0.055   2.268   2.747  0.3871 -0.4979  0.1343
  332MOL    H3447036   0.501   2.316   2.834  1.7558 -0.0763 -0.4721
  332MOL    H3547037   0.415   2.381   2.700  1.5514  0.0102 -0.6476
  332MOL    H3647038   0.277   2.403   2.895 -0.0062 -0.0887  1.0723
  332MOL    C3747039   0.302   2.212   2.992  0.2816 -0.4445  0.1499
  332MOL    C3847040   0.186   2.215   3.097 -0.1700 -0.0002  0.1653
  332MOL    C3947041   0.195   2.109   3.201 -0.6586  0.2189  0.4821
  332MOL    N4047042   0.197   2.029   3.280 -0.0270 -0.1513  0.4801
  332MOL    H4147043   0.319   2.110   2.958  1.5218 -0.0976 -0.3015
  332MOL    H4247044   0.395   2.236   3.042 -0.2928 -1.8979  1.9799
  332MOL    H4347045   0.107   2.175   3.034  0.8574 -1.7579 -0.0395
  332MOL    C4447046   0.139   2.354   3.142  0.0194 -0.2674 -0.3442
  332MOL    C4547047   0.052   2.344   3.268  0.1675 -0.1213 -0.0591
  332MOL    C4647048   0.115   2.322   3.404 -0.1113 -0.0113 -0.1343
  332MOL    N4747049   0.166   2.306   3.507  0.0243  0.2707  0.1602
  332MOL    H4847050   0.226   2.418   3.152 -0.0385 -0.6917  3.3378
  332MOL    H4947051   0.074   2.395   3.065 -0.5937 -1.4204 -0.4538
  332MOL    H5047052   8.296   2.260   3.254 -1.1244  0.5130  2.3398
  332MOL    C5147053   8.268   2.464   3.284 -0.2536 -0.4869 -0.2930
  332MOL    C5247054   0.033   2.595   3.329 -0.3861  0.0321  0.3112
  332MOL    C5347055   0.121   2.646   3.220 -0.5861  0.6207 -0.6077
  332MOL    N5447056   0.181   2.686   3.129 -0.7335  0.2969 -0.7707
  332MOL    H5547057   8.207   2.490   3.197  1.6896  2.9894 -0.7197
  332MOL    H5647058   8.192   2.442   3.358  0.6839 -2.6404  0.0766
  332MOL    H5747059   0.095   2.563   3.414  2.2419  0.7260 -1.2785
  332MOL    C5847060   8.266   2.713   3.388  0.3432  0.6157  0.4351
  332MOL    C5947061   8.198   2.814   3.290  0.6504  0.4523  1.1227
  332MOL    C6047062   8.165   2.761   3.157  0.4774  0.3171  0.6098
  332MOL    N6147063   8.131   2.720   3.055  0.2564 -0.1635  0.1148
  332MOL    H6247064   8.187   2.661   3.442  1.0708  0.1206  1.0352
  332MOL    H6347065   0.004   2.776   3.461 -0.5709 -0.3327  1.8865
  332MOL    H6447066   8.270   2.892   3.266 -0.6309  1.5612  0.8286
  332MOL    C6547067   8.085   2.885   3.367  0.2953 -0.4977  0.5553
  332MOL    C6647068   7.943   2.828   3.353  0.3889 -0.5238 -0.0865
  332MOL    C6747069   7.935   2.688   3.336  0.5745 -0.1771 -0.4313
  332MOL    N6847070   7.922   2.573   3.332  0.4056 -0.1516 -0.4234
  332MOL    H6947071   8.116   2.886   3.472 -0.9190 -1.4821  0.9396
  332MOL    H7047072   8.088   2.989   3.335  0.3182 -0.5774  0.2964
  332MOL    H7147073   7.915   2.881   3.262  0.8765 -0.5506 -0.2539
  332MOL    C7247074   7.837   2.880   3.458 -0.2943 -0.2041 -0.2666
  332MOL    C7347075   7.694   2.891   3.408 -0.3044 -0.6731  0.3969
  332MOL    C7447076   7.608   2.776   3.421  0.6440 -0.5062  0.5374
  332MOL    N7547077   7.541   2.684   3.426 -0.0408 -0.5727  0.1950
  332MOL    H7647078   7.837   2.804   3.536  2.5694  0.0460  0.0306
  332MOL    H7747079   7.877   2.971   3.503  0.5799 -0.0887 -1.2530
  332MOL    H7847080   7.695   2.906   3.300  1.6753 -0.3833  0.4421
  332MOL    C7947081   7.624   3.018   3.476  0.3989 -0.7489 -0.5275
  332MOL    C8047082   7.476   3.047   3.434 -0.3343 -0.1313 -0.3137
  332MOL    C8147083   7.425   3.168   3.506 -0.0809  0.6008  0.2467
  332MOL    N8247084   7.377   3.261   3.557 -0.4057  0.2405 -0.4220
  332MOL    H8347085   7.632   2.999   3.583  2.4817 -0.9677 -0.7067
  332MOL    H8447086   7.674   3.113   3.459 -0.8891  0.4719  2.2462
  332MOL    H8547087   7.417   2.957   3.453 -0.0929 -0.5438 -1.4856
  332MOL    C8647088   7.463   3.074   3.288 -0.3514 -1.0530  0.4093
  332MOL    C8747089   7.321   3.120   3.245  0.1982 -0.1499  0.8106
  332MOL    C8847090   7.330   3.235   3.157  0.2657 -0.1810  0.4535
  332MOL    N8947091   7.344   3.327   3.095 -0.1336 -0.2348 -0.0181
  332MOL    H9047092   7.537   3.147   3.256 -2.8672  1.4133 -0.0079
  332MOL    H9147093   7.488   2.987   3.228  1.9488  0.6034 -1.0981
  332MOL    H9247094   7.268   3.168   3.327 -2.0193 -1.9516  0.4701
  332MOL    C9347095   7.217   3.012   3.198 -0.4401 -0.9837  0.0404
  332MOL    C9447096   7.232   2.985   3.041  0.9747  0.9158 -0.3594
  332MOL    C9547097   7.353   2.904   3.006 -0.3065  0.0358  1.1813
  332MOL    N9647098   7.445   2.841   2.972 -0.6414 -0.0137 -0.3794
  332MOL    H9747099   7.220   2.924   3.262 -0.0376 -2.1424 -1.5305
  332MOL    H9847100   7.115   3.047   3.211  1.0497  2.5723  2.8732
  332MOL    H9947101   7.250   3.079   2.989  1.0362  1.2866  0.3238
  332MOL   C10047102   7.108   2.923   2.979 -0.6049  0.4288  0.0112
  332MOL   C10147103   6.986   3.018   2.941 -0.6635 -0.2846 -0.5230
  332MOL   C10247104   7.035   3.152   2.910 -0.2065 -0.5232  0.4411
  332MOL   N10347105   7.065   3.258   2.882 -0.4935  0.0531 -0.1654
  332MOL   H10447106   7.131   2.900   2.874 -0.1099  1.3950 -0.1035
  332MOL   H10547107   7.072   2.838   3.036  0.0073  0.5674  0.6148
  332MOL   H10647108   6.926   3.038   3.030  0.9215  2.0553  0.0729
  332MOL   C10747109   6.890   2.973   2.829  0.4494  0.0625  0.2831
  332MOL   C10847110   6.826   2.834   2.843 -0.8235 -0.1897 -0.4182
  332MOL   C10947111   6.799   2.801   2.986  0.4888  0.1921  0.3384
  332MOL   N11047112   6.778   2.772   3.095 -0.5533 -0.5018 -0.6988
  332MOL   H11147113   6.812   3.048   2.827  0.2720 -0.0955  1.0897
  332MOL   H11247114   6.921   2.982   2.725 -2.4496 -0.9064 -0.7085
  332MOL   H11347115   6.901   2.762   2.811 -0.4963  0.7651 -1.8449
  332MOL   C11447116   6.721   2.806   2.737  0.1909  0.3278 -0.4728
  332MOL   C11547117   6.625   2.686   2.772  0.7171 -0.4614 -0.4930
  332MOL   C11647118   6.708   2.579   2.818 -0.0096  0.9365 -0.0465
  332MOL   N11747119   6.772   2.493   2.865 -0.6599  0.5004  0.3861
  332MOL   H11847120   6.657   2.893   2.723  2.7052  2.3598  0.3011
  332MOL   H11947121   6.763   2.785   2.638  1.2263  0.8687 -0.1563
  332MOL   H12047122   6.581   2.644   2.682 -0.8974  0.2798 -0.0686
  332MOL   C12147123   6.517   2.739   2.865 -0.0960 -0.3739 -0.9734
  332MOL   C12247124   6.409   2.630   2.893 -0.1562  0.0868 -0.0750
  332MOL   C12347125   6.459   2.523   2.980  0.6601  0.0253 -0.2243
  332MOL   N12447126   6.498   2.442   3.056 -0.6282  0.0994  0.1939
  332MOL   H12547127   6.554   2.777   2.960 -0.9454  2.8352 -1.8582
  332MOL   H12647128   6.459   2.817   2.814  0.4803  1.4839  1.1349
  332MOL   H12747129   6.393   2.571   2.803  0.5006 -0.1920 -0.0097
  332MOL   C12847130   6.274   2.682   2.945 -0.7896 -0.3105 -0.2188
  332MOL   C12947131   6.244   2.679   3.099  0.2362 -0.4271  0.0567
  332MOL   C13047132   6.344   2.723   3.199  0.0732  0.1998 -0.5880
  332MOL   N13147133   6.422   2.762   3.276 -0.2756  0.0118 -0.1953
  332MOL   H13247134   6.268   2.783   2.904 -0.8670  0.0305  0.6334
  332MOL   H13347135   6.198   2.620   2.899  1.2872 -3.0211 -0.1032
  332MOL   H13447136   6.230   2.574   3.128  0.9226 -0.0140  1.9875
  332MOL   C13547137   6.103   2.731   3.123  0.7379  0.3570  0.2886
  332MOL   C13647138   6.041   2.682   3.259  0.8179 -0.1092 -0.0235
  332MOL   C13747139   6.013   2.537   3.262 -0.6012 -0.3008  0.4465
  332MOL   N13847140   6.001   2.424   3.267  0.5269  0.0187 -0.5582
  332MOL   H13947141   6.118   2.839   3.117  1.0707  0.2361 -1.3944
  332MOL   H14047142   6.028   2.717   3.045  1.1397  2.0192 -0.4167
  332MOL   H14147143   5.946   2.727   3.287  1.1747 -0.1125  1.2049
  332MOL   H14247144   6.103   2.703   3.345 -0.2481 -0.0420  0.7344
  333MOL     C147145   6.385   2.320   0.744 -0.0204 -0.5803  0.8951
  333MOL     C247146   6.444   2.342   0.602  0.3570 -0.3179  0.0058
  333MOL     C347147   6.423   2.226   0.512 -0.1732 -0.3334  0.5694
  333MOL     N447148   6.412   2.136   0.442  0.2627  0.5428 -0.2661
  333MOL     H547149   6.403   2.403   0.813  2.0036  0.5362 -0.9136
  333MOL     H647150   6.433   2.236   0.794  0.6162 -1.3746 -1.0010
  333MOL     H747151   6.553   2.348   0.611  0.2671  0.8464  0.3713
  333MOL     H847152   6.278   2.298   0.739 -0.2631  0.5858  0.8457
  333MOL     C947153   6.398   2.476   0.547 -0.0121  0.9131  0.4219
  333MOL    C1047154   6.274   2.470   0.449 -0.1771 -0.9810 -0.3688
  333MOL    C1147155   6.181   2.591   0.474 -0.1797 -0.0216  0.0483
  333MOL    N1247156   6.108   2.679   0.497  0.3890  0.1375  0.0848
  333MOL    H1347157   6.382   2.537   0.636  0.9944 -0.0550  1.2942
  333MOL    H1447158   6.484   2.528   0.505  0.7188 -1.0018 -0.5456
  333MOL    H1547159   6.225   2.375   0.465 -0.0388 -0.8562  0.8676
  333MOL    C1647160   6.333   2.468   0.300 -0.3614 -0.0434 -0.6805
  333MOL    C1747161   6.227   2.419   0.198 -0.1115 -0.4728  0.0638
  333MOL    C1847162   6.139   2.520   0.145  0.0551  0.4252 -0.1414
  333MOL    N1947163   6.064   2.598   0.101  0.4998 -0.4971  0.0131
  333MOL    H2047164   6.378   2.564   0.275  1.7674 -0.8753 -0.0969
  333MOL    H2147165   6.422   2.406   0.295  0.6903  1.0832  2.5193
  333MOL    H2247166   6.159   2.354   0.253  0.8332 -1.1733  0.3998
  333MOL    C2347167   6.286   2.352   0.069 -0.3232 -0.2146 -0.1774
  333MOL    C2447168   6.400   2.435   0.002 -0.2815  0.0820  0.5490
  333MOL    C2547169   6.508   2.354   8.262  0.2092 -0.1049 -0.0297
  333MOL    N2647170   6.592   2.287   8.216  0.9134 -0.0928  0.3551
  333MOL    H2747171   6.321   2.255   0.104 -1.5412 -0.0710  1.5221
  333MOL    H2847172   6.209   2.343   8.305 -0.5598 -0.8116  0.1239
  333MOL    H2947173   6.447   2.496   0.080  1.9752 -0.7875 -0.0869
  333MOL    C3047174   6.351   2.542   8.221 -0.2011  0.1742 -0.6925
  333MOL    C3147175   6.268   2.503   8.097  0.5383  0.1459 -0.5640
  333MOL    C3247176   6.278   2.614   7.997 -0.5168  0.0418 -0.1546
  333MOL    N3347177   6.281   2.699   7.919  0.0847  0.4743 -0.0555
  333MOL    H3447178   6.294   2.608   8.286  2.3351  0.6430  1.1310
  333MOL    H3547179   6.429   2.608   8.182  1.5311 -1.9507 -0.9425
  333MOL    H3647180   6.163   2.490   8.120  0.5570  0.2211 -0.4345
  333MOL    C3747181   6.330   2.383   8.024  0.8455 -0.3603  0.1187
  333MOL    C3847182   6.256   2.337   7.892 -1.1996 -0.3363  0.9813
  333MOL    C3947183   6.358   2.253   7.831 -0.2796  0.0738 -0.6170
  333MOL    N4047184   6.437   2.185   7.784 -0.5229  0.7702  0.2183
  333MOL    H4147185   6.431   2.417   8.001  0.7842  0.5189  1.1063
  333MOL    H4247186   6.343   2.300   8.093  1.1532 -0.1887  0.2668
  333MOL    H4347187   6.234   2.417   7.822 -1.6493 -0.5807  0.8418
  333MOL    C4447188   6.130   2.258   7.908  0.6268 -0.4824 -0.1815
  333MOL    C4547189   6.043   2.226   7.783 -0.2476  0.3407  0.2031
  333MOL    C4647190   6.044   2.337   7.694 -0.0681 -0.7066  0.1474
  333MOL    N4747191   6.050   2.423   7.622  0.3290 -0.1290  0.7469
  333MOL    H4847192   6.152   2.164   7.958  0.7430 -0.5202 -0.3038
  333MOL    H4947193   6.080   2.313   7.988  0.5007 -0.8492 -0.0046
  333MOL    H5047194   5.941   2.208   7.815 -0.0069  0.0355  0.7966
  333MOL    C5147195   6.095   2.093   7.707 -0.0465  0.5985 -0.5550
  333MOL    C5247196   5.996   2.049   7.596  0.3780  0.0954 -0.0531
  333MOL    C5347197   6.066   1.970   7.494  0.8601 -0.7559 -0.3928
  333MOL    N5447198   6.117   1.900   7.421 -0.1957  0.2619  0.4715
  333MOL    H5547199   6.191   2.108   7.657  0.0528  1.6434 -0.0597
  333MOL    H5647200   6.111   2.003   7.767  1.2662  2.7209  2.4503
  333MOL    H5747201   5.966   2.131   7.531  1.3273  1.4484  1.1839
  333MOL    C5847202   5.862   1.991   7.655  0.4075 -0.2712  0.1484
  333MOL    C5947203   5.761   1.933   7.550  0.0307  0.0717 -0.0255
  333MOL    C6047204   5.805   1.794   7.515  0.7157 -0.1170  0.2499
  333MOL    N6147205   5.841   1.683   7.497  0.3666 -0.3134 -0.0394
  333MOL    H6247206   5.874   1.917   7.734  1.1936 -1.5359 -1.1403
  333MOL    H6347207   5.807   2.075   7.697 -0.0178  0.8977 -2.5984
  333MOL    H6447208   5.776   1.983   7.454 -1.3959 -0.9623 -0.8010
  333MOL    C6547209   5.613   1.954   7.593 -0.1047  0.1614  0.0592
  333MOL    C6647210   5.522   1.958   7.478  0.3404 -0.2729  0.2219
  333MOL    C6747211   5.533   1.843   7.393  0.0217 -0.4269  0.2380
  333MOL    N6847212   5.537   1.753   7.325 -0.1524  0.0059 -0.5667
  333MOL    H6947213   5.587   1.872   7.660  0.9958 -0.4455 -0.2486
  333MOL    H7047214   5.611   2.049   7.645 -0.0831 -0.4543  1.2041
  333MOL    H7147215   5.545   2.052   7.428  0.5200 -0.5467 -0.2098
  333MOL    C7247216   5.378   1.975   7.533 -0.7405  0.3919  0.2443
  333MOL    C7347217   5.272   2.017   7.431  0.0888 -0.0928 -0.4166
  333MOL    C7447218   5.261   1.924   7.315  0.5404  0.0093  0.2464
  333MOL    N7547219   5.248   1.848   7.230 -0.3397 -0.1209  0.2246
  333MOL    H7647220   5.344   1.885   7.584  1.0656 -1.3020 -1.4503
  333MOL    H7747221   5.382   2.060   7.601 -1.7132 -0.1655  1.0010
  333MOL    H7847222   5.283   2.121   7.399 -0.4440  0.3997  0.9352
  333MOL    C7947223   5.129   2.009   7.492  0.0904 -0.0760  0.8048
  333MOL    C8047224   5.025   2.081   7.408  0.0909 -0.1917 -0.0491
  333MOL    C8147225   4.890   2.029   7.427 -0.4181  0.2389 -0.2198
  333MOL    N8247226   4.784   1.982   7.445  0.4844 -0.2515  0.2718
  333MOL    H8347227   5.103   1.904   7.503 -1.8156  0.1890 -0.8977
  333MOL    H8447228   5.141   2.054   7.591 -0.7661  0.5717  0.6241
  333MOL    H8547229   5.060   2.071   7.306 -0.3347 -1.0584 -0.1121
  333MOL    C8647230   5.032   2.228   7.447 -0.8143 -0.3778 -0.9830
  333MOL    C8747231   4.976   2.257   7.587 -0.6303  0.6515  0.3481
  333MOL    C8847232   5.085   2.316   7.663 -0.1105  0.0691 -0.8781
  333MOL    N8947233   5.173   2.366   7.729  0.4926 -0.4736 -0.0917
  333MOL    H9047234   5.132   2.268   7.432 -1.4174  1.8674  0.6355
  333MOL    H9147235   4.981   2.293   7.375  1.6407  1.4300 -1.1434
  333MOL    H9247236   4.947   2.169   7.645 -2.2659  1.4051  0.7082
  333MOL    C9347237   4.836   2.331   7.579 -0.4720 -0.0989 -1.1350
  333MOL    C9447238   4.766   2.333   7.722 -0.5161 -0.2780  0.5275
  333MOL    C9547239   4.676   2.211   7.739 -0.0513 -0.0994  0.1494
  333MOL    N9647240   4.606   2.122   7.750  0.0699  0.1836  0.7585
  333MOL    H9747241   4.853   2.427   7.531  0.1785 -0.1774 -1.0742
  333MOL    H9847242   4.778   2.271   7.509 -0.9876 -3.9480  2.4117
  333MOL    H9947243   4.693   2.413   7.711  0.6435  1.0053  1.9887
  333MOL   C10047244   4.852   2.378   7.839 -0.4511  0.2543 -0.0533
  333MOL   C10147245   4.796   2.446   7.966  0.0240  0.2580  0.3813
  333MOL   C10247246   4.733   2.332   8.036 -0.5541 -0.2793 -0.2079
  333MOL   N10347247   4.679   2.243   8.089  0.0387  0.1119  0.1059
  333MOL   H10447248   4.918   2.296   7.870 -1.2961 -0.2121  0.5506
  333MOL   H10547249   4.924   2.448   7.796 -0.0303  1.2489  2.1877
  333MOL   H10647250   4.711   2.511   7.943  0.6294  0.1861 -2.1808
  333MOL   C10747251   4.904   2.510   8.062  0.5132 -0.4650  0.4259
  333MOL   C10847252   4.960   2.650   8.020 -0.1349 -0.2377 -0.4526
  333MOL   C10947253   4.955   2.741   8.137 -0.0185  0.5247 -0.1116
  333MOL   N11047254   4.956   2.814   8.231  0.7451 -0.1443 -0.0320
  333MOL   H11147255   4.835   2.529   8.145  1.0880  1.1482  0.5425
  333MOL   H11247256   4.983   2.445   8.099  1.8271  0.6716 -0.3905
  333MOL   H11347257   4.877   2.681   7.955  0.4178 -0.9566 -1.5088
  333MOL   C11447258   5.091   2.662   7.938  0.1102 -0.1175 -0.3706
  333MOL   C11547259   5.154   2.808   7.929  0.2224 -0.5337 -0.1902
  333MOL   C11647260   5.047   2.901   7.887 -0.4951 -0.5175  0.5373
  333MOL   N11747261   4.962   2.976   7.856 -0.0885  0.2513  0.2514
  333MOL   H11847262   5.168   2.599   7.982 -1.1825 -2.5523 -1.4854
  333MOL   H11947263   5.073   2.619   7.839 -0.0512 -1.4052  0.2100
  333MOL   H12047264   5.218   2.819   7.841  1.0313 -0.5390  0.3889
  333MOL   C12147265   5.237   2.859   8.044 -0.3206  0.2256  0.3071
  333MOL   C12247266   5.346   2.966   8.008  0.8432  0.1745  0.0113
  333MOL   C12347267   5.297   3.075   7.928 -0.1037 -0.5652 -0.0304
  333MOL   N12447268   5.254   3.167   7.869  0.0802 -0.9524  0.1697
  333MOL   H12547269   5.170   2.894   8.122  0.5251  0.9104  0.7239
  333MOL   H12647270   5.285   2.776   8.096 -0.6290  0.5111  1.0515
  333MOL   H12747271   5.412   2.919   7.934  0.0507 -1.8194  0.5460
  333MOL   C12847272   5.423   3.023   8.129  0.1043 -1.0155 -0.2481
  333MOL   C12947273   5.496   2.922   8.215 -0.3274 -0.1050 -0.9233
  333MOL   C13047274   5.604   2.854   8.147 -0.3864  0.1540  0.3236
  333MOL   N13147275   5.700   2.802   8.095 -0.2297 -0.2905 -0.4435
  333MOL   H13247276   5.504   3.085   8.092  1.2877 -2.6147 -0.3914
  333MOL   H13347277   5.343   3.080   8.178  1.1684 -1.4610  2.0919
  333MOL   H13447278   5.422   2.848   8.245 -0.5713  0.6448  0.3875
  333MOL   C13547279   5.544   2.979   0.039  0.0835  0.6562  0.3634
  333MOL   C13647280   5.437   3.043   0.122  0.4783  0.0522 -0.4024
  333MOL   C13747281   5.324   2.953   0.144 -0.2541 -0.4421  0.2214
  333MOL   N13847282   5.232   2.888   0.165  0.4055  0.1191 -0.4066
  333MOL   H13947283   5.600   2.897   0.086  0.8124  0.3765 -0.9579
  333MOL   H14047284   5.618   3.055   0.011  0.1246 -0.1933 -1.9405
  333MOL   H14147285   5.395   3.136   0.085 -2.8518 -0.7109  1.3058
  333MOL   H14247286   5.470   3.060   0.224 -1.5127 -3.0924  0.8534
  334MOL     C147287   7.278   1.707   4.873  0.5136  0.3216  0.4669
  334MOL     C247288   7.193   1.576   4.905  0.2587 -0.8576 -0.1447
  334MOL     C347289   7.285   1.470   4.923  0.8210 -0.5403 -0.7895
  334MOL     N447290   7.365   1.389   4.937  0.5111 -0.2287 -0.4966
  334MOL     H547291   7.337   1.739   4.959  2.7513 -2.5601  0.0586
  334MOL     H647292   7.215   1.794   4.853 -1.0718 -0.6838  0.9590
  334MOL     H747293   7.134   1.560   4.815  0.0879 -1.9613  0.1529
  334MOL     H847294   7.351   1.684   4.796 -0.1833  0.4262 -0.2343
  334MOL     C947295   7.091   1.596   5.021 -0.1235  0.6499  0.1879
  334MOL    C1047296   7.129   1.635   5.160 -0.2168 -0.6436 -0.1524
  334MOL    C1147297   7.164   1.776   5.169  0.1954 -0.5105  0.5081
  334MOL    N1247298   7.195   1.888   5.182 -0.4929  0.4724 -0.5702
  334MOL    H1347299   7.011   1.666   4.997 -1.9737 -0.9106  1.5508
  334MOL    H1447300   7.047   1.496   5.026 -1.6203  1.2581 -0.5538
  334MOL    H1547301   7.220   1.581   5.183  0.4617 -0.2136 -1.7712
  334MOL    C1647302   7.017   1.600   5.267  0.1923 -0.2942 -0.0945
  334MOL    C1747303   7.002   1.449   5.299  0.0069  0.1315 -0.0728
  334MOL    C1847304   6.947   1.355   5.196 -0.3388  0.0990 -0.0185
  334MOL    N1947305   6.911   1.286   5.108  0.1901 -0.1892 -0.2234
  334MOL    H2047306   7.031   1.652   5.362 -2.3662  0.3884 -0.0384
  334MOL    H2147307   6.922   1.627   5.221  0.3558  0.3379 -0.0599
  334MOL    H2247308   6.927   1.443   5.378 -0.6106 -1.7040 -0.7636
  334MOL    C2347309   7.133   1.399   5.352 -0.5319  0.8254  0.2004
  334MOL    C2447310   7.207   1.480   5.457 -0.1410  0.0319  0.6152
  334MOL    C2547311   7.141   1.506   5.582  0.1859  0.4363 -0.1368
  334MOL    N2647312   7.079   1.529   5.676 -0.6529  0.0764 -0.1990
  334MOL    H2747313   7.118   1.300   5.397  0.0354  1.4508  1.7822
  334MOL    H2847314   7.192   1.386   5.261 -2.3978 -0.7496 -0.8318
  334MOL    H2947315   7.221   1.581   5.417  2.1582 -0.9964 -1.2331
  334MOL    C3047316   7.348   1.425   5.488  0.2903 -0.1246  0.7603
  334MOL    C3147317   7.427   1.483   5.605  0.4010  0.5112  0.5686
  334MOL    C3247318   7.361   1.426   5.727 -0.4315  0.3977  0.1045
  334MOL    N3347319   7.309   1.384   5.826 -0.0795  0.1148 -0.2572
  334MOL    H3447320   7.339   1.316   5.497 -2.7022 -0.1535 -1.8646
  334MOL    H3547321   7.405   1.429   5.395 -0.8970  0.8777  0.0626
  334MOL    H3647322   7.416   1.591   5.602  1.2202  0.5470 -1.9273
  334MOL    C3747323   7.577   1.444   5.601  1.0848  0.1287  0.5005
  334MOL    C3847324   7.682   1.514   5.697  0.9326 -0.4100  0.4332
  334MOL    C3947325   7.656   1.465   5.832 -0.0190 -0.4896 -0.5981
  334MOL    N4047326   7.644   1.431   5.939 -1.1253 -0.1396 -0.1112
  334MOL    H4147327   7.578   1.336   5.611  2.3491  0.0479 -0.3677
  334MOL    H4247328   7.613   1.470   5.501  3.1884 -0.1679  1.1429
  334MOL    H4347329   7.655   1.620   5.700 -0.0451 -0.6821  1.5552
  334MOL    C4447330   7.826   1.487   5.647  0.3826 -0.1222  0.0693
  334MOL    C4547331   7.952   1.575   5.682 -0.5258  0.5167 -0.2740
  334MOL    C4647332   7.913   1.715   5.657  0.3784 -0.2840 -0.0966
  334MOL    N4747333   7.885   1.829   5.638 -0.2264 -0.1459  0.1110
  334MOL    H4847334   7.847   1.381   5.660 -2.8284 -0.7041  0.7820
  334MOL    H4947335   7.826   1.492   5.538 -2.8274 -0.2917  0.0274
  334MOL    H5047336   8.026   1.562   5.603 -0.2446  0.7657 -0.0562
  334MOL    C5147337   8.018   1.552   5.818 -0.6591 -0.3449  0.4605
  334MOL    C5247338   8.163   1.607   5.818 -0.1757  0.2754  0.8016
  334MOL    C5347339   8.177   1.752   5.836 -0.2274  0.0819  0.4312
  334MOL    N5447340   8.187   1.865   5.840  0.0608 -0.0912  0.1981
  334MOL    H5547341   7.955   1.610   5.885 -1.5980 -1.9648  0.9990
  334MOL    H5647342   8.013   1.447   5.846  0.8210 -0.5941 -0.1567
  334MOL    H5747343   8.197   1.591   5.716 -0.6863 -1.8928  0.9498
  334MOL    C5847344   8.248   1.527   5.913  0.1074  0.8001  0.2508
  334MOL    C5947345   0.084   1.547   5.911 -0.2762 -0.6050  0.4216
  334MOL    C6047346   0.129   1.617   5.790 -0.5222  0.1515  0.3769
  334MOL    N6147347   0.161   1.667   5.692  0.0810 -0.1905 -0.5385
  334MOL    H6247348   8.208   1.545   6.012 -0.1676 -2.3953  0.7833
  334MOL    H6347349   8.242   1.421   5.887  0.6041  0.8164  0.0598
  334MOL    H6447350   0.140   1.453   5.906 -0.4033 -0.5542 -3.2871
  334MOL    C6547351   0.134   1.635   6.028 -0.2606 -0.1005  0.0028
  334MOL    C6647352   0.102   1.587   6.163  0.1989  0.5823  1.4077
  334MOL    C6747353   0.125   1.445   6.186 -0.2206 -0.4813  0.1161
  334MOL    N6847354   0.134   1.331   6.209  0.4330 -0.3329  0.2119
  334MOL    H6947355   0.242   1.645   6.016 -0.3583 -1.8352 -2.4661
  334MOL    H7047356   0.086   1.732   6.011 -0.7356 -0.3314  0.0342
  334MOL    H7147357   8.306   1.589   6.173 -0.0238  0.1429 -0.7242
  334MOL    C7247358   0.163   1.664   6.284  0.0883 -0.8576 -0.5948
  334MOL    C7347359   0.109   1.812   6.294 -0.0030  0.0366 -0.1779
  334MOL    C7447360   8.279   1.825   6.249 -0.1705 -0.7799 -0.4986
  334MOL    N7547361   8.164   1.835   6.222 -0.1945  0.1444  0.3559
  334MOL    H7647362   0.141   1.604   6.372  2.9541  1.0168  1.4960
  334MOL    H7747363   0.271   1.656   6.276  0.1284 -1.4143  0.4570
  334MOL    H7847364   0.169   1.877   6.231 -1.2178  1.2851 -0.0796
  334MOL    C7947365   0.125   1.862   6.443 -0.6412 -0.3690 -0.5122
  334MOL    C8047366   0.112   2.014   6.467 -0.4178  0.2087  0.7887
  334MOL    C8147367   0.233   2.088   6.418  0.2182 -0.2626 -0.1802
  334MOL    N8247368   0.326   2.149   6.388 -0.2172  0.1507 -0.2201
  334MOL    H8347369   0.061   1.818   6.519  0.9197 -1.8713 -0.0343
  334MOL    H8447370   0.227   1.829   6.464 -1.2962 -0.7294  2.4441
  334MOL    H8547371   0.137   2.016   6.573  0.6232  1.2448  0.5407
  334MOL    C8647372   8.291   2.089   6.440  0.0502 -0.8383  0.9116
  334MOL    C8747373   8.269   2.200   6.536 -0.0736 -0.2789 -0.0374
  334MOL    C8847374   8.177   2.300   6.478 -0.1531  0.0088  0.0269
  334MOL    N8947375   8.096   2.379   6.440  0.1297  0.4344 -0.3891
  334MOL    H9047376   8.277   2.118   6.336 -1.5889 -0.9808  1.0808
  334MOL    H9147377   8.211   2.017   6.454 -0.4788 -0.3862  0.2323
  334MOL    H9247378   0.047   2.261   6.544 -1.3035  1.8003 -1.7976
  334MOL    C9347379   8.223   2.140   6.677  0.2152  0.4326  0.2574
  334MOL    C9447380   8.209   2.239   6.793  0.4094 -0.5895 -0.0281
  334MOL    C9547381   8.100   2.335   6.765  0.4066 -0.2562 -0.1284
  334MOL    N9647382   8.016   2.413   6.744  0.4300  0.1213 -0.5022
  334MOL    H9747383   8.129   2.085   6.672  1.5755 -2.3906  3.3206
  334MOL    H9847384   8.299   2.073   6.718  2.8039  3.5288  0.7381
  334MOL    H9947385   8.300   2.298   6.807  0.4958 -0.5436 -0.7574
  334MOL   C10047386   8.202   2.168   6.924 -0.9236 -0.1017 -0.1108
  334MOL   C10147387   8.197   2.241   7.055 -0.2619 -0.2435  0.1527
  334MOL   C10247388   8.076   2.320   7.064  0.0673 -0.5293 -0.2225
  334MOL   N10347389   7.981   2.382   7.076 -0.4752  0.7405 -0.5385
  334MOL   H10447390   8.126   2.092   6.913  1.0096 -2.1690  0.3655
  334MOL   H10547391   8.283   2.094   6.920 -2.6095 -1.9475 -0.6952
  334MOL   H10647392   8.286   2.303   7.061 -0.3445  0.1070 -1.8359
  334MOL   C10747393   8.212   2.137   7.174  0.4198 -0.6144  1.1438
  334MOL   C10847394   8.090   2.059   7.220 -0.1966 -1.3596  0.2902
  334MOL   C10947395   8.029   1.977   7.117  0.3973  0.8021  0.6907
  334MOL   N11047396   7.979   1.910   7.031  0.1802 -0.8258 -0.5142
  334MOL   H11147397   8.296   2.068   7.164  1.0639  0.3762 -0.4266
  334MOL   H11247398   8.242   2.199   7.259  0.5046  0.7227  0.1549
  334MOL   H11347399   8.012   2.121   7.264  0.9756 -0.2921  0.8869
  334MOL   C11447400   8.117   1.973   7.346 -0.0810  0.0435 -0.8134
  334MOL   C11547401   8.189   2.038   7.465 -0.3606  0.6111  0.2109
  334MOL   C11647402   8.132   2.162   7.508  0.0250  0.0962 -0.9431
  334MOL   N11747403   8.077   2.257   7.544 -0.1432 -0.3826 -0.5877
  334MOL   H11847404   8.023   1.919   7.361 -0.7355  1.5118  0.5567
  334MOL   H11947405   8.186   1.896   7.312  0.4817 -0.3956  1.2498
  334MOL   H12047406   8.290   2.068   7.438  0.0428 -0.0871  0.9219
  334MOL   C12147407   8.226   1.940   7.577 -0.2980 -0.3522 -0.0601
  334MOL   C12247408   8.261   2.005   7.709  0.1885 -0.1172  0.1350
  334MOL   C12347409   8.294   1.904   7.804  0.2349  0.5413  0.9175
  334MOL   N12447410   0.011   1.823   7.883  0.0680  0.0135  0.1398
  334MOL   H12547411   8.144   1.872   7.599 -0.9796 -0.7836 -3.6968
  334MOL   H12647412   8.308   1.887   7.529 -0.6358  1.1643 -2.3525
  334MOL   H12747413   8.174   2.058   7.748 -0.7752  0.0262 -2.1170
  334MOL   C12847414   0.074   2.097   7.697  0.1712  0.4087  0.4433
  334MOL   C12947415   0.143   2.127   7.835  0.2493  0.2274 -0.2354
  334MOL   C13047416   0.269   2.205   7.810 -0.8900 -0.0522  1.2088
  334MOL   N13147417   0.367   2.259   7.790 -0.0121 -0.3331 -0.6425
  334MOL   H13247418   0.154   2.066   7.630  0.6146 -0.9458  1.5772
  334MOL   H13347419   0.043   2.189   7.647  1.2324  1.0383  0.9273
  334MOL   H13447420   0.168   2.032   7.882 -0.0878 -0.8139 -2.1477
  334MOL   C13547421   0.051   2.204   7.932 -0.2506  0.0950 -0.7470
  334MOL   C13647422   0.114   2.222   8.076  0.1164  0.0396  0.3963
  334MOL   C13747423   0.025   2.281   8.183  0.2181  0.1572 -0.1661
  334MOL   N13847424   8.264   2.320   8.261  0.5410  0.8219  0.2865
  334MOL   H13947425   0.056   2.307   7.896 -0.3657  0.4110  0.1243
  334MOL   H14047426   8.263   2.161   7.940 -0.5640  1.0531  0.7083
  334MOL   H14147427   0.199   2.291   8.068 -0.0375  0.3165  1.1374
  334MOL   H14247428   0.153   2.127   8.113 -1.6047 -1.6160 -1.9335
  335MOL     C147429   6.501   0.115   2.053  0.1615  0.2544  0.0569
  335MOL     C247430   6.588   0.204   2.139 -0.0270 -0.0368  0.5060
  335MOL     C347431   6.695   0.273   2.065 -0.7868  0.2845 -0.2929
  335MOL     N447432   6.786   0.332   2.018  0.0259  0.7414 -0.3961
  335MOL     H547433   6.422   0.173   2.005  0.6742  0.1818 -0.8950
  335MOL     H647434   6.458   0.037   2.116  1.8402 -1.1664 -0.5008
  335MOL     H747435   6.638   0.136   2.208 -2.3648 -0.8323  1.4810
  335MOL     H847436   6.572   0.068   1.985 -1.3275 -0.5594 -0.9623
  335MOL     C947437   6.517   0.296   2.239  0.6679  0.0092 -0.8905
  335MOL    C1047438   6.431   0.213   2.340  0.5045 -0.6934  0.2051
  335MOL    C1147439   6.502   0.100   2.411 -0.1525 -0.3184 -0.0093
  335MOL    N1247440   6.556   0.017   2.465 -0.7577 -0.0272 -0.2665
  335MOL    H1347441   6.593   0.347   2.300 -0.2099  0.2738  0.0002
  335MOL    H1447442   6.452   0.362   2.182  0.5194  0.9855  0.3716
  335MOL    H1547443   6.340   0.168   2.300  0.2625  0.0703 -0.1162
  335MOL    C1647444   6.367   0.312   2.443  0.4059  0.3949  0.1624
  335MOL    C1747445   6.251   0.267   2.534  0.3389 -0.4784  0.3306
  335MOL    C1847446   6.254   0.121   2.569  0.8687  0.1631 -0.5206
  335MOL    N1947447   6.262   0.013   2.594  0.1973  0.4897 -0.0907
  335MOL    H2047448   6.455   0.337   2.501 -0.0014 -1.5275  1.6455
  335MOL    H2147449   6.332   0.404   2.395  0.6561 -0.1036 -1.0030
  335MOL    H2247450   6.157   0.277   2.480 -0.2019  0.7319  1.4574
  335MOL    C2347451   6.237   0.367   2.656 -0.5798  0.4978 -0.1704
  335MOL    C2447452   6.111   0.346   2.746  0.1180 -0.1177 -0.1707
  335MOL    C2547453   6.129   0.404   2.881 -0.2933  0.3079 -0.5023
  335MOL    N2647454   6.145   0.450   2.985  0.3110 -0.7848  0.4064
  335MOL    H2747455   6.323   0.338   2.716 -0.6908  0.7478  0.1079
  335MOL    H2847456   6.244   0.467   2.613  3.1996  0.1766 -0.4584
  335MOL    H2947457   6.102   0.240   2.770  0.7835 -0.6140 -2.0616
  335MOL    C3047458   5.977   0.397   2.669  0.6703  0.0041 -0.3844
  335MOL    C3147459   5.857   0.432   2.760 -0.1196  0.3874  0.3021
  335MOL    C3247460   5.749   0.473   2.674 -0.4210 -0.4996  0.0654
  335MOL    N3347461   5.659   0.509   2.602  0.3086 -0.6010 -0.4028
  335MOL    H3447462   6.013   0.490   2.624 -1.2981  2.5674  3.1089
  335MOL    H3547463   5.938   0.332   2.590 -2.7753 -0.3526  1.5255
  335MOL    H3647464   5.891   0.520   2.815  4.1250 -1.9200  1.5638
  335MOL    C3747465   5.820   0.317   2.860  0.1179  0.3110  0.4167
  335MOL    C3847466   5.727   0.353   2.973 -0.6586  0.3091  0.4595
  335MOL    C3947467   5.587   0.364   2.927  0.0569 -0.5961  0.2162
  335MOL    N4047468   5.479   0.368   2.886 -0.4292  0.8770 -0.3226
  335MOL    H4147469   5.783   0.231   2.804 -0.1735  0.5659  0.2129
  335MOL    H4247470   5.915   0.291   2.907 -0.5521 -2.7699  0.1966
  335MOL    H4347471   5.769   0.450   2.997  1.3339  0.1161 -1.9965
  335MOL    C4447472   5.739   0.255   3.088  0.1937 -0.4318  0.5981
  335MOL    C4547473   5.661   0.284   3.211 -0.1578  0.1996 -0.2079
  335MOL    C4647474   5.681   0.170   3.300  0.1510  0.4094 -0.2393
  335MOL    N4747475   5.691   0.077   3.371  0.3804 -0.4951  0.6761
  335MOL    H4847476   5.711   0.152   3.065  0.4371 -0.9311  2.4458
  335MOL    H4947477   5.843   0.248   3.118  1.3674  0.4153 -3.0677
  335MOL    H5047478   5.560   0.284   3.172 -0.2377  0.0683 -0.0033
  335MOL    C5147479   5.710   0.418   3.275  0.0025 -0.1026 -0.5662
  335MOL    C5247480   5.652   0.461   3.412 -0.9231  0.1064 -0.3900
  335MOL    C5347481   5.745   0.549   3.476 -0.0619 -0.7466  0.7967
  335MOL    N5447482   5.819   0.627   3.522  0.0178  0.1950  0.2075
  335MOL    H5547483   5.813   0.395   3.302 -0.2779 -2.0887 -1.0945
  335MOL    H5647484   5.714   0.502   3.206 -1.0583  1.4286  1.1655
  335MOL    H5747485   5.631   0.374   3.473  1.2815  1.2738  2.1344
  335MOL    C5847486   5.523   0.546   3.425 -0.2255 -0.4549  0.4267
  335MOL    C5947487   5.401   0.478   3.361  0.5236 -0.4246  0.1393
  335MOL    C6047488   5.372   0.351   3.428 -0.1092  0.8929  0.1397
  335MOL    N6147489   5.344   0.249   3.484 -1.1018 -0.1872  0.0063
  335MOL    H6247490   5.516   0.560   3.533  0.5362 -0.5190  0.4865
  335MOL    H6347491   5.537   0.643   3.378  1.3384 -2.0213 -2.4329
  335MOL    H6447492   5.427   0.451   3.259  1.2765  0.4490  0.0991
  335MOL    C6547493   5.273   0.562   3.353  0.5934 -0.5096 -0.1907
  335MOL    C6647494   5.147   0.513   3.285  0.4460 -0.1011 -0.4399
  335MOL    C6747495   5.030   0.584   3.338  0.9882  0.7121  0.3418
  335MOL    N6847496   4.941   0.639   3.389  0.0541  0.0850  0.0331
  335MOL    H6947497   5.245   0.577   3.458  1.1089  0.0839 -0.1342
  335MOL    H7047498   5.299   0.663   3.319  3.2275 -0.5169  1.6650
  335MOL    H7147499   5.128   0.415   3.328 -1.5598 -0.2381 -1.5801
  335MOL    C7247500   5.152   0.495   3.126 -0.4460 -0.4292  0.0170
  335MOL    C7347501   5.123   0.622   3.049  0.5206  0.1224  0.7727
  335MOL    C7447502   5.222   0.732   3.077  0.4066  0.0223  0.0515
  335MOL    N7547503   5.301   0.818   3.094 -0.2805  0.0662  0.2702
  335MOL    H7647504   5.234   0.437   3.083 -0.2932 -0.2749  0.1010
  335MOL    H7747505   5.070   0.427   3.103 -2.0170  0.8180  1.8413
  335MOL    H7847506   5.030   0.650   3.098  0.0510  1.2652 -0.7137
  335MOL    C7947507   5.082   0.599   2.906  0.2000  0.4252  0.5600
  335MOL    C8047508   5.204   0.572   2.808 -0.3943  0.0190 -0.5188
  335MOL    C8147509   5.180   0.456   2.721  0.0572 -0.5200  0.2290
  335MOL    N8247510   5.152   0.367   2.658  0.0633 -0.1200 -0.6905
  335MOL    H8347511   5.003   0.525   2.893 -0.0081  0.8128 -0.3871
  335MOL    H8447512   5.034   0.693   2.880 -0.4837 -0.4790 -1.5198
  335MOL    H8547513   5.288   0.526   2.860 -0.9670 -1.0355 -0.5110
  335MOL    C8647514   5.253   0.697   2.742  0.0553  0.2440  0.5995
  335MOL    C8747515   5.389   0.668   2.681 -0.2172 -0.1056  0.4667
  335MOL    C8847516   5.361   0.619   2.543  0.4516 -0.4987 -0.5983
  335MOL    N8947517   5.350   0.581   2.436  0.1698 -0.1602 -0.2159
  335MOL    H9047518   5.173   0.730   2.677 -0.5067 -1.7679  0.2366
  335MOL    H9147519   5.263   0.770   2.823  0.0905  1.5116 -0.5357
  335MOL    H9247520   5.449   0.598   2.738  3.6813  2.0445 -0.8431
  335MOL    C9347521   5.474   0.797   2.670  0.0918 -0.3575  0.1444
  335MOL    C9447522   5.516   0.858   2.802  0.0271 -0.4811  0.6778
  335MOL    C9547523   5.566   0.765   2.905 -0.5452 -0.0176  0.5254
  335MOL    N9647524   5.604   0.694   2.986  0.6751 -0.0719  0.2009
  335MOL    H9747525   5.553   0.793   2.595  2.5847  1.5922  2.5739
  335MOL    H9847526   5.428   0.879   2.614  0.7493 -0.4627 -0.5577
  335MOL    H9947527   5.432   0.910   2.849  0.8465  2.9923 -1.5249
  335MOL   C10047528   5.609   0.977   2.766 -0.1284  0.6807  0.5730
  335MOL   C10147529   5.703   1.022   2.880 -0.3068  0.0216 -0.1431
  335MOL   C10247530   5.828   1.062   2.814 -0.1323 -0.1889 -0.1976
  335MOL   N10347531   5.918   1.105   2.760 -1.1044 -0.4765  0.4874
  335MOL   H10447532   5.670   0.932   2.688 -1.0649  0.6374 -0.1451
  335MOL   H10547533   5.548   1.052   2.716 -1.3762 -1.7822 -1.7413
  335MOL   H10647534   5.736   0.928   2.925 -1.0512 -1.8991 -3.4533
  335MOL   C10747535   5.646   1.110   2.991 -0.6033 -0.2399  0.0303
  335MOL   C10847536   5.645   1.257   2.959 -0.4030  0.4575  0.0526
  335MOL   C10947537   5.546   1.297   2.857 -0.7282  0.5890 -0.0681
  335MOL   N11047538   5.470   1.327   2.773 -0.2069  0.2683  0.0315
  335MOL   H11147539   5.552   1.075   3.033 -1.4766  0.6562 -1.1382
  335MOL   H11247540   5.718   1.097   3.072 -0.2080 -2.0578 -0.5731
  335MOL   H11347541   5.743   1.277   2.916 -1.3389  0.7649 -1.9714
  335MOL   C11447542   5.626   1.340   3.085 -0.6374  0.6710  0.5843
  335MOL   C11547543   5.634   1.494   3.063  0.5443 -0.1185 -0.2036
  335MOL   C11647544   5.551   1.553   3.171 -0.3380  0.1315  1.3339
  335MOL   N11747545   5.481   1.598   3.250  0.1057  0.6522  0.1700
  335MOL   H11847546   5.525   1.328   3.123 -0.6428 -0.4867  0.2182
  335MOL   H11947547   5.698   1.301   3.158 -1.4554  1.2874  1.7292
  335MOL   H12047548   5.586   1.521   2.969 -2.2090  2.5713  1.8546
  335MOL   C12147549   5.779   1.547   3.068  0.6743  0.0352  0.4630
  335MOL   C12247550   5.797   1.701   3.074 -0.3104  0.0537 -0.4138
  335MOL   C12347551   5.946   1.727   3.071 -0.1044  0.5012 -0.2919
  335MOL   N12447552   6.060   1.747   3.066 -0.0652  0.6554 -0.5379
  335MOL   H12547553   5.827   1.509   3.159  1.2691 -0.6581 -0.1309
  335MOL   H12647554   5.835   1.496   2.990 -0.4660 -1.3122  0.5127
  335MOL   H12747555   5.758   1.726   3.173 -1.4199 -4.9126  0.5136
  335MOL   C12847556   5.710   1.784   2.971 -0.2223  1.0650  0.7566
  335MOL   C12947557   5.731   1.936   2.976 -0.0891  0.0360 -0.4760
  335MOL   C13047558   5.867   1.977   2.935  1.0413  0.4487 -0.0640
  335MOL   N13147559   5.975   2.002   2.898  0.4103 -0.3380 -0.0516
  335MOL   H13247560   5.741   1.741   2.876  0.1190 -0.6952  1.6410
  335MOL   H13347561   5.605   1.760   2.988  0.1224  0.7885  2.6250
  335MOL   H13447562   5.721   1.984   3.073 -0.5977  0.9520 -0.9695
  335MOL   C13547563   5.629   2.010   2.876 -0.6508  0.0270  0.2130
  335MOL   C13647564   5.604   1.941   2.733  0.0715  0.2811  0.6812
  335MOL   C13747565   5.504   2.023   2.654 -1.1405  1.0561  0.6813
  335MOL   N13847566   5.428   2.089   2.598  0.5559  0.2577  0.0480
  335MOL   H13947567   5.533   2.010   2.927 -0.5163 -2.5063  0.4970
  335MOL   H14047568   5.653   2.113   2.848  1.2880  0.2320  2.4207
  335MOL   H14147569   5.564   1.842   2.756 -1.1801  0.8098  0.8255
  335MOL   H14247570   5.698   1.937   2.678 -0.0363  1.4020  0.3937
  336MOL     C147571   2.322   8.160   1.542 -0.8776  0.3869  0.6737
  336MOL     C247572   2.221   8.150   1.425 -0.1160  0.4284 -0.3090
  336MOL     C347573   2.210   8.010   1.376 -0.1564  0.2833 -0.0956
  336MOL     N447574   2.199   7.903   1.337  0.3688 -0.1038  0.0154
  336MOL     H547575   2.344   8.262   1.571 -0.2979 -0.0722  1.8835
  336MOL     H647576   2.420   8.119   1.517 -1.8651 -0.0879 -2.7295
  336MOL     H747577   2.259   8.206   1.339  0.7175 -0.6914 -0.6728
  336MOL     H847578   2.288   8.117   1.636  1.8271 -0.0389  1.5057
  336MOL     C947579   2.084   8.203   1.477 -0.8830 -0.0782 -0.4879
  336MOL    C1047580   1.962   8.222   1.382 -0.0594 -0.7104 -0.2702
  336MOL    C1147581   1.967   8.134   1.267 -0.6367  0.0371  0.8522
  336MOL    N1247582   1.962   8.070   1.173  0.6154  0.0662  0.2732
  336MOL    H1347583   2.061   8.126   1.550  2.7997 -2.8859 -2.1254
  336MOL    H1447584   2.096   8.291   1.541 -1.0872  0.8077 -1.6523
  336MOL    H1547585   1.969   0.007   1.335 -0.8475  0.4733  1.9807
  336MOL    C1647586   1.832   8.216   1.459 -1.0915 -0.5168 -0.1723
  336MOL    C1747587   1.697   8.262   1.399  0.4145  0.0168 -0.2178
  336MOL    C1847588   1.669   8.202   1.270  0.5712  0.6356 -0.2111
  336MOL    N1947589   1.640   8.152   1.169  0.1764 -0.6215  0.5067
  336MOL    H2047590   1.830   8.112   1.490  1.2103 -0.5601 -0.0472
  336MOL    H2147591   1.850   8.279   1.546  1.0260  0.0849 -1.0075
  336MOL    H2247592   1.701   0.054   1.371  0.5389  0.0395 -0.1188
  336MOL    C2347593   1.581   8.246   1.508  0.0598  0.2245  0.4407
  336MOL    C2447594   1.441   8.300   1.472  0.3805  0.9475  0.6297
  336MOL    C2547595   1.360   8.275   1.592  0.1733 -0.5881  0.1184
  336MOL    N2647596   1.289   8.258   1.688 -0.3365 -0.0928  0.0371
  336MOL    H2747597   1.560   8.146   1.544 -0.9326  0.4282  0.4211
  336MOL    H2847598   1.606   8.301   1.599  2.2349 -1.0948  0.6922
  336MOL    H2947599   1.406   8.235   1.391  0.6930  1.8588 -0.2513
  336MOL    C3047600   1.439   0.136   1.431 -0.1084 -0.7729  0.3172
  336MOL    C3147601   1.301   0.211   1.437  0.0552 -0.1308 -1.1791
  336MOL    C3247602   1.318   0.356   1.414 -0.9229 -0.1147 -0.0547
  336MOL    N3347603   1.330   0.468   1.399 -0.2356 -0.0908  0.4535
  336MOL    H3447604   1.511   0.176   1.503  0.5405  0.1089 -0.8195
  336MOL    H3547605   1.480   0.142   1.331  0.6977 -0.1524  0.6771
  336MOL    H3647606   1.260   0.199   1.537  1.1668 -1.4816 -0.8778
  336MOL    C3747607   1.197   0.157   1.332 -0.7028  0.6672 -0.4607
  336MOL    C3847608   1.053   0.217   1.349  0.2232  0.5799 -0.1598
  336MOL    C3947609   1.005   0.297   1.229 -0.0481  0.1414  0.3276
  336MOL    N4047610   0.972   0.357   1.138  0.4357 -0.0885 -0.1305
  336MOL    H4147611   1.234   0.191   1.236  0.0380  2.0432  0.2987
  336MOL    H4247612   1.200   0.048   1.324  0.3043  0.7926 -2.0677
  336MOL    H4347613   1.043   0.286   1.433 -0.7713  0.0856  0.1308
  336MOL    C4447614   0.951   0.102   1.371 -0.2408 -0.1805  0.1104
  336MOL    C4547615   0.995   0.020   1.492 -0.2939  0.5883 -0.1847
  336MOL    C4647616   0.994   0.094   1.616 -0.5465  0.0438  0.0932
  336MOL    N4747617   1.002   0.151   1.719  0.1461  0.0457  0.1592
  336MOL    H4847618   0.849   0.134   1.389  0.0968 -0.3720  2.4068
  336MOL    H4947619   0.931   0.044   1.280  0.0734 -0.6127  0.3153
  336MOL    H5047620   1.096   8.293   1.489 -0.2954  0.3916  1.5215
  336MOL    C5147621   0.914   8.194   1.492 -0.4377  0.8164 -0.4568
  336MOL    C5247622   0.969   8.089   1.596  0.0262  0.7348 -0.2661
  336MOL    C5347623   1.096   8.037   1.543  0.1739 -0.0685  0.4822
  336MOL    N5447624   1.196   8.014   1.497 -0.1432 -0.3497  0.3175
  336MOL    H5547625   0.810   8.227   1.506  0.1187  1.6956  1.9931
  336MOL    H5647626   0.926   8.140   1.399 -0.9183 -2.9549  1.5732
  336MOL    H5747627   0.888   8.017   1.582 -0.1694  1.0172 -0.5956
  336MOL    C5847628   0.973   8.123   1.742  0.4566  0.5282  0.3215
  336MOL    C5947629   0.988   8.004   1.833  0.8800  0.2108  0.3359
  336MOL    C6047630   0.912   7.890   1.784  0.3570  0.0813 -0.1799
  336MOL    N6147631   0.846   7.804   1.744  0.5811  0.3548  0.3999
  336MOL    H6247632   1.051   8.197   1.759 -0.1971  1.0159  1.2540
  336MOL    H6347633   0.879   8.170   1.771 -0.0263  0.1052 -0.5516
  336MOL    H6447634   0.938   8.019   1.929 -1.0322  0.1496 -0.6249
  336MOL    C6547635   1.131   7.976   1.867  0.3477 -0.0189 -0.1357
  336MOL    C6647636   1.150   7.890   1.995 -0.3939 -0.4567  0.1790
  336MOL    C6747637   1.110   7.748   1.977 -0.0864 -0.7363  0.8587
  336MOL    N6847638   1.075   7.639   1.965  0.4702 -0.4133  0.3399
  336MOL    H6947639   1.178   7.925   1.783  0.1720 -0.0734 -0.2029
  336MOL    H7047640   1.191   8.065   1.883  0.9804 -0.4606 -0.0503
  336MOL    H7147641   1.097   7.943   2.074  0.2909  1.4131 -0.6081
  336MOL    C7247642   1.301   7.890   2.029  0.4508  0.0703 -0.7910
  336MOL    C7347643   1.342   7.782   2.137  0.0111 -0.3046  0.6056
  336MOL    C7447644   1.491   7.783   2.158  0.5955 -0.1501  0.3650
  336MOL    N7547645   1.603   7.782   2.180  0.1750 -0.2320  0.0224
  336MOL    H7647646   1.366   7.863   1.945  0.7173  0.1280 -0.6037
  336MOL    H7747647   1.328   7.991   2.060  1.4530 -0.4894  0.1870
  336MOL    H7847648   1.340   7.682   2.093  1.5192  1.2103 -3.1018
  336MOL    C7947649   1.263   7.779   2.265 -0.2117 -0.0918 -0.0423
  336MOL    C8047650   1.283   7.907   2.343  0.0002 -0.4212 -0.8448
  336MOL    C8147651   1.214   8.023   2.290 -0.1171 -0.5985 -0.1762
  336MOL    N8247652   1.158   8.118   2.251 -0.0202 -0.4125 -0.9511
  336MOL    H8347653   1.157   7.762   2.247 -0.0889 -2.6830  1.5226
  336MOL    H8447654   1.295   7.695   2.326  0.9906  0.7908  0.5685
  336MOL    H8547655   1.390   7.927   2.345 -0.4528  2.1052  3.3681
  336MOL    C8647656   1.252   7.879   2.492 -0.1137  0.5356  0.1865
  336MOL    C8747657   1.100   7.858   2.524  0.0228  0.6408 -0.2647
  336MOL    C8847658   1.051   7.734   2.473  0.8801 -0.6465  0.0597
  336MOL    N8947659   1.014   7.630   2.441  0.3605  0.9892  0.4290
  336MOL    H9047660   1.317   7.800   2.528 -0.1406  0.7908  0.8124
  336MOL    H9147661   1.285   7.972   2.539  1.1090 -0.0792  0.5669
  336MOL    H9247662   1.046   7.949   2.495 -0.2933  0.3393 -0.6234
  336MOL    C9347663   1.097   7.839   2.684 -0.3511 -0.5832 -0.0224
  336MOL    C9447664   0.963   7.821   2.752  0.2395 -0.2778 -0.3603
  336MOL    C9547665   0.995   7.794   2.894  1.0220 -0.6841 -0.5278
  336MOL    N9647666   1.020   7.777   3.007 -0.0929  0.3552  0.5876
  336MOL    H9747667   1.165   7.761   2.719 -2.1051 -1.6329  1.1209
  336MOL    H9847668   1.132   7.929   2.735 -0.0747 -1.0715  0.6477
  336MOL    H9947669   0.924   7.730   2.708 -4.0151  1.7499 -1.0497
  336MOL   C10047670   0.862   7.936   2.724  0.1218  0.4289  0.6791
  336MOL   C10147671   0.747   7.953   2.813  0.3453 -0.2491 -0.1664
  336MOL   C10247672   0.685   8.085   2.773  0.2666  0.0453  0.2184
  336MOL   N10347673   0.638   8.186   2.749 -0.0994 -0.0527  0.1936
  336MOL   H10447674   0.915   8.030   2.740  0.0924  0.4587  0.6051
  336MOL   H10547675   0.826   7.943   2.621 -0.4456  0.9699  0.9085
  336MOL   H10647676   0.783   7.973   2.914  1.0805 -0.3447 -0.4047
  336MOL   C10747677   0.651   7.833   2.820 -0.0670  0.3075 -0.7974
  336MOL   C10847678   0.535   7.818   2.714 -0.0220 -0.0271 -0.8297
  336MOL   C10947679   0.602   7.804   2.584  0.0794 -0.5983 -0.2435
  336MOL   N11047680   0.650   7.786   2.485  0.9611  0.5670 -0.2510
  336MOL   H11147681   0.715   7.745   2.812 -0.6777 -0.3747  1.4975
  336MOL   H11247682   0.602   7.828   2.917  1.7637  0.5525  0.1629
  336MOL   H11347683   0.483   7.914   2.705 -0.6361 -0.4451 -1.7580
  336MOL   C11447684   0.447   7.696   2.739  0.2386  0.2685  0.0768
  336MOL   C11547685   0.305   7.687   2.676  1.5351 -0.0190 -0.0438
  336MOL   C11647686   0.279   7.786   2.569  0.6612  0.6205 -0.1247
  336MOL   N11747687   0.260   7.868   2.484  0.0707 -0.2310  0.1901
  336MOL   H11847688   0.498   7.601   2.729 -1.2551 -0.4135 -1.3268
  336MOL   H11947689   0.434   7.700   2.847 -1.1036  1.4138 -0.1025
  336MOL   H12047690   0.229   7.710   2.750 -1.3035 -2.5035 -2.0316
  336MOL   C12147691   0.272   7.540   2.630  0.1025 -0.4721 -0.4878
  336MOL   C12247692   0.329   7.495   2.493  0.0340  0.2893 -0.3931
  336MOL   C12347693   0.456   7.435   2.505 -0.7099  0.1010 -0.2327
  336MOL   N12447694   0.555   7.382   2.521  0.0448  0.3643 -0.6177
  336MOL   H12547695   0.302   7.473   2.711 -0.6715  0.7386  0.8232
  336MOL   H12647696   0.163   7.539   2.632  0.1034 -1.3813 -0.3150
  336MOL   H12747697   0.353   7.585   2.437  1.5222 -0.2660 -0.6772
  336MOL   C12847698   0.225   7.409   2.421 -0.8705  0.7661 -0.2044
  336MOL   C12947699   0.205   7.268   2.475  0.0889 -0.3330 -0.0818
  336MOL   C13047700   0.144   7.273   2.612 -0.2804 -0.1873  0.5688
  336MOL   N13147701   0.106   7.279   2.720 -0.1287 -0.2892  0.3656
  336MOL   H13247702   0.124   7.445   2.405 -1.0868  0.7964  1.1370
  336MOL   H13347703   0.258   7.403   2.317 -1.1094  1.6256 -0.3371
  336MOL   H13447704   0.298   7.218   2.501 -0.0185 -0.1423  0.6812
  336MOL   C13547705   0.131   7.166   2.385 -0.3131  0.2759  0.3997
  336MOL   C13647706   0.098   7.036   2.459  0.0258  0.0963 -0.6215
  336MOL   C13747707   8.291   6.977   2.404  0.3005 -0.0548  0.8114
  336MOL   N13847708   8.192   6.929   2.361 -0.3024 -0.2467  0.2288
  336MOL   H13947709   0.038   7.213   2.356 -0.5558 -0.8847 -0.7256
  336MOL   H14047710   0.184   7.145   2.292  0.0766  1.2523  0.3901
  336MOL   H14147711   0.060   7.067   2.556 -0.2508 -1.4857 -0.2140
  336MOL   H14247712   0.173   6.962   2.485 -0.1354 -0.6565 -2.2532
  337MOL     C147713   5.982   5.665   1.521 -0.5513 -0.0937  0.3919
  337MOL     C247714   5.891   5.714   1.636 -1.1069  0.6292 -0.3413
  337MOL     C347715   5.769   5.633   1.651 -0.3709  0.4660  0.2925
  337MOL     N447716   5.675   5.565   1.658 -0.2219 -0.4385  0.1808
  337MOL     H547717   6.048   5.745   1.486 -0.2325  0.0370  1.2750
  337MOL     H647718   5.930   5.626   1.434  1.1111 -0.9364 -0.2448
  337MOL     H747719   5.843   5.809   1.612 -2.2499  0.3189  0.6990
  337MOL     H847720   6.059   5.595   1.555 -0.0678  1.4080  2.5535
  337MOL     C947721   5.970   5.723   1.765 -0.4926 -0.6469 -0.0650
  337MOL    C1047722   6.087   5.820   1.767  0.2121  0.0522 -0.4048
  337MOL    C1147723   6.051   5.955   1.723 -0.0414 -0.0785 -0.2933
  337MOL    N1247724   6.026   6.061   1.687  0.5265 -0.3333  0.3246
  337MOL    H1347725   5.911   5.760   1.849 -0.7168 -0.1307 -0.4459
  337MOL    H1447726   6.006   5.624   1.793 -2.5241 -1.0868  1.0988
  337MOL    H1547727   6.165   5.790   1.696  0.5728 -1.7999  0.7602
  337MOL    C1647728   6.173   5.820   1.894  0.5121 -0.0761  0.0457
  337MOL    C1747729   6.320   5.854   1.864 -0.1221  0.4429 -0.3175
  337MOL    C1847730   6.329   5.998   1.835 -0.4308  0.1533  0.1534
  337MOL    N1947731   6.338   6.112   1.813 -0.1909 -0.1476 -0.2406
  337MOL    H2047732   6.134   5.877   1.978  0.3205  0.2586 -0.2707
  337MOL    H2147733   6.157   5.719   1.933 -1.5225  1.0580  2.2411
  337MOL    H2247734   6.350   5.793   1.779 -3.3659 -2.0124  0.1883
  337MOL    C2347735   6.421   5.812   1.978 -0.2373 -0.1106  0.4280
  337MOL    C2447736   6.447   5.663   1.998  0.2126  0.2103  0.0100
  337MOL    C2547737   6.486   5.599   1.867 -1.0474  0.0723 -0.3194
  337MOL    N2647738   6.514   5.552   1.765  0.3931  0.5420  0.0010
  337MOL    H2747739   6.514   5.865   1.959  0.4288 -1.5556 -0.4264
  337MOL    H2847740   6.394   5.859   2.072 -0.9350  1.1772 -0.3968
  337MOL    H2947741   6.347   5.619   2.005  1.4133 -2.5355  0.6687
  337MOL    C3047742   6.522   5.638   2.131  0.1922 -0.5473  0.4624
  337MOL    C3147743   6.553   5.488   2.163 -0.6291  0.6396 -0.1893
  337MOL    C3247744   6.646   5.494   2.273 -0.0895  0.8290  0.1836
  337MOL    N3347745   6.723   5.491   2.360 -0.2212  0.2923  0.5985
  337MOL    H3447746   6.617   5.692   2.133  0.2081 -0.6052  1.8587
  337MOL    H3547747   6.469   5.694   2.209 -3.5853 -1.6527 -1.2194
  337MOL    H3647748   6.595   5.438   2.076  3.2853 -0.9330  2.4320
  337MOL    C3747749   6.426   5.413   2.202  0.0933  0.7231 -0.0133
  337MOL    C3847750   6.419   5.268   2.146  0.4449  0.2011 -0.4020
  337MOL    C3947751   6.427   5.275   2.000  1.2901  0.4482 -0.2938
  337MOL    N4047752   6.432   5.279   1.881 -0.3407  0.0432 -1.0343
  337MOL    H4147753   6.421   5.411   2.311  3.4168 -0.2247  0.1724
  337MOL    H4247754   6.335   5.464   2.168  0.0696  0.9467  0.3878
  337MOL    H4347755   6.324   5.225   2.178  1.0264  1.8937  3.9467
  337MOL    C4447756   6.522   5.165   2.202 -0.8002  0.2960 -0.2046
  337MOL    C4547757   6.495   5.117   2.344 -0.2157 -0.0343  0.0903
  337MOL    C4647758   6.374   5.033   2.356 -1.2114 -0.9172  0.2133
  337MOL    N4747759   6.280   4.969   2.358 -0.4603  0.4619 -0.6167
  337MOL    H4847760   6.537   5.086   2.129  2.4717  1.7380 -1.1800
  337MOL    H4947761   6.616   5.219   2.207  1.6929 -3.6028 -2.5047
  337MOL    H5047762   6.489   5.204   2.408  0.2900 -0.4231  0.6662
  337MOL    C5147763   6.624   5.052   2.402 -0.1066 -0.2939 -0.2767
  337MOL    C5247764   6.620   5.018   2.550  0.3118  1.1216 -0.8895
  337MOL    C5347765   6.557   4.887   2.561  0.1801  0.2669 -0.3522
  337MOL    N5447766   6.511   4.778   2.561 -0.2381  0.2064  0.0087
  337MOL    H5547767   6.643   4.961   2.344  1.8750 -0.3847  0.4783
  337MOL    H5647768   6.706   5.119   2.380  0.3864 -0.7105  0.2720
  337MOL    H5747769   6.550   5.083   2.604 -1.9954  0.0688 -2.5102
  337MOL    C5847770   6.759   5.014   2.620 -0.4688 -0.2253  0.2529
  337MOL    C5947771   6.765   4.984   2.778  0.4147  0.5864  0.0695
  337MOL    C6047772   6.724   4.841   2.823 -0.0955 -0.3451  0.6188
  337MOL    N6147773   6.688   4.737   2.853  0.3123 -0.0258  0.2027
  337MOL    H6247774   6.810   4.927   2.580  0.3277  0.7781 -0.9727
  337MOL    H6347775   6.812   5.105   2.589 -1.0580  1.0122  2.7536
  337MOL    H6447776   6.696   5.044   2.837 -0.5007 -1.5208  1.1750
  337MOL    C6547777   6.903   5.019   2.834 -0.1808 -0.8719 -0.2647
  337MOL    C6647778   6.927   4.953   2.971  0.8373 -0.0228  0.7402
  337MOL    C6747779   7.071   4.978   3.010  0.0799  0.3502 -0.1552
  337MOL    N6847780   7.180   5.004   3.045  0.4942 -0.8773  0.2346
  337MOL    H6947781   6.980   4.975   2.771  2.6088  0.6747  1.9349
  337MOL    H7047782   6.919   5.127   2.832 -1.4126 -0.6972 -0.9490
  337MOL    H7147783   6.931   4.847   2.949 -0.4183 -0.5878  3.1200
  337MOL    C7247784   6.837   5.014   3.078  0.2398 -0.1065 -0.0263
  337MOL    C7347785   6.834   4.953   3.210  0.4201  0.0379 -0.7632
  337MOL    C7447786   6.771   5.055   3.302  0.3089  0.0469  0.5967
  337MOL    N7547787   6.723   5.134   3.373 -0.4038 -0.0486  0.2195
  337MOL    H7647788   6.881   5.113   3.084 -0.9876  0.4767 -0.4950
  337MOL    H7747789   6.731   5.022   3.052 -0.2746 -2.5535  1.1515
  337MOL    H7847790   6.938   4.941   3.240  0.5187  0.3666 -0.9743
  337MOL    C7947791   6.760   4.814   3.219  0.0423 -0.3353  0.0371
  337MOL    C8047792   6.828   4.687   3.161 -0.3182 -0.0678  0.9077
  337MOL    C8147793   6.981   4.689   3.164  0.0644 -0.5711 -0.2564
  337MOL    N8247794   7.096   4.692   3.165 -0.0517 -0.0599 -0.4523
  337MOL    H8347795   6.766   4.787   3.324  0.5803  0.4890  0.2189
  337MOL    H8447796   6.657   4.816   3.182 -0.6860 -1.6869  1.9057
  337MOL    H8547797   6.813   4.690   3.053 -0.4510 -0.0544  0.9272
  337MOL    C8647798   6.785   4.554   3.226 -0.4199 -0.7848 -0.2710
  337MOL    C8747799   6.809   4.422   3.148 -0.3833 -1.0696  1.2992
  337MOL    C8847800   6.953   4.396   3.138 -0.1124  0.5486 -0.6519
  337MOL    N8947801   7.067   4.376   3.131  0.3829 -0.4416 -0.0306
  337MOL    H9047802   6.833   4.541   3.324 -0.2174 -0.9704 -0.3929
  337MOL    H9147803   6.677   4.563   3.231 -0.2996  0.9305 -0.5396
  337MOL    H9247804   6.778   4.449   3.047  0.6799 -0.7617  1.0495
  337MOL    C9347805   6.734   4.300   3.197  0.7587 -0.4440 -0.5923
  337MOL    C9447806   6.584   4.299   3.184  0.8267 -0.0197 -0.1526
  337MOL    C9547807   6.540   4.299   3.037  0.3052  0.5600 -0.0703
  337MOL    N9647808   6.508   4.303   2.928 -0.5041 -0.1452 -0.0249
  337MOL    H9747809   6.769   4.206   3.154 -0.1784 -0.3445 -1.5830
  337MOL    H9847810   6.756   4.290   3.303  0.7717 -2.0583 -0.7246
  337MOL    H9947811   6.534   4.384   3.230  2.1046 -0.2643  1.7477
  337MOL   C10047812   6.529   4.185   3.262  0.0218 -0.9831 -0.3292
  337MOL   C10147813   6.372   4.189   3.285 -0.0442 -0.0333 -0.0124
  337MOL   C10247814   6.334   4.297   3.377  0.4971  0.3183 -0.7777
  337MOL   N10347815   6.301   4.380   3.450 -0.4043 -0.2156  0.0259
  337MOL   H10447816   6.554   4.091   3.212  0.0980 -1.8957  1.3588
  337MOL   H10547817   6.577   4.173   3.360 -2.4143 -2.7347  0.7003
  337MOL   H10647818   6.351   4.094   3.334  0.8189  0.6679  1.7539
  337MOL   C10747819   6.283   4.194   3.156 -0.0720  0.6926  0.5158
  337MOL   C10847820   6.136   4.177   3.197  0.7814  0.6062 -0.1884
  337MOL   C10947821   6.042   4.214   3.092 -0.2971 -0.7025 -0.1490
  337MOL   N11047822   5.970   4.242   3.008 -0.2770  0.3033  0.1741
  337MOL   H11147823   6.299   4.283   3.096  0.2466  1.1875  1.3295
  337MOL   H11247824   6.311   4.114   3.087  0.0927  0.0990  1.2557
  337MOL   H11347825   6.112   4.236   3.285 -2.3311  1.5731 -1.5969
  337MOL   C11447826   6.098   4.038   3.254 -0.7154 -0.2327 -0.1000
  337MOL   C11547827   6.056   3.924   3.166  0.0132 -0.0559  0.0937
  337MOL   C11647828   6.174   3.868   3.102 -0.3831 -0.0220  0.4702
  337MOL   N11747829   6.267   3.819   3.056 -0.3861  0.3252 -0.4879
  337MOL   H11847830   6.175   3.996   3.320 -1.1542 -1.1550 -0.1734
  337MOL   H11947831   6.011   4.072   3.310  1.0750  3.0552  0.8745
  337MOL   H12047832   5.988   3.956   3.086 -1.9337  0.7186  1.9886
  337MOL   C12147833   5.982   3.807   3.234 -0.1617  0.5210 -0.5783
  337MOL   C12247834   5.850   3.853   3.304 -0.0946  0.6491  0.6399
  337MOL   C12347835   5.742   3.769   3.261 -0.2301  0.7256  0.1957
  337MOL   N12447836   5.647   3.703   3.227 -0.6461  0.0176 -0.3170
  337MOL   H12547837   5.965   3.739   3.150 -0.9620  0.6467 -0.5189
  337MOL   H12647838   6.042   3.756   3.309 -2.0525 -1.1786 -0.1702
  337MOL   H12747839   5.822   3.949   3.260 -0.9862  0.7972  1.4936
  337MOL   C12847840   5.854   3.863   3.460  0.7892  0.3314  0.0864
  337MOL   C12947841   5.735   3.927   3.526  0.2918 -0.1954  0.0174
  337MOL   C13047842   5.742   3.905   3.669 -0.1393 -0.1433 -0.2876
  337MOL   N13147843   5.742   3.892   3.786  0.0757 -0.2579  0.4319
  337MOL   H13247844   5.864   3.761   3.494 -0.8048  0.3291  0.5926
  337MOL   H13347845   5.947   3.915   3.484  0.7943  0.2100  0.3270
  337MOL   H13447846   5.641   3.885   3.490 -1.1107  3.5233 -0.9998
  337MOL   C13547847   5.724   4.078   3.501 -0.2027  0.5872  0.0047
  337MOL   C13647848   5.815   4.164   3.587  0.1205 -0.3317  0.2571
  337MOL   C13747849   5.957   4.153   3.558  0.1903 -0.2226 -0.3384
  337MOL   N13847850   6.073   4.141   3.541  0.2677  0.0096  0.2031
  337MOL   H13947851   5.720   4.106   3.396  2.2425  0.7185 -0.0790
  337MOL   H14047852   5.627   4.098   3.545  0.0411  2.3510 -0.2191
  337MOL   H14147853   5.819   4.135   3.692  1.0297 -0.0325  0.3049
  337MOL   H14247854   5.772   4.262   3.566  0.7339 -0.1468 -0.1458
  338MOL     C147855   2.559   2.499   3.432  0.1433  0.3985 -0.2108
  338MOL     C247856   2.562   2.634   3.505  0.8231  0.3983 -0.0157
  338MOL     C347857   2.458   2.634   3.608  0.0018  0.4191  0.5713
  338MOL     N447858   2.369   2.641   3.685  0.5945 -0.6704  0.4965
  338MOL     H547859   2.631   2.426   3.468 -0.9517 -1.5100 -1.7759
  338MOL     H647860   2.567   2.517   3.325  0.5177  1.0318 -0.0821
  338MOL     H747861   2.514   2.694   3.428  0.8647  1.3548  0.6953
  338MOL     H847862   2.460   2.454   3.431 -0.9195  2.6818 -0.4884
  338MOL     C947863   2.701   2.682   3.539 -0.7734  0.0299 -0.0298
  338MOL    C1047864   2.719   2.785   3.652 -0.2761  0.0245  0.7399
  338MOL    C1147865   2.608   2.884   3.650  0.4533  0.2674 -0.1937
  338MOL    N1247866   2.521   2.959   3.637 -0.4338  0.1097  0.6690
  338MOL    H1347867   2.781   2.610   3.556 -1.2986  0.0317  2.7883
  338MOL    H1447868   2.735   2.739   3.452 -0.1735  0.2049  0.3182
  338MOL    H1547869   2.814   2.828   3.621  0.5987 -2.3088  0.0361
  338MOL    C1647870   2.736   2.723   3.788  0.6699  0.7040  0.1122
  338MOL    C1747871   2.783   2.822   3.897 -0.4370  0.1325  0.7666
  338MOL    C1847872   2.769   2.754   4.029 -0.2765 -0.4077 -0.7916
  338MOL    N1947873   2.753   2.706   4.133 -0.0957  0.8994 -0.2852
  338MOL    H2047874   2.649   2.668   3.825 -0.5087  2.3253 -0.1795
  338MOL    H2147875   2.813   2.646   3.785  0.3179  0.3839 -1.7368
  338MOL    H2247876   2.708   2.902   3.896 -1.3688 -0.7297 -0.6434
  338MOL    C2347877   2.918   2.893   3.871  0.6588 -0.2070 -0.4202
  338MOL    C2447878   2.972   2.979   3.985 -0.0500  0.2785  0.7346
  338MOL    C2547879   3.030   2.892   4.089  0.3556  0.9139  0.2360
  338MOL    N2647880   3.081   2.823   4.172  0.4505  0.0267  0.0849
  338MOL    H2747881   2.999   2.822   3.852 -0.3302 -1.3332 -0.4267
  338MOL    H2847882   2.922   2.941   3.774 -1.9263 -0.4026 -0.6516
  338MOL    H2947883   2.888   3.041   4.016 -0.3106  0.2903  0.0069
  338MOL    C3047884   3.068   3.086   3.933  0.0977 -0.2535 -0.0498
  338MOL    C3147885   3.013   3.220   3.878  0.4031  0.4806 -0.3649
  338MOL    C3247886   2.901   3.197   3.779 -0.4383  0.3715 -0.1512
  338MOL    N3347887   2.814   3.172   3.703 -0.4738 -0.5345 -0.3505
  338MOL    H3447888   3.140   3.116   4.010  1.1172  1.5642 -1.6474
  338MOL    H3547889   3.133   3.043   3.857 -1.8445 -2.5134 -0.4820
  338MOL    H3647890   3.092   3.272   3.824  1.8696  0.7187  1.9220
  338MOL    C3747891   2.958   3.321   3.987  0.3045  0.2259  0.3451
  338MOL    C3847892   3.049   3.395   4.082 -0.0973  0.0717  0.8802
  338MOL    C3947893   3.139   3.318   4.153 -0.4945  0.8369  0.1683
  338MOL    N4047894   3.211   3.252   4.209  0.6415  0.0070  0.3948
  338MOL    H4147895   2.904   3.391   3.924 -1.4086 -1.1890  0.1984
  338MOL    H4247896   2.886   3.268   4.050  0.0576 -0.5147 -0.5531
  338MOL    H4347897   2.982   3.434   4.159 -1.3343  0.8425 -0.5531
  338MOL    C4447898   3.118   3.523   4.023  0.8006  0.4308  0.1303
  338MOL    C4547899   3.168   3.622   4.127 -0.0788  0.5039  0.2605
  338MOL    C4647900   3.241   3.576   4.249 -0.0260 -0.5231  0.0098
  338MOL    N4747901   3.302   3.549   4.343 -0.2986 -0.6398  0.3073
  338MOL    H4847902   3.199   3.486   3.960 -1.1734  0.4011 -2.4789
  338MOL    H4947903   3.057   3.582   3.955  0.7502 -0.0069 -0.2072
  338MOL    H5047904   3.081   3.665   4.177 -1.6544 -1.5150 -0.6510
  338MOL    C5147905   3.247   3.734   4.058  0.1865 -0.0689 -0.1537
  338MOL    C5247906   3.383   3.700   3.992 -0.0682 -0.4245  0.1004
  338MOL    C5347907   3.434   3.569   4.013  0.3241  0.4741 -0.3846
  338MOL    N5447908   3.474   3.461   4.039  0.5971 -0.4592 -0.6825
  338MOL    H5547909   3.185   3.778   3.981 -1.7639 -1.7044  0.4355
  338MOL    H5647910   3.280   3.810   4.129  1.3156  0.3462 -1.1174
  338MOL    H5747911   3.466   3.751   4.041  0.2395 -1.6737  0.9170
  338MOL    C5847912   3.374   3.734   3.840  0.4940  0.0178  0.2127
  338MOL    C5947913   3.496   3.698   3.745 -0.2388  0.5853 -0.0218
  338MOL    C6047914   3.624   3.750   3.801 -0.2934 -0.7384 -0.1293
  338MOL    N6147915   3.719   3.800   3.839  0.5107 -0.7112 -0.2229
  338MOL    H6247916   3.286   3.694   3.789  0.5265 -0.5939  0.6425
  338MOL    H6347917   3.354   3.841   3.826 -0.4287 -0.0024  1.3157
  338MOL    H6447918   3.477   3.755   3.654 -0.4859  4.2737  2.2138
  338MOL    C6547919   3.502   3.550   3.699  0.5033 -0.0945 -0.1192
  338MOL    C6647920   3.572   3.531   3.551  0.5922 -0.0085 -0.2837
  338MOL    C6747921   3.491   3.592   3.447  0.1871  0.0296 -0.4586
  338MOL    N6847922   3.423   3.631   3.363 -0.1085  0.5311  0.5268
  338MOL    H6947923   3.566   3.503   3.775 -1.9252 -5.6178 -1.2316
  338MOL    H7047924   3.404   3.503   3.704  0.3210  0.4550  1.7594
  338MOL    H7147925   3.592   3.427   3.524  2.7973 -0.2054  1.9311
  338MOL    C7247926   3.711   3.595   3.536 -0.1600 -0.3838 -0.1699
  338MOL    C7347927   3.814   3.541   3.628 -0.0127  0.3720 -0.0107
  338MOL    C7447928   3.814   3.395   3.620  0.0624  0.5092 -0.1202
  338MOL    N7547929   3.814   3.276   3.612 -0.4464  0.2179 -0.0436
  338MOL    H7647930   3.753   3.582   3.436 -1.5270 -1.3863 -0.6329
  338MOL    H7747931   3.710   3.703   3.552  0.3971 -0.3119 -0.5677
  338MOL    H7847932   3.781   3.548   3.732  2.4864  1.7911  0.7130
  338MOL    C7947933   3.948   3.614   3.618 -0.1225 -0.3552 -0.0321
  338MOL    C8047934   4.064   3.578   3.716 -0.2447 -0.6075  0.5970
  338MOL    C8147935   4.023   3.590   3.857 -0.8751 -0.3052 -0.3801
  338MOL    N8247936   3.997   3.591   3.968 -0.1721 -0.4364 -0.1981
  338MOL    H8347937   3.985   3.612   3.516 -0.4429  0.3601 -0.1651
  338MOL    H8447938   3.937   3.722   3.627 -0.2362 -0.3413 -0.3459
  338MOL    H8547939   4.133   3.662   3.703  0.3577 -1.0025  1.2076
  338MOL    C8647940   4.134   3.441   3.680  0.1293 -0.4442  0.0087
  338MOL    C8747941   4.247   3.400   3.778  0.2314 -0.4646  0.4160
  338MOL    C8847942   4.333   3.516   3.795  0.4802 -0.2781 -0.5719
  338MOL    N8947943   4.405   3.603   3.801 -0.3568  0.5299 -0.1648
  338MOL    H9047944   4.059   3.363   3.668 -1.0499  0.3263  2.1412
  338MOL    H9147945   4.182   3.446   3.582 -0.8292 -1.0278 -0.4910
  338MOL    H9247946   4.322   3.342   3.724 -0.0326 -0.3875 -0.0358
  338MOL    C9347947   4.213   3.325   3.911  0.8349 -0.3800  0.0954
  338MOL    C9447948   4.112   3.205   3.915  0.1388 -0.6672 -0.2275
  338MOL    C9547949   3.976   3.251   3.931 -0.3105  0.0445 -0.4434
  338MOL    N9647950   3.869   3.293   3.942  0.2475 -1.0347  0.1226
  338MOL    H9747951   4.305   3.297   3.961  0.6389  0.3286  0.8663
  338MOL    H9847952   4.177   3.397   3.985  2.6389  0.6875 -0.0593
  338MOL    H9947953   4.128   3.151   4.008  0.5606 -0.3042 -0.0881
  338MOL   C10047954   4.132   3.109   3.792 -0.5133  0.3608 -0.5957
  338MOL   C10147955   4.278   3.048   3.777 -0.4891 -0.0264 -0.4241
  338MOL   C10247956   4.339   3.025   3.913 -0.0866 -0.5395 -0.0796
  338MOL   N10347957   4.391   3.008   4.016  0.0007 -0.3224 -0.1361
  338MOL   H10447958   4.060   3.028   3.801 -1.6474  1.2884 -1.1671
  338MOL   H10547959   4.095   3.153   3.699 -1.3689 -3.0065 -1.9472
  338MOL   H10647960   4.346   3.121   3.734 -2.6879  1.5514 -1.3511
  338MOL   C10747961   4.276   2.922   3.689 -0.7218  0.2955 -0.2175
  338MOL   C10847962   4.406   2.837   3.696 -0.0224  0.4271 -0.6259
  338MOL   C10947963   4.382   2.715   3.620  0.9893 -0.1543 -0.5326
  338MOL   N11047964   4.366   2.618   3.551 -0.5316 -0.1138 -0.1006
  338MOL   H11147965   4.199   2.850   3.719 -0.0730 -0.5967 -0.6781
  338MOL   H11247966   4.244   2.952   3.589 -1.5873  1.7182  0.4727
  338MOL   H11347967   4.431   2.804   3.797  1.1864 -0.9014 -1.3471
  338MOL   C11447968   4.531   2.908   3.651  0.3627 -0.2874  0.7689
  338MOL   C11547969   4.665   2.837   3.685 -0.1911 -0.1897 -0.1958
  338MOL   C11647970   4.764   2.868   3.585  0.4355 -0.0438  0.2698
  338MOL   N11747971   4.853   2.885   3.509  0.0227  0.2385 -0.2103
  338MOL   H11847972   4.527   2.898   3.543  1.5995 -2.6499  0.9144
  338MOL   H11947973   4.537   3.015   3.670  0.3229  0.0088 -0.8051
  338MOL   H12047974   4.653   2.730   3.670 -0.6392 -0.3708  1.3105
  338MOL   C12147975   4.701   2.867   3.830 -0.2833 -0.5299 -0.1531
  338MOL   C12247976   4.790   2.759   3.883  0.7212 -0.4284 -0.6094
  338MOL   C12347977   4.906   2.728   3.797 -0.3364 -0.7009 -0.7826
  338MOL   N12447978   4.997   2.707   3.726  0.1623 -0.1475  0.5446
  338MOL   H12547979   4.746   2.965   3.845 -0.7396 -0.0292 -1.9172
  338MOL   H12647980   4.614   2.877   3.895  0.0305 -0.4352  0.2526
  338MOL   H12747981   4.741   2.662   3.896 -0.3903  0.1657 -0.2450
  338MOL   C12847982   4.829   2.781   4.028  0.1347  0.3697 -0.4476
  338MOL   C12947983   4.707   2.817   4.130 -0.8095  0.4912  0.3334
  338MOL   C13047984   4.602   2.719   4.112 -0.6827  0.6300 -0.8899
  338MOL   N13147985   4.519   2.640   4.102  0.0349 -0.5953  0.2734
  338MOL   H13247986   4.883   2.693   4.061  0.2963  1.3833  2.1159
  338MOL   H13347987   4.899   2.864   4.032  0.6003 -0.0444  0.0230
  338MOL   H13447988   4.657   2.909   4.099 -0.7211 -0.1105 -1.6766
  338MOL   C13547989   4.754   2.844   4.282 -0.3427 -0.9962 -0.2123
  338MOL   C13647990   4.642   2.889   4.385  0.8371  0.4589  0.2629
  338MOL   C13747991   4.557   2.778   4.435 -0.3737  0.6253 -0.2437
  338MOL   N13847992   4.486   2.695   4.469  0.5570  0.7053 -0.3426
  338MOL   H13947993   4.800   2.760   4.333 -0.6195 -0.5627  0.7708
  338MOL   H14047994   4.824   2.928   4.278 -1.1774 -0.3069 -0.6522
  338MOL   H14147995   4.570   2.967   4.361  1.6691  1.3636  0.6875
  338MOL   H14247996   4.692   2.933   4.472  2.4279 -1.4423  0.3398
  339MOL     C147997   2.000   1.700   3.912  0.3697  0.5663  0.5051
  339MOL     C247998   1.892   1.808   3.895 -0.6995 -0.6462 -0.8620
  339MOL     C347999   1.955   1.933   3.951  0.8484  0.0459  0.9464
  339MOL     N448000   2.003   2.035   3.986  0.1954 -0.5561  0.3038
  339MOL     H548001   2.014   1.685   4.019 -0.4860  0.7836  0.6502
  339MOL     H648002   2.097   1.719   3.867  0.6863 -1.4013  0.3000
  339MOL     H748003   1.805   1.773   3.951 -0.7163 -1.2025 -1.2304
  339MOL     H848004   1.964   1.608   3.866 -1.1516  2.2458 -1.7787
  339MOL     C948005   1.836   1.827   3.749 -0.4410  0.1624 -0.3918
  339MOL    C1048006   1.697   1.904   3.740  0.2085 -0.1693 -0.0144
  339MOL    C1148007   1.716   2.038   3.801  0.0405 -0.2093  0.1370
  339MOL    N1248008   1.729   2.145   3.844  0.3893  0.0914 -0.0317
  339MOL    H1348009   1.912   1.874   3.687  0.0505  0.6662  0.5724
  339MOL    H1448010   1.824   1.728   3.707 -1.6648  0.2031 -0.1520
  339MOL    H1548011   1.624   1.857   3.806  0.3472 -0.7056 -0.2404
  339MOL    C1648012   1.647   1.912   3.595  0.2571  0.9397  0.6842
  339MOL    C1748013   1.540   1.807   3.552 -0.4790  0.4858 -0.1473
  339MOL    C1848014   1.585   1.667   3.575  0.1354  0.4462 -0.1083
  339MOL    N1948015   1.616   1.559   3.596 -0.7311  0.4882  0.5687
  339MOL    H2048016   1.608   2.013   3.579  0.2378  0.8979  0.4670
  339MOL    H2148017   1.726   1.891   3.523  0.7080  0.5404  1.2970
  339MOL    H2248018   1.537   1.802   3.443  0.6807 -0.8119 -0.1356
  339MOL    C2348019   1.405   1.832   3.621  0.6016  0.2922 -0.8435
  339MOL    C2448020   1.299   1.893   3.537  0.3138  0.2457 -0.1064
  339MOL    C2548021   1.275   1.813   3.414  0.0019  0.7662  1.0977
  339MOL    N2648022   1.245   1.743   3.321 -0.1663 -0.0123 -0.6730
  339MOL    H2748023   1.366   1.742   3.669 -0.0158  0.3356 -1.2566
  339MOL    H2848024   1.419   1.899   3.705 -1.6831  0.9656 -0.9675
  339MOL    H2948025   1.342   1.989   3.508 -1.9043  2.2620  2.9964
  339MOL    C3048026   1.167   1.923   3.617 -0.0345 -0.6855  0.6877
  339MOL    C3148027   1.056   2.007   3.553  0.1250 -0.4767  0.2893
  339MOL    C3248028   0.924   1.991   3.627  0.0103 -0.0254  0.1646
  339MOL    N3348029   0.824   1.988   3.678 -0.6463  0.4192  0.3044
  339MOL    H3448030   1.123   1.826   3.640  1.6020 -1.7707 -0.5674
  339MOL    H3548031   1.187   1.971   3.713 -1.7590  0.4226  0.5151
  339MOL    H3648032   1.044   1.974   3.450  4.2848 -1.0301 -0.1010
  339MOL    C3748033   1.110   2.153   3.533  0.0154  0.5971  0.2111
  339MOL    C3848034   1.064   2.257   3.630  0.0381 -0.0485 -0.6012
  339MOL    C3948035   1.089   2.223   3.773  0.8493 -0.2357 -0.3355
  339MOL    N4048036   1.110   2.193   3.882  0.0462 -0.0210  0.4909
  339MOL    H4148037   1.218   2.145   3.539  0.0683  0.6744 -0.5341
  339MOL    H4248038   1.092   2.196   3.434 -0.0722  0.3453  0.1182
  339MOL    H4348039   0.956   2.245   3.621  0.1538 -1.5221 -0.1074
  339MOL    C4448040   1.106   2.403   3.600  0.6314  0.3905  0.3562
  339MOL    C4548041   1.251   2.425   3.643  0.6398  0.5100  0.5166
  339MOL    C4648042   1.342   2.351   3.556 -0.5193  0.5882  0.2542
  339MOL    N4748043   1.419   2.288   3.492 -0.1648  0.0000  0.5339
  339MOL    H4848044   1.103   2.419   3.493 -1.7470  0.0941  0.3661
  339MOL    H4948045   1.024   2.465   3.636  0.5651  1.5484 -1.7252
  339MOL    H5048046   1.259   2.413   3.751 -0.0222  0.8949  0.6072
  339MOL    C5148047   1.285   2.579   3.627 -0.6800  0.3473  0.2870
  339MOL    C5248048   1.395   2.634   3.721 -0.0242  0.4921 -0.0931
  339MOL    C5348049   1.357   2.624   3.866 -0.1864 -0.7636  0.5064
  339MOL    N5448050   1.331   2.612   3.981 -0.2554 -1.2915  0.7112
  339MOL    H5548051   1.308   2.594   3.522 -0.2636 -2.4221 -0.0748
  339MOL    H5648052   1.193   2.625   3.662  0.0167  1.1688  1.0561
  339MOL    H5748053   1.399   2.743   3.708 -1.2392  0.4615 -0.8282
  339MOL    C5848054   1.532   2.565   3.689 -0.3934 -0.4654  0.1630
  339MOL    C5948055   1.661   2.604   3.771 -0.2074  0.9378  0.0260
  339MOL    C6048056   1.684   2.746   3.773  0.3273  0.8217 -0.8396
  339MOL    N6148057   1.698   2.858   3.781 -0.2932 -0.8704  0.2288
  339MOL    H6248058   1.524   2.457   3.700 -0.3385 -0.6426 -1.3582
  339MOL    H6348059   1.555   2.596   3.587  0.4996  1.6154  0.9597
  339MOL    H6448060   1.745   2.554   3.721 -0.3152  0.0549  0.7066
  339MOL    C6548061   1.658   2.545   3.908 -0.4392 -0.8794 -0.0914
  339MOL    C6648062   1.797   2.548   3.974  0.0538  0.7152  0.0831
  339MOL    C6748063   1.843   2.678   4.013  0.3157 -0.1882 -0.0525
  339MOL    N6848064   1.886   2.776   4.042  1.0401  0.7634 -0.7252
  339MOL    H6948065   1.592   2.606   3.970 -0.1287  1.3129 -1.8306
  339MOL    H7048066   1.619   2.444   3.910 -4.0086  0.4524  0.6847
  339MOL    H7148067   1.870   2.508   3.905 -0.5579 -1.8930  0.9016
  339MOL    C7248068   1.801   2.454   4.100 -0.8111 -0.0169 -0.2823
  339MOL    C7348069   1.935   2.453   4.178  0.8238 -0.2577 -0.7814
  339MOL    C7448070   1.938   2.557   4.276 -0.2379  0.0021  0.0893
  339MOL    N7548071   1.938   2.641   4.357 -0.2296  0.1247  0.6033
  339MOL    H7648072   1.725   2.492   4.168 -0.4399 -0.8012  0.5893
  339MOL    H7748073   1.781   2.351   4.070 -0.1860  0.6820 -3.2202
  339MOL    H7848074   2.007   2.489   4.105  3.2275 -0.8211  1.2052
  339MOL    C7948075   1.977   2.320   4.242 -0.2976  0.5567 -0.7353
  339MOL    C8048076   1.907   2.267   4.373 -0.4310 -0.4856  0.5419
  339MOL    C8148077   1.766   2.267   4.342  0.4485 -0.5606  0.6805
  339MOL    N8248078   1.651   2.267   4.318 -0.1817 -0.0623 -0.6202
  339MOL    H8348079   1.964   2.241   4.169  0.1432 -2.4122  2.2868
  339MOL    H8448080   2.086   2.323   4.255 -0.2790 -0.2424 -0.7170
  339MOL    H8548081   1.927   2.348   4.443  4.5590 -1.4532  0.4171
  339MOL    C8648082   1.961   2.131   4.430  0.4051 -0.1252 -0.0636
  339MOL    C8748083   1.928   2.002   4.337  0.7533 -0.2690 -0.8633
  339MOL    C8848084   2.043   1.906   4.325 -0.0123  0.3954 -0.1085
  339MOL    N8948085   2.133   1.836   4.315 -0.5363 -0.3672 -0.2113
  339MOL    H9048086   2.068   2.148   4.439  1.3304 -3.8065 -2.6522
  339MOL    H9148087   1.922   2.123   4.531  1.4955  1.0507  0.4448
  339MOL    H9248088   1.912   2.041   4.236 -1.2481  0.3338 -0.3354
  339MOL    C9348089   1.795   1.947   4.373  0.1247 -0.3514  0.1394
  339MOL    C9448090   1.792   1.849   4.490 -0.2350  0.4223 -0.2060
  339MOL    C9548091   1.656   1.858   4.555  0.8096 -0.7839 -0.1038
  339MOL    N9648092   1.543   1.860   4.602  0.4585 -0.1817  0.0337
  339MOL    H9748093   1.730   2.030   4.402  1.7892  0.8502  0.4604
  339MOL    H9848094   1.754   1.906   4.280 -0.5215 -0.6617  0.5579
  339MOL    H9948095   1.857   1.889   4.568 -1.0845 -0.2167  0.8443
  339MOL   C10048096   1.827   1.701   4.460 -0.9153 -0.2419  0.0204
  339MOL   C10148097   1.775   1.601   4.574 -0.9557  0.0034 -0.4203
  339MOL   C10248098   1.778   1.463   4.517  0.0931 -0.7811  0.4657
  339MOL   N10348099   1.795   1.360   4.476  0.0117 -0.3382 -0.5812
  339MOL   H10448100   1.774   1.680   4.367 -1.1254  0.5041 -0.0288
  339MOL   H10548101   1.931   1.675   4.440 -0.2630  1.3751  1.1802
  339MOL   H10648102   1.670   1.623   4.593 -1.0783 -0.8431 -0.0910
  339MOL   C10748103   1.854   1.600   4.706 -0.6893  0.0542 -0.0655
  339MOL   C10848104   1.976   1.504   4.706 -0.0903 -0.1425  0.0403
  339MOL   C10948105   2.081   1.560   4.793 -0.0452  0.3270 -0.0926
  339MOL   N11048106   2.161   1.609   4.862 -0.0152  0.6195  0.2644
  339MOL   H11148107   1.890   1.702   4.720  1.2688 -0.7516  0.9533
  339MOL   H11248108   1.789   1.592   4.793 -1.3729 -1.8056 -0.7245
  339MOL   H11348109   2.016   1.518   4.606 -3.5953  1.2896 -1.2290
  339MOL   C11448110   1.937   1.362   4.763  0.5064  0.0241 -0.0962
  339MOL   C11548111   2.040   1.247   4.736 -0.1533  0.1953  0.3220
  339MOL   C11648112   2.163   1.254   4.809  0.2928  0.0873  0.3536
  339MOL   N11748113   2.258   1.247   4.872  0.1638  0.1358 -0.2750
  339MOL   H11848114   1.921   1.379   4.869  3.1791 -0.4046  0.3985
  339MOL   H11948115   1.843   1.329   4.718 -0.0267 -0.0912  1.0879
  339MOL   H12048116   2.070   1.263   4.632  1.3270  0.9569  0.8669
  339MOL   C12148117   1.991   1.097   4.742 -0.9705 -0.0974  0.2791
  339MOL   C12248118   1.936   1.047   4.873 -0.6359 -0.3737 -0.6607
  339MOL   C12348119   1.805   1.103   4.911  0.0978  0.1141  0.2729
  339MOL   N12448120   1.699   1.136   4.940  0.0608  0.1741 -0.5728
  339MOL   H12548121   1.914   1.094   4.665 -0.1709  1.7526 -0.6231
  339MOL   H12648122   2.056   1.018   4.704 -1.1564 -0.4312  0.6541
  339MOL   H12748123   2.004   1.092   4.946  1.4788 -0.4516 -2.5248
  339MOL   C12848124   1.949   0.888   4.888  0.2428 -0.4948  0.2041
  339MOL   C12948125   1.837   0.807   4.825 -0.1719 -0.4215 -0.1379
  339MOL   C13048126   1.806   0.831   4.685 -0.2021 -0.1046 -0.0606
  339MOL   N13148127   1.781   0.859   4.573  0.2252  0.3406  0.0269
  339MOL   H13248128   2.037   0.850   4.835 -0.4272 -0.5464 -0.8900
  339MOL   H13348129   1.970   0.857   4.990  0.6154  0.2002  0.3368
  339MOL   H13448130   1.745   0.838   4.874 -0.6432 -0.5089 -0.9600
  339MOL   C13548131   1.858   0.657   4.845 -0.5297  0.0151  0.4863
  339MOL   C13648132   1.870   0.617   4.991 -0.5487 -0.0934  0.5070
  339MOL   C13748133   2.005   0.620   5.036  0.6059  0.9527  0.2716
  339MOL   N13848134   2.116   0.623   5.073  1.0238 -0.2007  0.0824
  339MOL   H13948135   1.767   0.617   4.800 -2.1972  0.3891  3.4088
  339MOL   H14048136   1.945   0.620   4.789  1.2064  1.6096  2.0457
  339MOL   H14148137   1.830   0.517   5.005 -3.2052  0.5182 -2.1065
  339MOL   H14248138   1.822   0.688   5.058 -1.0073 -0.6141  0.7282
  340MOL     C148139   0.853   7.596   4.012  0.3706  0.1139  0.1255
  340MOL     C248140   0.719   7.592   4.088  0.4370  0.2491 -0.2532
  340MOL     C348141   0.654   7.460   4.071  0.5422  0.1793 -0.6639
  340MOL     N448142   0.609   7.354   4.074 -0.3182 -0.3473  0.1138
  340MOL     H548143   0.865   7.527   3.929 -0.3191 -1.7226  1.5195
  340MOL     H648144   0.934   7.563   4.078  0.9747  1.2417 -0.0425
  340MOL     H748145   0.644   7.653   4.037  0.9437  0.6260 -0.5426
  340MOL     H848146   0.898   7.690   3.980  2.2157 -0.2663  1.5421
  340MOL     C948147   0.737   7.648   4.235 -0.1341 -0.3156  0.3856
  340MOL    C1048148   0.602   7.689   4.305  0.3140  0.0151  0.2405
  340MOL    C1148149   0.495   7.601   4.293 -0.1704 -0.1183  0.2580
  340MOL    N1248150   0.411   7.525   4.286 -0.1661  0.5783  0.0875
  340MOL    H1348151   0.791   7.578   4.298 -0.6224 -0.6443  0.4410
  340MOL    H1448152   0.797   7.739   4.233  2.0268 -1.7271 -2.5104
  340MOL    H1548153   0.564   7.784   4.267  1.7706 -0.7076 -3.2458
  340MOL    C1648154   0.629   7.725   4.455 -0.3739 -0.4516 -0.4585
  340MOL    C1748155   0.528   7.827   4.511 -0.3721 -0.3122  0.6580
  340MOL    C1848156   0.402   7.760   4.532  0.4239  0.8282  0.1430
  340MOL    N1948157   0.301   7.705   4.544 -0.2679 -0.4661 -0.3639
  340MOL    H2048158   0.623   7.638   4.521 -0.8228  0.2577  0.4382
  340MOL    H2148159   0.728   7.770   4.465 -0.3395 -0.4296 -0.9195
  340MOL    H2248160   0.515   7.903   4.433 -0.1211  0.6373  1.5325
  340MOL    C2348161   0.583   7.883   4.640  0.5518 -0.0878  0.5911
  340MOL    C2448162   0.489   7.965   4.723  0.3323  0.1407 -0.2090
  340MOL    C2548163   0.413   8.064   4.653 -0.1913  0.3713 -1.2540
  340MOL    N2648164   0.354   8.147   4.597  0.3179 -0.1675  0.7067
  340MOL    H2748165   0.618   7.799   4.699 -2.9471 -1.0078  1.5091
  340MOL    H2848166   0.670   7.946   4.622  0.7713 -0.4715  0.3334
  340MOL    H2948167   0.547   8.025   4.793 -1.5764  1.1080  0.5658
  340MOL    C3048168   0.403   7.887   4.822  0.4496  0.1365 -0.5509
  340MOL    C3148169   0.352   7.958   4.949  0.3934  0.2684  0.2430
  340MOL    C3248170   0.247   8.054   4.913  0.8870  0.1268 -0.6671
  340MOL    N3348171   0.160   8.126   4.882 -0.0363  0.1778 -0.2951
  340MOL    H3448172   0.319   7.842   4.768  0.0387  0.7216 -0.4047
  340MOL    H3548173   0.456   7.796   4.850  1.6066  0.0915 -2.8242
  340MOL    H3648174   0.437   8.013   4.989  1.3118 -0.8974 -0.0902
  340MOL    C3748175   0.291   7.856   5.053  0.8756  0.4226  0.0871
  340MOL    C3848176   0.277   7.929   5.192 -0.1457 -0.0393  0.4876
  340MOL    C3948177   0.180   8.038   5.203  0.0866  0.3594  0.6196
  340MOL    N4048178   0.103   8.122   5.212 -0.5412  0.0721  0.1617
  340MOL    H4148179   0.202   7.806   5.015 -0.4222  1.3221  1.8862
  340MOL    H4248180   0.359   7.771   5.061 -0.0413 -0.4658 -1.3559
  340MOL    H4348181   0.376   7.967   5.214 -1.2394  2.3368  1.4573
  340MOL    C4448182   0.225   7.820   5.298  0.2825 -0.2263 -0.4477
  340MOL    C4548183   0.072   7.815   5.325 -0.2347  0.0871 -0.2158
  340MOL    C4648184   8.310   7.812   5.194 -0.5015  0.4465 -0.4728
  340MOL    N4748185   8.259   7.801   5.088 -0.2188 -0.1386 -0.1422
  340MOL    H4848186   0.271   7.725   5.270  2.2349  1.1232 -1.9387
  340MOL    H4948187   0.264   7.833   5.399 -1.4341  2.5112 -0.0797
  340MOL    H5048188   0.033   7.904   5.375  1.1005  1.8984 -2.2925
  340MOL    C5148189   0.041   7.688   5.418 -0.8241  0.4788  0.3363
  340MOL    C5248190   8.215   7.652   5.464 -0.6169  0.6542  0.0125
  340MOL    C5348191   8.170   7.767   5.548  0.4627  0.0719  0.3695
  340MOL    N5448192   8.140   7.857   5.616  0.0734  0.6288  0.4339
  340MOL    H5548193   0.089   7.599   5.376 -0.5248  0.8866 -0.1961
  340MOL    H5648194   0.103   7.694   5.507 -0.4259 -1.7934  0.2571
  340MOL    H5748195   8.222   7.567   5.533 -2.6925  1.2102  0.9570
  340MOL    C5848196   8.112   7.609   5.353 -0.3249  0.1471  0.4697
  340MOL    C5948197   7.968   7.598   5.391 -0.1273  0.4340 -0.0657
  340MOL    C6048198   7.956   7.527   5.519 -0.5934  0.7145 -0.3714
  340MOL    N6148199   7.937   7.470   5.617 -0.5928  0.2900 -0.3575
  340MOL    H6248200   8.118   7.663   5.258  1.2003 -1.1947 -0.2240
  340MOL    H6348201   8.126   7.513   5.303  0.1412 -0.6095  2.0241
  340MOL    H6448202   7.907   7.541   5.321 -0.8658  1.1789 -0.0356
  340MOL    C6548203   7.891   7.731   5.389  0.2488 -0.3557  0.0257
  340MOL    C6648204   7.748   7.730   5.324  0.3312 -0.4614  0.5598
  340MOL    C6748205   7.666   7.621   5.378  0.9995  1.0850 -0.8775
  340MOL    N6848206   7.603   7.528   5.414 -0.0590  0.5222 -0.1522
  340MOL    H6948207   7.884   7.770   5.490  1.7042  1.1553 -0.4402
  340MOL    H7048208   7.944   7.805   5.330  2.2968 -1.4761  0.4206
  340MOL    H7148209   7.763   7.695   5.222  1.5210  0.5546  0.3771
  340MOL    C7248210   7.673   7.862   5.307 -0.5890 -0.3446 -0.5121
  340MOL    C7348211   7.543   7.855   5.225 -0.2526  0.2862 -0.4564
  340MOL    C7448212   7.431   7.795   5.302 -0.1596  0.0300  0.0257
  340MOL    N7548213   7.343   7.746   5.358  0.3842  0.4705  0.0081
  340MOL    H7648214   7.655   7.904   5.406 -1.1869 -1.0487 -0.3144
  340MOL    H7748215   7.748   7.928   5.263 -0.5225 -0.2805 -0.3040
  340MOL    H7848216   7.564   7.781   5.148 -1.2003 -1.1513  0.6292
  340MOL    C7948217   7.517   7.987   5.169  0.5859  0.7174  0.0041
  340MOL    C8048218   7.492   8.116   5.255  0.3793  0.4405 -0.4248
  340MOL    C8148219   7.616   8.186   5.298 -0.9313 -0.2289 -0.3774
  340MOL    N8248220   7.714   8.238   5.328 -0.6269 -0.5410 -0.1057
  340MOL    H8348221   7.610   8.016   5.120 -0.9315  0.9921 -2.8155
  340MOL    H8448222   7.461   7.977   5.076  1.2696 -0.1880 -0.3219
  340MOL    H8548223   7.456   8.075   5.350  0.8701  1.1891  0.0853
  340MOL    C8648224   7.381   8.206   5.179  0.1849  0.0236 -0.0687
  340MOL    C8748225   7.327   0.010   5.262 -0.0434  0.8386  0.0121
  340MOL    C8848226   7.434   0.114   5.258  1.0870  0.3535 -0.4339
  340MOL    N8948227   7.513   0.196   5.251 -0.3078  0.0853 -0.0677
  340MOL    H9048228   7.424   8.241   5.085 -0.7372  3.3259  0.6911
  340MOL    H9148229   7.302   8.142   5.139 -0.9645  0.9408  0.6980
  340MOL    H9248230   7.310   8.293   5.366 -3.6064  2.2259 -0.0988
  340MOL    C9348231   7.193   0.054   5.215  0.5904  0.0295  0.4326
  340MOL    C9448232   7.178   0.119   5.078 -0.5887  0.0367  0.2953
  340MOL    C9548233   7.191   0.008   4.976 -0.9991  0.5085  0.1740
  340MOL    N9648234   7.201   8.234   4.898  0.2349  1.1028  0.0322
  340MOL    H9748235   7.116   8.293   5.239 -0.0304  1.2308  2.1721
  340MOL    H9848236   7.166   0.139   5.277 -0.2835 -0.7698  1.1638
  340MOL    H9948237   7.260   0.187   5.055  0.1263 -1.0265 -0.3144
  340MOL   C10048238   7.036   0.184   5.057  0.9935  0.2981 -0.4414
  340MOL   C10148239   7.014   0.322   5.112  0.0691  0.2748 -0.0236
  340MOL   C10248240   7.121   0.418   5.073  0.0521  0.3871  0.5448
  340MOL   N10348241   7.194   0.502   5.043 -0.3367  0.1907  0.2503
  340MOL   H10448242   7.023   0.194   4.949  1.2541 -1.3172 -0.6395
  340MOL   H10548243   6.962   0.109   5.086 -0.6108  2.3336  0.8360
  340MOL   H10648244   7.005   0.327   5.221  0.4731  0.0581  0.0205
  340MOL   C10748245   6.880   0.378   5.051  0.3578 -0.0911  0.2315
  340MOL   C10848246   6.844   0.514   5.101 -0.4458 -0.1833  0.8362
  340MOL   C10948247   6.741   0.570   5.011  0.2362 -0.0885  0.4668
  340MOL   N11048248   6.664   0.618   4.938  0.3229  0.4634 -0.5670
  340MOL   H11148249   6.885   0.373   4.942 -0.8356  1.4603  0.0942
  340MOL   H11248250   6.799   0.310   5.079  0.3732 -0.5856 -0.8599
  340MOL   H11348251   6.932   0.576   5.080  0.3507 -2.0500 -1.5705
  340MOL   C11448252   6.795   0.522   5.244  0.4882  0.7239 -0.1545
  340MOL   C11548253   6.774   0.667   5.296  0.6057 -0.7661  0.2490
  340MOL   C11648254   6.681   0.646   5.413  0.0535 -0.0461  0.1823
  340MOL   N11748255   6.607   0.634   5.500  0.0817 -0.3225  0.5155
  340MOL   H11848256   6.709   0.457   5.261  1.3839 -0.1062  1.3486
  340MOL   H11948257   6.866   0.491   5.320  0.8082  2.1992  0.1619
  340MOL   H12048258   6.715   0.727   5.226  1.1667 -1.9682 -1.2848
  340MOL   C12148259   6.912   0.740   5.311 -0.0726  0.9370 -0.1570
  340MOL   C12248260   6.908   0.878   5.371 -0.2391 -0.8381 -1.0737
  340MOL   C12348261   6.879   0.876   5.513  0.4768 -0.0041 -0.2675
  340MOL   N12448262   6.852   0.878   5.627 -0.6085 -0.4826  0.1593
  340MOL   H12548263   6.989   0.681   5.360 -0.5996  2.2157  2.2461
  340MOL   H12648264   6.949   0.742   5.208  1.3428  2.0803  0.3612
  340MOL   H12748265   6.824   0.937   5.335 -1.4613 -0.0470  2.8032
  340MOL   C12848266   7.030   0.971   5.342  0.3547  0.3065 -0.4555
  340MOL   C12948267   7.174   0.921   5.351 -0.1074  0.0157  0.2321
  340MOL   C13048268   7.192   0.842   5.476  0.0171 -0.1337  0.2394
  340MOL   N13148269   7.208   0.782   5.575  0.2458 -0.3492  0.2120
  340MOL   H13248270   7.006   0.991   5.238  0.9894 -0.9174 -0.8423
  340MOL   H13348271   7.020   1.064   5.400  2.9597 -0.4992  1.4162
  340MOL   H13448272   7.235   1.010   5.366 -1.4385  1.0650 -0.4520
  340MOL   C13548273   7.223   0.856   5.221 -0.3267  0.0501  0.3700
  340MOL   C13648274   7.343   0.762   5.228  0.6616 -0.1115 -0.5704
  340MOL   C13748275   7.471   0.830   5.273 -0.0394  0.3742  0.5428
  340MOL   N13848276   7.565   0.879   5.310  0.2063 -0.2992  0.1988
  340MOL   H13948277   7.138   0.823   5.161 -1.5324 -0.5037  2.3428
  340MOL   H14048278   7.258   0.947   5.172 -0.2979 -0.2128 -0.0936
  340MOL   H14148279   7.355   0.711   5.132 -2.5359 -0.6269 -0.7678
  340MOL   H14248280   7.314   0.680   5.295  0.9106 -0.7462 -1.2332
  341MOL     C148281   6.334   7.959   4.888 -0.0679 -0.3803  0.3208
  341MOL     C248282   6.197   7.911   4.838 -0.0227  0.1520  0.4364
  341MOL     C348283   6.102   8.019   4.828 -0.7527 -0.2413 -0.5589
  341MOL     N448284   6.025   8.104   4.817 -0.7439 -0.1378  0.1882
  341MOL     H548285   6.402   7.874   4.898  0.1874 -0.2153 -0.0190
  341MOL     H648286   6.321   8.022   4.976 -1.0316  0.3980 -0.3775
  341MOL     H748287   6.167   7.844   4.918  1.1820 -1.0410 -0.0941
  341MOL     H848288   6.384   8.024   4.817 -0.5523 -0.7049 -0.3179
  341MOL     C948289   6.206   7.833   4.705  0.1004 -0.3656 -1.0164
  341MOL    C1048290   6.073   7.792   4.631  0.3344 -0.0604  0.5051
  341MOL    C1148291   6.024   7.890   4.523 -0.4382 -0.7129 -0.1197
  341MOL    N1248292   5.986   7.959   4.440  0.1801 -0.0397 -0.3557
  341MOL    H1348293   6.267   7.892   4.636 -0.2954 -1.5526 -2.4278
  341MOL    H1448294   6.272   7.752   4.736 -0.9433 -0.9677 -0.3568
  341MOL    H1548295   5.994   7.802   4.705  1.1441 -0.8570  1.4844
  341MOL    C1648296   6.084   7.645   4.593 -0.2370  0.2433 -0.5728
  341MOL    C1748297   5.966   7.579   4.517 -0.1719 -0.3849 -0.2355
  341MOL    C1848298   5.954   7.639   4.379 -0.1490 -0.1815 -0.5048
  341MOL    N1948299   5.944   7.682   4.272 -0.3051 -0.3645 -0.3614
  341MOL    H2048300   6.175   7.637   4.533 -1.0403  0.0731 -1.7869
  341MOL    H2148301   6.104   7.588   4.683  0.5924  1.7078  0.1853
  341MOL    H2248302   5.879   7.611   4.574 -0.0295  0.4584 -0.4779
  341MOL    C2348303   5.976   7.424   4.514 -0.3378 -0.5895  0.4420
  341MOL    C2448304   6.105   7.364   4.429  0.4974 -0.1902  0.1118
  341MOL    C2548305   6.231   7.377   4.495  0.3710 -0.2454 -0.8485
  341MOL    N2648306   6.332   7.381   4.548 -0.5631  0.6423  0.4122
  341MOL    H2748307   5.946   7.392   4.614 -0.5595 -0.4087  0.4359
  341MOL    H2848308   5.884   7.390   4.466 -0.6214  1.7138 -0.7250
  341MOL    H2948309   6.130   7.437   4.351  0.8500  1.0932  1.3880
  341MOL    C3048310   6.069   7.223   4.379  0.1566 -0.1952  0.0115
  341MOL    C3148311   5.955   7.199   4.276  0.2925 -0.4128  0.1698
  341MOL    C3248312   5.959   7.295   4.171  0.2661  0.0150 -0.5469
  341MOL    N3348313   5.958   7.373   4.086  0.2231 -1.0893 -0.1160
  341MOL    H3448314   6.158   7.173   4.340  0.8502  1.3777 -0.4881
  341MOL    H3548315   6.043   7.162   4.465 -1.0259 -0.5720 -0.6079
  341MOL    H3648316   5.860   7.221   4.324  0.5413 -2.0177  1.4631
  341MOL    C3748317   5.952   7.061   4.225  0.4346 -0.3543 -0.5787
  341MOL    C3848318   5.897   6.960   4.323  0.4711  0.1646 -0.4330
  341MOL    C3948319   5.766   7.009   4.372 -0.1253 -0.5482  0.2208
  341MOL    N4048320   5.666   7.048   4.402  0.3548 -0.0690 -0.3517
  341MOL    H4148321   5.889   7.054   4.136 -1.0046  0.3492  0.3721
  341MOL    H4248322   6.053   7.035   4.190  1.5937 -0.0746  2.3917
  341MOL    H4348323   5.966   6.969   4.407  0.2944 -0.3955 -0.2281
  341MOL    C4448324   5.892   6.811   4.286  0.2061  0.5095 -0.0549
  341MOL    C4548325   6.036   6.770   4.247 -0.2311 -0.5058 -0.5757
  341MOL    C4648326   6.136   6.809   4.348 -0.9279  0.2651  0.2054
  341MOL    N4748327   6.211   6.843   4.431 -0.3748 -0.4317 -0.6562
  341MOL    H4848328   5.852   6.749   4.367 -1.0552 -0.1442 -1.1632
  341MOL    H4948329   5.825   6.791   4.202  2.2681  0.0852 -1.6437
  341MOL    H5048330   6.069   6.817   4.155 -1.3507 -1.1775 -1.3379
  341MOL    C5148331   6.047   6.616   4.244  0.4989 -0.6718  0.3664
  341MOL    C5248332   5.982   6.541   4.122  0.3924 -0.2877 -0.8282
  341MOL    C5348333   6.027   6.603   3.996 -0.1347 -0.4132 -1.0287
  341MOL    N5448334   6.063   6.643   3.889  0.0765  0.3217 -0.3368
  341MOL    H5548335   6.152   6.590   4.229  0.3204 -0.2517 -1.8845
  341MOL    H5648336   6.023   6.573   4.341 -1.0459 -0.2237  0.1794
  341MOL    H5748337   5.878   6.570   4.135  0.4532 -0.2011 -0.5356
  341MOL    C5848338   5.996   6.387   4.130  0.0610  0.1173 -0.0135
  341MOL    C5948339   5.925   6.321   4.012 -0.6680 -0.1136 -0.6715
  341MOL    C6048340   6.026   6.316   3.906 -0.6270  0.2386 -0.6874
  341MOL    N6148341   6.104   6.313   3.823 -0.4043  0.0808 -0.4104
  341MOL    H6248342   6.102   6.361   4.131  0.3199  1.1896  0.6938
  341MOL    H6348343   5.939   6.352   4.216 -1.1554  0.2268 -0.7662
  341MOL    H6448344   5.840   6.381   3.980 -2.5323 -3.1445 -1.6190
  341MOL    C6548345   5.878   6.179   4.045  0.8098  0.3236 -0.2594
  341MOL    C6648346   5.787   6.114   3.942 -0.1769  0.3802  0.0028
  341MOL    C6748347   5.856   6.110   3.815  0.3442 -0.4345  0.0218
  341MOL    N6848348   5.911   6.098   3.713  0.3973  0.9919  0.5224
  341MOL    H6948349   5.963   6.117   4.073 -0.8000 -2.2771 -0.9599
  341MOL    H7048350   5.819   6.189   4.136 -1.0837  2.9469 -1.7389
  341MOL    H7148351   5.703   6.182   3.926  0.4577  1.6877  2.1229
  341MOL    C7248352   5.754   5.971   3.984  0.5941  0.0050  0.5749
  341MOL    C7348353   5.681   5.884   3.876  0.2133 -0.8619  0.3919
  341MOL    C7448354   5.681   5.740   3.921  0.9029  0.3020  0.2643
  341MOL    N7548355   5.682   5.624   3.954  0.4782  0.0962  0.3097
  341MOL    H7648356   5.841   5.919   4.024  0.1173 -0.4005  1.0826
  341MOL    H7748357   5.686   5.981   4.068  1.0935 -1.6261  1.1872
  341MOL    H7848358   5.742   5.882   3.786  0.6026 -0.3015  0.6356
  341MOL    C7948359   5.548   5.944   3.821 -0.2748 -0.7855 -0.2571
  341MOL    C8048360   5.460   5.842   3.751 -0.2907  0.3361  0.3995
  341MOL    C8148361   5.396   5.771   3.859  0.4163 -0.3757  0.4937
  341MOL    N8248362   5.348   5.712   3.949 -0.6116 -0.0100  0.0209
  341MOL    H8348363   5.502   5.991   3.908  2.4693 -0.8069  1.2453
  341MOL    H8448364   5.577   6.023   3.751 -3.5420  1.5428  0.8832
  341MOL    H8548365   5.523   5.766   3.704  0.4409  0.8526  0.5316
  341MOL    C8648366   5.369   5.893   3.639  0.0549 -0.0513 -0.5936
  341MOL    C8748367   5.434   5.936   3.506 -0.0170 -0.6325  0.1759
  341MOL    C8848368   5.576   5.897   3.507 -0.5647 -0.1608 -0.6868
  341MOL    N8948369   5.689   5.864   3.512  0.1116 -0.6170  0.4144
  341MOL    H9048370   5.293   5.819   3.613 -0.5360  0.4143 -0.1865
  341MOL    H9148371   5.324   5.985   3.677  0.1757 -1.4184  3.1050
  341MOL    H9248372   5.426   6.045   3.499 -0.0303 -0.7348 -1.8506
  341MOL    C9348373   5.364   5.876   3.378 -0.6113 -0.4015 -0.2618
  341MOL    C9448374   5.424   5.920   3.241 -0.4222 -0.3940  0.5820
  341MOL    C9548375   5.371   5.841   3.131 -0.1693  0.3636 -0.0445
  341MOL    N9648376   5.324   5.772   3.051  0.2804 -0.4404  0.5971
  341MOL    H9748377   5.360   5.767   3.381 -0.2693 -0.3975  0.2023
  341MOL    H9848378   5.261   5.913   3.383  0.0687  1.3462  1.0187
  341MOL    H9948379   5.528   5.889   3.237 -0.3242  0.0451 -0.8514
  341MOL   C10048380   5.423   6.074   3.214  0.2980  0.2446  0.3644
  341MOL   C10148381   5.446   6.127   3.069  0.1904 -0.5874  0.3252
  341MOL   C10248382   5.354   6.083   2.964 -0.0026 -0.6536  0.1063
  341MOL   N10348383   5.287   6.060   2.876 -0.3903 -0.4157  0.7597
  341MOL   H10448384   5.324   6.117   3.231  0.2910  1.6889 -2.8286
  341MOL   H10548385   5.496   6.125   3.276  2.9363 -1.2658 -1.4139
  341MOL   H10648386   5.548   6.095   3.047 -0.4004 -0.9281 -2.0370
  341MOL   C10748387   5.464   6.275   3.057 -0.3061 -0.6107 -0.0280
  341MOL   C10848388   5.513   6.320   2.917 -0.8235  0.6755 -0.8140
  341MOL   C10948389   5.430   6.427   2.860 -0.6922  0.5480 -0.7792
  341MOL   N11048390   5.366   6.513   2.820 -0.4228 -0.1074  0.9793
  341MOL   H11148391   5.374   6.330   3.085 -0.1820  0.0790 -0.9594
  341MOL   H11248392   5.530   6.306   3.137  0.3257  0.0134 -0.7817
  341MOL   H11348393   5.495   6.244   2.842 -0.7748 -2.5137  2.2602
  341MOL   C11448394   5.656   6.385   2.921  0.6242  0.3544 -0.2078
  341MOL   C11548395   5.774   6.296   2.892 -0.6297  0.0637  0.6276
  341MOL   C11648396   5.739   6.189   2.800 -0.6555 -0.0282  0.2897
  341MOL   N11748397   5.722   6.102   2.726  0.6039 -0.3669  0.4857
  341MOL   H11848398   5.655   6.445   2.830  0.4650  0.0043 -0.4402
  341MOL   H11948399   5.671   6.453   3.005 -2.5595 -1.2424  1.7924
  341MOL   H12048400   5.791   6.235   2.980  1.5351 -0.1725  0.0630
  341MOL   C12148401   5.902   6.382   2.860  0.1447 -0.4066 -0.2477
  341MOL   C12248402   6.035   6.308   2.840  0.0931 -0.2226  0.5253
  341MOL   C12348403   6.081   6.232   2.958 -0.2096  0.8654  0.0230
  341MOL   N12448404   6.108   6.167   3.051  0.2729  0.2594 -0.1564
  341MOL   H12548405   5.872   6.438   2.772 -0.3909 -0.4457 -0.0948
  341MOL   H12648406   5.921   6.456   2.937  1.3195 -0.5243 -0.4078
  341MOL   H12748407   6.112   6.378   2.810 -1.9460  1.2859 -1.4014
  341MOL   C12848408   6.031   6.208   2.727 -0.5141  0.1936  0.4163
  341MOL   C12948409   6.161   6.161   2.667  0.1799 -0.8922 -0.2699
  341MOL   C13048410   6.222   6.041   2.729 -0.0560  0.3703 -0.0479
  341MOL   N13148411   6.262   5.942   2.770 -0.1388  0.0654  0.0573
  341MOL   H13248412   5.991   6.113   2.764 -1.3518  0.8594  1.2618
  341MOL   H13348413   5.960   6.230   2.648 -0.3337 -2.2617 -0.4610
  341MOL   H13448414   6.243   6.230   2.683 -0.1622 -0.4543 -0.4055
  341MOL   C13548415   6.137   6.141   2.515 -0.0859  0.5209  0.0526
  341MOL   C13648416   6.257   6.080   2.439 -0.4844 -0.4094  0.1389
  341MOL   C13748417   6.229   6.046   2.300 -0.1854  0.8601 -0.4171
  341MOL   N13848418   6.200   6.021   2.189  0.6968 -0.3222  0.8101
  341MOL   H13948419   6.046   6.082   2.508 -0.7303  1.2821  1.7562
  341MOL   H14048420   6.108   6.225   2.452  0.0549 -1.0875 -2.2354
  341MOL   H14148421   6.285   5.986   2.487  1.2892  0.7383  1.3977
  341MOL   H14248422   6.346   6.140   2.457 -1.4514  1.0150  0.2435
  342MOL     C148423   4.810   5.205   5.255 -0.1803  1.3364  0.6191
  342MOL     C248424   4.809   5.239   5.106  0.3122  0.1254 -0.3252
  342MOL     C348425   4.939   5.308   5.087 -0.5174  0.3873  0.0483
  342MOL     N448426   5.040   5.359   5.067 -0.5519 -0.3924 -0.2780
  342MOL     H548427   4.839   5.295   5.310  0.4929  1.7162 -0.3292
  342MOL     H648428   4.900   5.147   5.270 -1.1925 -0.1513  1.0630
  342MOL     H748429   4.745   5.324   5.080  0.3534 -0.4927 -2.5208
  342MOL     H848430   4.720   5.158   5.295  0.1806  0.0120 -0.0993
  342MOL     C948431   4.796   5.124   5.014  0.0436  0.0191  0.4568
  342MOL    C1048432   4.807   5.147   4.859 -0.5706 -0.2276  0.4464
  342MOL    C1148433   4.940   5.193   4.810  0.3591  0.1167  0.0721
  342MOL    N1248434   5.044   5.230   4.771  1.1159  0.2121 -0.4503
  342MOL    H1348435   4.855   5.037   5.045 -0.1448 -0.4202 -0.4094
  342MOL    H1448436   4.705   5.067   5.034  0.9492 -2.2131 -1.6100
  342MOL    H1548437   4.740   5.229   4.834  1.4451  0.3135 -3.6261
  342MOL    C1648438   4.769   5.022   4.771  0.2546  0.4160  0.1325
  342MOL    C1748439   4.741   5.049   4.620 -0.0586 -0.1424 -0.0096
  342MOL    C1848440   4.853   5.093   4.543 -1.5186 -0.1583 -0.2314
  342MOL    N1948441   4.946   5.126   4.474  0.5461 -0.7095  0.4901
  342MOL    H2048442   4.842   4.943   4.785  1.0095  1.0871 -0.0260
  342MOL    H2148443   4.682   4.970   4.812  0.1132  0.1586 -0.4841
  342MOL    H2248444   4.672   5.132   4.627  1.6506  1.4065 -1.0890
  342MOL    C2348445   4.658   4.944   4.545 -0.2228 -0.3588 -0.7661
  342MOL    C2448446   4.577   4.999   4.416 -0.2891 -0.1697  0.3998
  342MOL    C2548447   4.633   4.943   4.286  1.1503 -0.4435 -0.0942
  342MOL    N2648448   4.677   4.897   4.187 -0.3084  0.2458 -0.6657
  342MOL    H2748449   4.721   4.859   4.517  0.0246 -0.1793 -0.7526
  342MOL    H2848450   4.576   4.912   4.609 -0.5370  0.2279 -0.8784
  342MOL    H2948451   4.586   5.108   4.412  0.7715 -0.1745  2.0368
  342MOL    C3048452   4.422   4.976   4.430 -0.2059  0.7825  0.4011
  342MOL    C3148453   4.326   5.072   4.353 -0.1256 -0.2172 -0.3030
  342MOL    C3248454   4.334   5.056   4.209 -0.4286 -0.1312 -0.3431
  342MOL    N3348455   4.342   5.054   4.090 -0.2995 -0.4059 -0.8545
  342MOL    H3448456   4.396   4.883   4.381 -0.3337  0.8927  0.2581
  342MOL    H3548457   4.387   4.974   4.533  2.6354  3.2046  1.4851
  342MOL    H3648458   4.365   5.171   4.379 -1.8904  0.6948 -1.0578
  342MOL    C3748459   4.182   5.068   4.404 -0.0266 -0.9414 -0.2391
  342MOL    C3848460   4.105   5.198   4.392  0.1346  0.3955  0.2947
  342MOL    C3948461   4.140   5.305   4.481 -0.6260  0.3977  1.1293
  342MOL    N4048462   4.175   5.389   4.550  0.1926  0.5717  0.2751
  342MOL    H4148463   4.123   4.991   4.355 -0.6567 -1.0896  0.7545
  342MOL    H4248464   4.180   5.032   4.506  2.2723 -0.1228  0.1170
  342MOL    H4348465   4.005   5.172   4.426 -0.1151 -2.7167 -2.5179
  342MOL    C4448466   4.086   5.243   4.240 -0.1693 -0.8650 -0.1081
  342MOL    C4548467   3.995   5.161   4.153 -0.3423 -0.2518  0.3089
  342MOL    C4648468   3.865   5.147   4.215  0.8295  0.5886  0.4861
  342MOL    N4748469   3.764   5.135   4.265  0.7001  0.2307  0.0397
  342MOL    H4848470   4.050   5.346   4.234  2.2669  0.0819  1.1577
  342MOL    H4948471   4.183   5.255   4.193 -0.9388 -0.5460 -1.6669
  342MOL    H5048472   4.042   5.065   4.133  1.9992  1.0426 -0.5433
  342MOL    C5148473   3.990   5.221   4.012  0.4716 -0.8497  1.0259
  342MOL    C5248474   3.924   5.136   3.903 -1.0170  0.3336  0.0776
  342MOL    C5348475   3.785   5.110   3.925  0.5187  0.3484  0.0538
  342MOL    N5448476   3.672   5.091   3.941  0.6118  0.4207 -0.0660
  342MOL    H5548477   3.935   5.315   4.017  0.6839 -0.5930 -1.2877
  342MOL    H5648478   4.095   5.241   3.993  0.3828 -0.6841  0.7262
  342MOL    H5748479   3.968   5.037   3.911 -0.9484  0.1836 -1.9363
  342MOL    C5848480   3.951   5.208   3.767 -0.1252 -0.0840 -0.5926
  342MOL    C5948481   3.963   5.113   3.642 -0.4271 -0.9943  0.4236
  342MOL    C6048482   3.833   5.045   3.625 -0.1173  0.3145  0.2639
  342MOL    N6148483   3.734   4.981   3.608  0.2167 -0.2499 -0.2902
  342MOL    H6248484   3.868   5.278   3.757 -1.5289 -1.5427  0.4191
  342MOL    H6348485   4.044   5.264   3.775 -1.1689  1.8994 -2.0068
  342MOL    H6448486   4.039   5.040   3.668  1.9588  1.6219  0.9838
  342MOL    C6548487   4.016   5.186   3.520  1.0222 -0.1633 -0.3369
  342MOL    C6648488   4.071   5.097   3.412  0.1120  0.4129 -0.2414
  342MOL    C6748489   4.093   4.958   3.458  0.2818  0.9868 -0.4657
  342MOL    N6848490   4.113   4.845   3.493  0.3864 -0.2882 -0.4714
  342MOL    H6948491   3.929   5.247   3.494  0.6120 -0.7690 -0.3956
  342MOL    H7048492   4.089   5.264   3.541 -0.9959  1.6022  0.2436
  342MOL    H7148493   4.176   5.113   3.387  0.2702  0.2323  0.3006
  342MOL    C7248494   3.993   5.112   3.284  0.3879 -0.0426 -0.5582
  342MOL    C7348495   4.021   5.236   3.200 -0.4699 -0.4683 -0.5020
  342MOL    C7448496   4.158   5.221   3.141  0.5616  0.2412 -0.1525
  342MOL    N7548497   4.266   5.216   3.098  0.3972 -0.1260 -0.1525
  342MOL    H7648498   4.010   5.022   3.225 -0.3092 -1.1578  0.9128
  342MOL    H7748499   3.886   5.100   3.305  0.8339 -0.9467  1.2514
  342MOL    H7848500   4.010   5.323   3.265 -0.6419  0.6866 -2.0404
  342MOL    C7948501   3.912   5.251   3.094  0.4929 -0.3956  0.4032
  342MOL    C8048502   3.930   5.362   2.984  0.0637  0.4349 -0.5140
  342MOL    C8148503   4.042   5.342   2.889  0.6572 -0.4474  0.2535
  342MOL    N8248504   4.130   5.330   2.819 -0.4643 -0.4331  0.1962
  342MOL    H8348505   3.910   5.159   3.036  0.4555 -0.2418  0.1604
  342MOL    H8448506   3.820   5.261   3.150  1.7931 -1.6600  2.8532
  342MOL    H8548507   3.952   5.446   3.049 -2.2027  1.0015 -0.4176
  342MOL    C8648508   3.796   5.400   2.904 -0.5619 -0.9778  0.1115
  342MOL    C8748509   3.684   5.448   2.999 -0.4667  0.2889 -0.2438
  342MOL    C8848510   3.721   5.565   3.072 -0.8973  0.0642  0.4270
  342MOL    N8948511   3.752   5.657   3.136  0.4531 -0.1536  0.4134
  342MOL    H9048512   3.835   5.479   2.840  1.1215 -3.4832 -2.0951
  342MOL    H9148513   3.764   5.318   2.839 -1.1236  0.3872 -1.3754
  342MOL    H9248514   3.671   5.373   3.077  0.5694 -0.4307 -0.7660
  342MOL    C9348515   3.545   5.468   2.927 -0.3862  0.4829  0.0414
  342MOL    C9448516   3.425   5.455   3.014  0.6047  0.7068  0.1310
  342MOL    C9548517   3.427   5.519   3.148 -0.6296  0.6941 -0.5017
  342MOL    N9648518   3.434   5.566   3.252  0.2825  0.2955  0.1286
  342MOL    H9748519   3.546   5.566   2.879 -0.3245  1.1527  1.3695
  342MOL    H9848520   3.534   5.399   2.843 -2.1321 -0.6722  1.1760
  342MOL    H9948521   3.424   5.349   3.038  0.9318  0.5362 -0.5914
  342MOL   C10048522   3.297   5.487   2.940 -0.1509  0.4665 -0.3372
  342MOL   C10148523   3.163   5.426   2.994 -0.5807 -0.7211  0.0969
  342MOL   C10248524   3.125   5.503   3.116 -0.5202  0.0909 -0.1932
  342MOL   N10348525   3.093   5.568   3.207 -0.4504 -0.0965 -1.0270
  342MOL   H10448526   3.296   5.594   2.920  2.0069  0.0973 -2.6619
  342MOL   H10548527   3.310   5.444   2.841  0.7932  0.2232 -0.1086
  342MOL   H10648528   3.181   5.323   3.025  0.8044 -0.4558  0.1895
  342MOL   C10748529   3.054   5.420   2.889  0.0745  0.2686  0.0424
  342MOL   C10848530   2.953   5.540   2.894  0.1549  0.3580 -0.2869
  342MOL   C10948531   3.022   5.670   2.870  0.3488 -0.0279 -0.6825
  342MOL   N11048532   3.072   5.773   2.859  0.2320  0.6526  0.2776
  342MOL   H11148533   3.111   5.412   2.797  1.1711 -0.1534  0.7483
  342MOL   H11248534   3.000   5.328   2.913  0.6418  0.1959  1.0790
  342MOL   H11348535   2.918   5.548   2.997  3.3801 -0.1352  0.9162
  342MOL   C11448536   2.833   5.515   2.798  0.1947  0.3615  0.2400
  342MOL   C11548537   2.742   5.631   2.786 -0.6040 -0.0498 -0.3638
  342MOL   C11648538   2.663   5.615   2.662  0.5251  0.0154 -0.0669
  342MOL   N11748539   2.602   5.596   2.564  0.8258  0.3059 -0.4241
  342MOL   H11848540   2.883   5.495   2.703  1.5260 -0.5474  1.1198
  342MOL   H11948541   2.785   5.420   2.819  2.4597 -0.5841  1.2197
  342MOL   H12048542   2.804   5.721   2.787 -1.0516  0.2618  0.2750
  342MOL   C12148543   2.648   5.644   2.901 -0.3503  0.6937  0.0654
  342MOL   C12248544   2.571   5.780   2.919 -0.3704 -0.4145  0.2128
  342MOL   C12348545   2.439   5.763   2.976 -0.2786 -0.0811  0.2286
  342MOL   N12448546   2.333   5.755   3.016  0.3952 -0.4166 -0.5582
  342MOL   H12548547   2.568   5.572   2.884  0.2100  0.6898 -2.7767
  342MOL   H12648548   2.703   5.606   2.988  0.9011  0.5065 -0.7816
  342MOL   H12748549   2.559   5.818   2.818 -2.2487  0.1943  0.6433
  342MOL   C12848550   2.666   5.869   2.996  0.5116  0.1738  0.1517
  342MOL   C12948551   2.616   6.017   3.024 -0.7309  0.0221 -0.5113
  342MOL   C13048552   2.521   6.024   3.139  0.4121 -0.1278 -0.2355
  342MOL   N13148553   2.445   6.031   3.227  0.5062  0.8397 -0.1586
  342MOL   H13248554   2.689   5.828   3.094  0.9882  0.9682  0.3802
  342MOL   H13348555   2.760   5.887   2.944  0.5757 -1.6082 -0.3729
  342MOL   H13448556   2.560   6.038   2.933 -0.6257 -1.2581 -0.8692
  342MOL   C13548557   2.730   6.113   3.051 -0.4134  0.2701  0.2209
  342MOL   C13648558   2.696   6.265   3.059  0.1175 -0.8523  0.6462
  342MOL   C13748559   2.644   6.306   3.191  0.2370  1.5846 -0.1376
  342MOL   N13848560   2.605   6.331   3.299  0.1224 -0.2553  0.2220
  342MOL   H13948561   2.776   6.082   3.144 -0.3418  2.1844  0.8443
  342MOL   H14048562   2.811   6.097   2.980 -0.9279 -0.7748 -0.1549
  342MOL   H14148563   2.641   6.297   2.970  3.0264  1.3454 -0.4399
  342MOL   H14248564   2.794   6.314   3.051 -0.9721  1.1565 -0.9662
  343MOL     C148565   0.500   4.015   7.616  0.2364 -0.6875 -0.7559
  343MOL     C248566   0.433   3.975   7.744  0.3349 -0.0170 -0.4192
  343MOL     C348567   0.373   4.098   7.805 -0.0356 -0.5192  0.4277
  343MOL     N448568   0.328   4.198   7.843 -0.2140 -0.3149  0.3647
  343MOL     H548569   0.561   3.939   7.569  0.5233 -1.2042  0.4228
  343MOL     H648570   0.575   4.091   7.636 -0.8524  0.8004 -2.2045
  343MOL     H748571   0.510   3.952   7.818  0.9731  2.9447 -0.1172
  343MOL     H848572   0.440   4.056   7.535  0.0001  1.1054  0.2866
  343MOL     C948573   0.326   3.858   7.736  0.3985 -0.2852 -0.3497
  343MOL    C1048574   0.377   3.734   7.664 -0.4538  0.1108 -0.0423
  343MOL    C1148575   0.465   3.659   7.749  0.4006  0.2436 -0.2057
  343MOL    N1248576   0.532   3.604   7.818 -0.0041  0.6603  0.2159
  343MOL    H1348577   0.304   3.826   7.838 -0.6453  0.9728 -0.1707
  343MOL    H1448578   0.232   3.895   7.695  1.6695  1.5167 -1.7167
  343MOL    H1548579   0.444   3.766   7.585  1.4730 -0.0403  1.5049
  343MOL    C1648580   0.264   3.640   7.611 -0.3298 -0.2322  0.0964
  343MOL    C1748581   0.170   3.696   7.508  0.0904 -0.0976  0.3477
  343MOL    C1848582   0.243   3.712   7.380 -0.2425  0.8535 -0.1900
  343MOL    N1948583   0.302   3.716   7.279 -0.3357  0.2171 -0.3386
  343MOL    H2048584   0.311   3.547   7.578  0.7465  0.0678  0.7620
  343MOL    H2148585   0.207   3.615   7.700 -0.1694 -2.6084 -0.4288
  343MOL    H2248586   0.136   3.795   7.536 -1.7654 -0.4859 -0.4680
  343MOL    C2348587   0.056   3.597   7.478 -0.3899  0.5160 -0.3880
  343MOL    C2448588   8.293   3.619   7.335  0.2318 -0.3706  0.0348
  343MOL    C2548589   8.172   3.547   7.310 -0.4346  0.0657  0.2418
  343MOL    N2648590   8.069   3.491   7.293  0.9840  0.2728  0.3653
  343MOL    H2748591   0.096   3.495   7.479 -0.1295  0.5391 -3.7514
  343MOL    H2848592   8.299   3.599   7.562  1.4979 -1.1578  1.2832
  343MOL    H2948593   0.054   3.594   7.258  2.1452  0.7374  1.4339
  343MOL    C3048594   8.253   3.766   7.320 -0.0415 -0.4128 -0.9909
  343MOL    C3148595   8.193   3.803   7.179  0.8965 -0.1751 -0.1200
  343MOL    C3248596   8.140   3.947   7.182  0.1637  0.1842 -0.5188
  343MOL    N3348597   8.099   4.057   7.180 -0.4716  0.0473 -0.3300
  343MOL    H3448598   8.180   3.797   7.395  1.2468  0.0265  0.0856
  343MOL    H3548599   0.021   3.838   7.332 -0.5805 -0.1006  0.9122
  343MOL    H3648600   8.109   3.739   7.154 -1.0723  2.1063  0.4043
  343MOL    C3748601   8.303   3.802   7.075 -0.3163 -0.3123  0.0428
  343MOL    C3848602   8.253   3.786   6.927  0.4900  0.7591 -0.4318
  343MOL    C3948603   8.172   3.665   6.919 -0.1697  0.4135 -0.2262
  343MOL    N4048604   8.106   3.566   6.921 -0.4828 -0.2642 -0.1397
  343MOL    H4148605   0.033   3.902   7.067 -2.3957  0.3677 -3.0639
  343MOL    H4248606   0.067   3.727   7.097  1.2983  0.7085 -1.9683
  343MOL    H4348607   0.036   3.759   6.881  0.8181  0.5380  0.3676
  343MOL    C4448608   8.204   3.903   6.843  0.1859 -0.5626  0.2844
  343MOL    C4548609   8.181   3.872   6.694  0.1366 -0.0402 -0.3518
  343MOL    C4648610   8.293   3.793   6.647 -0.0715  0.0507  0.0635
  343MOL    N4748611   0.068   3.732   6.613 -0.1565  0.3687 -0.1309
  343MOL    H4848612   8.120   3.954   6.891 -0.6073 -1.6830  0.0963
  343MOL    H4948613   8.295   3.964   6.840 -1.2035  1.4863 -1.1133
  343MOL    H5048614   8.179   3.970   6.645  2.1442  0.3223  0.2499
  343MOL    C5148615   8.046   3.810   6.665  0.6927 -0.3448  0.4757
  343MOL    C5248616   7.995   3.811   6.515 -0.2383 -0.2433 -0.7585
  343MOL    C5348617   8.084   3.773   6.411  0.5116  0.4298  0.4836
  343MOL    N5448618   8.149   3.744   6.321 -0.0946 -0.8499  0.2053
  343MOL    H5548619   8.060   3.706   6.692  1.2937 -0.3456  0.1604
  343MOL    H5648620   7.970   3.859   6.727  1.0164  0.0479  0.5680
  343MOL    H5748621   7.976   3.917   6.497 -2.8515 -0.3344  1.0298
  343MOL    C5848622   7.858   3.736   6.491  0.0843 -0.2156 -0.0089
  343MOL    C5948623   7.807   3.731   6.347 -0.4142 -0.6792 -0.2845
  343MOL    C6048624   7.704   3.622   6.331 -0.2778 -0.0428 -0.0371
  343MOL    N6148625   7.628   3.539   6.326 -0.1260 -0.2230 -0.5749
  343MOL    H6248626   7.885   3.630   6.502  0.0810 -0.3364 -1.1112
  343MOL    H6348627   7.784   3.773   6.561  0.2375  1.9505 -0.9727
  343MOL    H6448628   7.888   3.698   6.281 -0.6814 -1.8001 -0.0696
  343MOL    C6548629   7.750   3.864   6.308 -0.0751 -0.0717  0.3241
  343MOL    C6648630   7.669   3.868   6.176  0.2819 -0.3392 -0.5362
  343MOL    C6748631   7.603   4.004   6.170  0.1147 -0.5964 -0.4693
  343MOL    N6848632   7.544   4.103   6.171  0.7935  0.0764  0.1195
  343MOL    H6948633   7.680   3.881   6.390 -0.5268 -0.4674  0.0227
  343MOL    H7048634   7.826   3.942   6.304  0.0166 -0.0347  2.4127
  343MOL    H7148635   7.595   3.788   6.184  0.2404 -0.1197  1.5700
  343MOL    C7248636   7.764   3.842   6.055 -0.6181 -0.6332 -0.8794
  343MOL    C7348637   7.696   3.838   5.921 -0.1295 -0.1724  0.4099
  343MOL    C7448638   7.661   3.972   5.870  0.8338  0.5965 -0.2189
  343MOL    N7548639   7.629   4.077   5.832  0.2444 -0.5259 -0.4977
  343MOL    H7648640   7.843   3.917   6.050 -1.3702  0.2480  0.1307
  343MOL    H7748641   7.808   3.745   6.077  2.1454  0.3339 -1.8429
  343MOL    H7848642   7.600   3.787   5.926 -0.3515  0.2384  0.3801
  343MOL    C7948643   7.780   3.759   5.810 -1.0766  0.0023  0.3795
  343MOL    C8048644   7.731   3.765   5.667 -0.1936 -0.3921  0.0072
  343MOL    C8148645   7.825   3.696   5.577 -1.4481 -0.9837  0.5963
  343MOL    N8248646   7.896   3.639   5.505 -0.3955 -0.1123 -0.4157
  343MOL    H8348647   7.883   3.792   5.825 -1.7437  1.8270  1.0325
  343MOL    H8448648   7.785   3.653   5.836  0.7254  0.0405  0.2979
  343MOL    H8548649   7.745   3.872   5.647 -1.9344 -0.0356  0.5456
  343MOL    C8648650   7.586   3.719   5.643 -0.2424  0.5008 -0.2642
  343MOL    C8748651   7.548   3.734   5.492  0.3576 -0.1781 -0.8732
  343MOL    C8848652   7.588   3.620   5.411  0.4769  0.3304  0.1710
  343MOL    N8948653   7.628   3.536   5.350  0.1836 -0.3977  0.2171
  343MOL    H9048654   7.574   3.612   5.662  0.8440  0.3190 -0.5730
  343MOL    H9148655   7.520   3.779   5.705 -1.2098 -0.4492 -0.3569
  343MOL    H9248656   7.603   3.818   5.450  0.4687 -0.5399 -1.4568
  343MOL    C9348657   7.404   3.769   5.472  0.2267 -0.0543 -0.3394
  343MOL    C9448658   7.364   3.802   5.331  0.4518  0.7732  0.4644
  343MOL    C9548659   7.218   3.816   5.324 -0.2797  0.0771 -0.5721
  343MOL    N9648660   7.100   3.834   5.325 -1.0423  0.1559 -0.3852
  343MOL    H9748661   7.343   3.682   5.498 -2.4025  2.5150  2.4411
  343MOL    H9848662   7.364   3.846   5.538  0.3702 -0.6752  0.4795
  343MOL    H9948663   7.390   3.720   5.264  0.4360 -1.3124  2.9236
  343MOL   C10048664   7.437   3.932   5.295  0.0893  0.0105 -0.7362
  343MOL   C10148665   7.411   3.993   5.155 -0.3506 -0.0201 -0.3711
  343MOL   C10248666   7.277   4.031   5.116  0.2031  0.6662  0.8895
  343MOL   N10348667   7.170   4.062   5.086  0.3149  0.0100  0.8041
  343MOL   H10448668   7.400   4.003   5.369 -0.9016 -1.2191 -0.0441
  343MOL   H10548669   7.546   3.929   5.292  0.1863  2.2650 -0.7733
  343MOL   H10648670   7.448   3.924   5.080  1.5220 -2.8640  2.9847
  343MOL   C10748671   7.509   4.111   5.146  0.8138 -0.5050  0.4547
  343MOL   C10848672   7.487   4.198   5.022  0.3243  0.1849 -0.0046
  343MOL   C10948673   7.583   4.310   5.032 -0.0254  0.0856 -0.4871
  343MOL   N11048674   7.659   4.395   5.043  0.9641  0.1845 -0.4499
  343MOL   H11148675   7.484   4.172   5.233 -1.8232 -1.6590  0.5359
  343MOL   H11248676   7.612   4.075   5.154  1.3541  0.8004 -0.3308
  343MOL   H11348677   7.388   4.243   5.029  0.3344  0.1445  0.4063
  343MOL   C11448678   7.498   4.104   4.893  0.4388  0.2069  0.7100
  343MOL   C11548679   7.482   4.180   4.761 -0.1327 -0.6130 -0.0407
  343MOL   C11648680   7.605   4.258   4.726 -0.3327 -0.0935  0.4037
  343MOL   N11748681   7.705   4.314   4.699  0.4665 -0.4561 -0.2196
  343MOL   H11848682   7.598   4.062   4.888  0.5668  0.6463 -0.4018
  343MOL   H11948683   7.428   4.020   4.893  0.5876  0.0529 -1.7237
  343MOL   H12048684   7.408   4.259   4.769 -0.0424 -0.5647  0.3236
  343MOL   C12148685   7.433   4.093   4.646  0.4436  0.6522 -0.6387
  343MOL   C12248686   7.397   4.178   4.516  0.0515  0.0151  1.0117
  343MOL   C12348687   7.506   4.224   4.434  0.2384  0.1347 -0.3362
  343MOL   N12448688   7.598   4.260   4.372  0.4692  0.4596  0.5324
  343MOL   H12548689   7.501   4.013   4.618  0.8757  1.4530 -1.9003
  343MOL   H12648690   7.338   4.047   4.673 -0.5588  2.0545 -1.6935
  343MOL   H12748691   7.354   4.273   4.549 -1.2451 -0.2210  0.0564
  343MOL   C12848692   7.297   4.088   4.435 -0.9648  0.1992 -0.2133
  343MOL   C12948693   7.250   4.152   4.304 -0.2659 -0.2811  0.0831
  343MOL   C13048694   7.356   4.138   4.198  0.0121  0.4350 -0.6698
  343MOL   N13148695   7.434   4.132   4.114  0.4762 -0.4237  0.2309
  343MOL   H13248696   7.340   3.992   4.406  0.1522  0.5889  0.1293
  343MOL   H13348697   7.208   4.076   4.497 -0.4552  0.8103  0.6451
  343MOL   H13448698   7.236   4.257   4.330  0.7456 -0.0037 -0.4674
  343MOL   C13548699   7.118   4.104   4.246 -0.1334 -0.3137  0.2389
  343MOL   C13648700   7.060   4.192   4.137  0.0447  0.0178 -0.1839
  343MOL   C13748701   6.948   4.124   4.078  0.0304  0.1423 -0.8111
  343MOL   N13848702   6.858   4.068   4.030 -0.4325 -0.8281 -0.0647
  343MOL   H13948703   7.134   4.005   4.203 -0.6356 -0.6120  0.7336
  343MOL   H14048704   7.046   4.082   4.325 -0.1810 -0.5977  0.1158
  343MOL   H14148705   7.126   4.198   4.050  0.3819  0.8952  0.1243
  343MOL   H14248706   7.032   4.289   4.179 -2.4108 -0.3276 -0.9684
  344MOL     C148707   6.364   0.267   3.947  0.2484 -0.0448 -0.2572
  344MOL     C248708   6.499   0.185   3.974  0.0347  0.1417 -0.2659
  344MOL     C348709   6.591   0.274   4.041  0.1731 -0.0749 -0.5453
  344MOL     N448710   6.666   0.336   4.099 -0.0534  0.4342  0.8895
  344MOL     H548711   6.388   0.352   3.883  2.1313  1.0058  1.7937
  344MOL     H648712   6.321   0.320   4.032 -0.8827 -2.6343  0.8268
  344MOL     H748713   6.523   0.159   3.871 -0.6248 -1.6733  0.0240
  344MOL     H848714   6.285   0.214   3.894  0.6759 -0.2859 -0.6627
  344MOL     C948715   6.465   0.050   4.054 -0.4410 -0.0728  0.5351
  344MOL    C1048716   6.594   8.275   4.063  0.3727 -0.3275  0.3793
  344MOL    C1148717   6.609   8.218   4.199 -0.1612  0.2137 -0.4143
  344MOL    N1248718   6.617   8.174   4.305 -0.5390 -0.3408 -0.0459
  344MOL    H1348719   6.434   0.073   4.156  0.3082  1.5343  0.4268
  344MOL    H1448720   6.389   8.305   4.002 -2.0761  2.2010  0.3018
  344MOL    H1548721   6.677   0.032   4.050  1.7840 -2.0471  0.1386
  344MOL    C1648722   6.609   8.176   3.946 -0.0243  0.1652 -0.2535
  344MOL    C1748723   6.736   8.093   3.943  0.8613  0.2751  0.2825
  344MOL    C1848724   6.728   7.978   3.847 -0.4746  0.0807 -0.1722
  344MOL    N1948725   6.721   7.896   3.766  0.5861  0.3918  0.4333
  344MOL    H2048726   6.532   8.104   3.974  1.2186 -1.2760 -0.4589
  344MOL    H2148727   6.595   8.225   3.850  2.1914 -0.0311 -0.7040
  344MOL    H2248728   6.749   8.048   4.041 -1.6483  2.3168  1.6206
  344MOL    C2348729   6.853   8.183   3.912 -0.4172  0.3895 -0.3174
  344MOL    C2448730   6.991   8.102   3.894  0.1218 -0.6360 -0.3881
  344MOL    C2548731   7.026   8.085   3.755 -0.0377  0.5572  0.3644
  344MOL    N2648732   7.061   8.079   3.643 -0.2429 -0.7942 -0.2597
  344MOL    H2748733   6.831   8.231   3.817  0.2376  1.4972  0.0898
  344MOL    H2848734   6.859   8.252   3.996  0.7965 -0.2252  0.1255
  344MOL    H2948735   6.980   8.008   3.947  0.2128 -2.4161 -3.4429
  344MOL    C3048736   7.105   8.180   3.956 -0.3080  0.2437  0.5245
  344MOL    C3148737   7.238   8.097   3.970 -0.9564  0.6591 -0.9856
  344MOL    C3248738   7.355   8.176   3.926  0.0468 -0.0975 -0.1802
  344MOL    N3348739   7.445   8.237   3.889  0.1288  0.2622  0.0443
  344MOL    H3448740   7.117   8.265   3.890  0.9991 -0.3421 -0.0205
  344MOL    H3548741   7.075   8.230   4.048 -2.0028 -0.2773  0.2685
  344MOL    H3648742   7.231   8.013   3.902  0.4881  0.5765 -1.0530
  344MOL    C3748743   7.272   8.048   4.111  0.1065  0.1810 -0.7260
  344MOL    C3848744   7.164   7.975   4.190  0.3022 -0.1044  0.3016
  344MOL    C3948745   7.044   8.044   4.219  0.7548 -0.0703  0.2892
  344MOL    N4048746   6.949   8.099   4.232 -0.1335  0.7488  0.0253
  344MOL    H4148747   7.369   7.999   4.110  0.2288  0.3583  1.0555
  344MOL    H4248748   7.303   8.132   4.172  1.7701  1.3688 -3.1166
  344MOL    H4348749   7.204   7.965   4.291  0.4533 -2.3770  0.0439
  344MOL    C4448750   7.135   7.824   4.159  0.8731  0.5709  0.0673
  344MOL    C4548751   7.245   7.723   4.138  0.0338 -0.1061 -0.4220
  344MOL    C4648752   7.321   7.704   4.263 -0.0952 -0.3075  0.7423
  344MOL    N4748753   7.376   7.695   4.366  0.0089  0.6493  0.1253
  344MOL    H4848754   7.060   7.795   4.232 -0.9497  1.2681 -1.4811
  344MOL    H4948755   7.092   7.824   4.059 -1.5017  2.3651  1.0619
  344MOL    H5048756   7.325   7.761   4.073  0.5982 -3.1948 -1.6429
  344MOL    C5148757   7.217   7.593   4.071  0.6285  0.3673 -0.3948
  344MOL    C5248758   7.134   7.500   4.167  0.0368  0.1644  0.5138
  344MOL    C5348759   7.032   7.428   4.089 -0.0314  0.1624  0.0266
  344MOL    N5448760   6.957   7.372   4.024  0.4090 -0.6287  0.4698
  344MOL    H5548761   7.151   7.604   3.985 -1.3693  3.3226  1.4206
  344MOL    H5648762   7.303   7.532   4.041  0.3163 -0.6705  0.7728
  344MOL    H5748763   7.080   7.563   4.237  0.3872 -1.2840  2.1143
  344MOL    C5848764   7.211   7.398   4.261 -0.0409 -0.2267 -0.4738
  344MOL    C5948765   7.140   7.358   4.392  0.2226  0.2243 -0.1858
  344MOL    C6048766   6.991   7.360   4.376  0.6920  0.1324  0.1754
  344MOL    N6148767   6.876   7.360   4.362  0.5391  0.1583 -0.3862
  344MOL    H6248768   7.226   7.306   4.205  0.5776 -0.0251 -0.6421
  344MOL    H6348769   7.310   7.429   4.295 -0.9282  0.7186  1.3095
  344MOL    H6448770   7.148   7.446   4.456  0.7683  0.1349 -0.1239
  344MOL    C6548771   7.211   7.242   4.471  0.4717  0.0519  0.4906
  344MOL    C6648772   7.260   7.286   4.613 -0.1531  0.1972  0.6634
  344MOL    C6748773   7.287   7.179   4.709 -1.0064 -0.5327 -0.4455
  344MOL    N6848774   7.311   7.102   4.794 -0.1413  0.7173 -0.5253
  344MOL    H6948775   7.144   7.157   4.463 -0.7288  1.0395  0.0483
  344MOL    H7048776   7.302   7.216   4.417 -1.3432 -0.3599 -2.4765
  344MOL    H7148777   7.178   7.332   4.667  0.0020  0.7672  0.4156
  344MOL    C7248778   7.372   7.394   4.614  0.2868 -0.2760  0.8862
  344MOL    C7348779   7.341   7.522   4.690 -0.1222 -0.1609  0.3231
  344MOL    C7448780   7.291   7.491   4.824  0.0104  0.4997  0.2322
  344MOL    N7548781   7.255   7.470   4.928  0.0338  0.1831  0.1748
  344MOL    H7648782   7.449   7.339   4.669  0.3517 -0.8330  0.2465
  344MOL    H7748783   7.399   7.419   4.511 -0.7755 -0.8114  0.4818
  344MOL    H7848784   7.264   7.574   4.634 -0.1430 -0.6398 -0.0910
  344MOL    C7948785   7.472   7.611   4.697  1.1221  0.5584  0.4536
  344MOL    C8048786   7.442   7.759   4.738 -0.0048 -0.2044 -0.0970
  344MOL    C8148787   7.374   7.777   4.866 -0.5088 -0.0764 -0.1288
  344MOL    N8248788   7.324   7.793   4.970 -0.0556  0.2041 -0.5435
  344MOL    H8348789   7.538   7.564   4.770 -0.2897 -0.0616  1.3521
  344MOL    H8448790   7.523   7.614   4.601 -0.2562  0.7070 -0.2934
  344MOL    H8548791   7.368   7.792   4.666  1.2642  1.5237 -0.6376
  344MOL    C8648792   7.556   7.852   4.718  0.6534 -0.2797  0.3953
  344MOL    C8748793   7.514   8.001   4.731  0.6444 -0.3612  0.6956
  344MOL    C8848794   7.625   8.086   4.768  0.6873  0.3360  0.2953
  344MOL    N8948795   7.714   8.155   4.797 -0.3759 -0.4114 -0.5432
  344MOL    H9048796   7.621   7.831   4.803  1.3363 -1.0911 -0.3109
  344MOL    H9148797   7.613   7.842   4.626 -1.1716  1.4877 -0.9736
  344MOL    H9248798   7.440   8.028   4.806  1.7979  0.6260  1.5069
  344MOL    C9348799   7.459   8.057   4.599  0.6293 -0.0371 -0.2527
  344MOL    C9448800   7.414   8.203   4.606 -0.5749  0.0132 -0.2364
  344MOL    C9548801   7.521   8.297   4.568 -0.0606  0.3453 -0.2431
  344MOL    N9648802   7.595   0.058   4.531 -0.5777 -0.1376 -0.1998
  344MOL    H9748803   7.531   8.047   4.518  0.1972 -0.9065 -0.5336
  344MOL    H9848804   7.375   7.990   4.581 -0.7284  1.6588 -0.3565
  344MOL    H9948805   7.402   8.234   4.710 -2.3134 -1.9479  0.1749
  344MOL   C10048806   7.286   8.223   4.520  0.5203  0.2010  0.3959
  344MOL   C10148807   7.216   0.039   4.548  0.2754 -0.2479 -0.6989
  344MOL   C10248808   7.287   0.157   4.507 -0.4889 -0.1313  0.6487
  344MOL   N10348809   7.349   0.249   4.475 -0.1423  0.5139  0.0093
  344MOL   H10448810   7.317   8.225   4.416  0.9339 -1.1560  0.4821
  344MOL   H10548811   7.218   8.144   4.553 -0.0644  0.1402 -0.9403
  344MOL   H10648812   7.215   0.034   4.657  0.7992 -0.7325 -0.7099
  344MOL   C10748813   7.074   0.040   4.471 -0.3458  0.2304  0.1380
  344MOL   C10848814   6.971   0.142   4.513  0.1640  0.0858  0.6167
  344MOL   C10948815   7.003   0.277   4.463  0.5935  0.4818 -0.6292
  344MOL   N11048816   7.023   0.383   4.424 -0.2110 -0.0491  0.3353
  344MOL   H11148817   7.082   0.038   4.362 -3.2159 -0.2335 -0.1023
  344MOL   H11248818   7.030   8.254   4.488 -0.9092  0.6150  0.9455
  344MOL   H11348819   6.968   0.140   4.622 -2.2196 -0.3950  0.5822
  344MOL   C11448820   6.825   0.119   4.456 -0.3107  0.3814  0.2775
  344MOL   C11548821   6.722   0.218   4.513  0.0973 -0.1399  0.3614
  344MOL   C11648822   6.599   0.185   4.441  0.5794  0.3192  0.2602
  344MOL   N11748823   6.502   0.166   4.391 -0.2994  0.2577  0.3188
  344MOL   H11848824   6.836   0.142   4.350  1.7558 -0.6747  0.2391
  344MOL   H11948825   6.785   0.018   4.465  0.5428  0.0582  0.5098
  344MOL   H12048826   6.743   0.322   4.489  0.0734 -0.2018  0.0761
  344MOL   C12148827   6.700   0.203   4.659  0.9088  0.0409  0.4961
  344MOL   C12248828   6.568   0.280   4.696  0.1676 -0.5621 -0.6574
  344MOL   C12348829   6.533   0.252   4.836  0.4232  0.1748  0.1162
  344MOL   N12448830   6.507   0.238   4.950  0.2105 -0.0540  0.4628
  344MOL   H12548831   6.697   0.100   4.696  0.4813 -0.2752 -0.3976
  344MOL   H12648832   6.785   0.248   4.710  0.4278  1.6199 -0.0833
  344MOL   H12748833   6.487   0.251   4.629  0.2804 -0.8727 -0.6584
  344MOL   C12848834   6.578   0.434   4.683 -0.6308 -0.2277  0.5996
  344MOL   C12948835   6.451   0.516   4.712 -0.2673 -0.7234 -0.2039
  344MOL   C13048836   6.486   0.654   4.677  0.6064  0.7507 -0.0479
  344MOL   N13148837   6.512   0.762   4.650 -0.2957  0.6624 -0.8220
  344MOL   H13248838   6.661   0.463   4.748  0.9594 -0.2652 -1.3757
  344MOL   H13348839   6.608   0.461   4.582 -0.1078 -1.1132  0.5111
  344MOL   H13448840   6.440   0.522   4.820  0.5639  1.5394 -0.2121
  344MOL   C13548841   6.330   0.460   4.641  0.7952 -1.1157 -0.5294
  344MOL   C13648842   6.205   0.546   4.634 -0.1636  0.4077 -0.6095
  344MOL   C13748843   6.151   0.574   4.764  0.7287 -0.2618 -0.1162
  344MOL   N13848844   6.109   0.595   4.872  0.4059 -0.0244  0.7740
  344MOL   H13948845   6.362   0.450   4.537  1.2428 -0.8735 -0.4158
  344MOL   H14048846   6.302   0.363   4.682 -3.1889  0.3973  0.5633
  344MOL   H14148847   6.129   0.491   4.578 -0.0037  0.0864 -0.5119
  344MOL   H14248848   6.229   0.644   4.591  1.6321  1.3892  2.4373
  345MOL     C148849   5.159   1.716   4.936  0.1050 -0.5918  1.0690
  345MOL     C248850   5.111   1.620   5.046  0.3356 -0.0593 -0.1493
  345MOL     C348851   5.000   1.670   5.131  0.0892  0.3596 -0.1309
  345MOL     N448852   4.919   1.703   5.204 -0.0572 -0.0564 -0.2452
  345MOL     H548853   5.208   1.666   4.852  0.1042  0.9537  0.1220
  345MOL     H648854   5.221   1.795   4.977  0.8591 -1.5710  1.8235
  345MOL     H748855   5.190   1.604   5.119  0.3184  2.4242  0.4856
  345MOL     H848856   5.069   1.764   4.896  2.3174  2.3648 -0.6266
  345MOL     C948857   5.074   1.481   4.984  0.3162 -0.3844 -0.7073
  345MOL    C1048858   4.956   1.475   4.887  0.6833 -0.3210  0.5656
  345MOL    C1148859   4.972   1.351   4.818 -0.2365  0.3277 -0.1072
  345MOL    N1248860   4.979   1.247   4.764 -0.1744 -0.2462  0.0935
  345MOL    H1348861   5.170   1.456   4.939 -1.0560 -0.8913 -3.4634
  345MOL    H1448862   5.052   1.420   5.072  0.2606  2.3835  1.2677
  345MOL    H1548863   4.981   1.548   4.811  3.1851  0.0441  1.6683
  345MOL    C1648864   4.826   1.494   4.955  0.1054  0.0815  0.2762
  345MOL    C1748865   4.710   1.461   4.861 -0.4999  0.3682 -0.3841
  345MOL    C1848866   4.598   1.453   4.952  0.7297 -0.8722 -0.6562
  345MOL    N1948867   4.502   1.446   5.018 -0.8048  0.0006  0.0599
  345MOL    H2048868   4.817   1.422   5.036  0.7599 -2.6020 -1.9447
  345MOL    H2148869   4.808   1.592   4.999  0.4683  0.2111  0.1387
  345MOL    H2248870   4.734   1.371   4.804 -3.5001 -1.1829  0.6542
  345MOL    C2348871   4.688   1.567   4.754 -0.6995  1.1726 -0.0217
  345MOL    C2448872   4.562   1.541   4.668  0.4392  0.4997 -0.0287
  345MOL    C2548873   4.543   1.404   4.616 -0.3117 -0.7578  0.3833
  345MOL    N2648874   4.539   1.299   4.570  0.1459  0.0930  0.1042
  345MOL    H2748875   4.689   1.671   4.786 -4.0524  1.2364 -0.0087
  345MOL    H2848876   4.768   1.560   4.680 -0.0454  2.1187  0.5857
  345MOL    H2948877   4.577   1.602   4.579  0.5339  0.9798  0.3141
  345MOL    C3048878   4.426   1.586   4.725  0.4786 -0.8170 -0.0358
  345MOL    C3148879   4.425   1.742   4.754  0.2054  0.3581  0.0590
  345MOL    C3248880   4.466   1.816   4.630  0.2667 -0.1890 -0.7636
  345MOL    N3348881   4.495   1.871   4.534 -0.8244  0.1549  0.0455
  345MOL    H3448882   4.350   1.564   4.650 -1.8399 -0.9510  2.3076
  345MOL    H3548883   4.402   1.527   4.813 -0.0421  1.2971  1.2536
  345MOL    H3648884   4.498   1.757   4.833  0.3254 -0.3384  0.0842
  345MOL    C3748885   4.294   1.793   4.815 -0.3098 -0.4053  1.3125
  345MOL    C3848886   4.295   1.897   4.932  1.0616  0.8026 -0.2212
  345MOL    C3948887   4.341   2.021   4.879  0.4036 -0.2183  0.3745
  345MOL    N4048888   4.379   2.122   4.844 -0.1323  0.0319  0.0415
  345MOL    H4148889   4.235   1.825   4.729  1.8559 -0.4097 -0.2017
  345MOL    H4248890   4.260   1.697   4.853  0.8544 -0.7451  1.4808
  345MOL    H4348891   4.371   1.879   5.007 -0.5636 -2.9653  0.5883
  345MOL    C4448892   4.159   1.910   5.006 -0.5202 -0.5585  0.9070
  345MOL    C4548893   4.150   2.027   5.105 -1.0328 -0.4025 -0.1866
  345MOL    C4648894   4.130   2.160   5.043 -0.6837  0.4088 -0.4917
  345MOL    N4748895   4.110   2.263   4.994 -0.0802 -0.1876 -0.1492
  345MOL    H4848896   4.085   1.934   4.930  0.5963  0.9477  0.2822
  345MOL    H4948897   4.132   1.815   5.053  1.0173 -1.8474 -0.7247
  345MOL    H5048898   4.243   2.040   5.161 -0.5263 -0.0628 -1.1002
  345MOL    C5148899   4.049   1.989   5.208  0.0896  0.1150 -0.2968
  345MOL    C5248900   4.065   2.056   5.348 -0.2839  0.6464  0.7463
  345MOL    C5348901   4.074   2.199   5.336 -0.1127 -0.3083  0.2354
  345MOL    N5448902   4.085   2.314   5.331 -0.3795 -0.3391  0.4133
  345MOL    H5548903   3.952   2.017   5.168 -0.1162  1.5111  1.1202
  345MOL    H5648904   4.045   1.883   5.232  2.4382 -0.0928 -0.6979
  345MOL    H5748905   4.160   2.031   5.395  1.1068  0.4072 -2.0841
  345MOL    C5848906   3.954   2.026   5.450  0.0899  0.2829  0.0271
  345MOL    C5948907   3.933   1.877   5.485  0.1701  0.3386  0.6764
  345MOL    C6048908   4.058   1.818   5.538  0.2921 -0.7987 -0.6769
  345MOL    N6148909   4.155   1.773   5.579  0.5732 -0.0206  0.6192
  345MOL    H6248910   3.984   2.069   5.545 -1.4889  1.7342 -0.1082
  345MOL    H6348911   3.864   2.081   5.423  0.5255  1.0470  0.1175
  345MOL    H6448912   3.908   1.825   5.393  0.8394 -2.0330  1.7804
  345MOL    C6548913   3.808   1.880   5.577  0.1600  0.5776 -0.2141
  345MOL    C6648914   3.769   1.748   5.642 -0.2637  0.5650  0.3204
  345MOL    C6748915   3.785   1.639   5.540 -0.2591  0.5820 -0.1903
  345MOL    N6848916   3.802   1.561   5.456  0.4064 -0.1037 -0.3376
  345MOL    H6948917   3.816   1.956   5.654 -2.4174  1.1944 -0.5253
  345MOL    H7048918   3.720   1.909   5.521 -1.1544 -1.3580  0.7738
  345MOL    H7148919   3.666   1.730   5.673  0.3011 -0.6318  1.5875
  345MOL    C7248920   3.873   1.712   5.751 -0.4485  0.0031  0.4702
  345MOL    C7348921   3.808   1.633   5.867 -0.2808 -0.3559 -0.8193
  345MOL    C7448922   3.693   1.549   5.833 -0.9380  0.2067 -0.3830
  345MOL    N7548923   3.603   1.486   5.793  0.1814  0.6205 -0.1644
  345MOL    H7648924   3.956   1.660   5.704  1.0569  1.6351  1.2689
  345MOL    H7748925   3.930   1.789   5.802  0.4507 -1.2860  1.4405
  345MOL    H7848926   3.759   1.713   5.923 -0.5977 -0.6184 -0.7203
  345MOL    C7948927   3.921   1.569   5.955  0.8371  0.1350 -0.5521
  345MOL    C8048928   4.005   1.460   5.880 -0.5376  0.2445 -0.1940
  345MOL    C8148929   4.135   1.446   5.946  0.1233  0.2095 -0.4857
  345MOL    N8248930   4.239   1.433   5.997 -0.2941 -0.1641  0.7483
  345MOL    H8348931   3.995   1.643   5.986 -0.5612  0.6452  1.6843
  345MOL    H8448932   3.875   1.522   6.042  0.0987  1.3532 -0.2727
  345MOL    H8548933   4.030   1.496   5.780  0.7214 -0.7355 -0.2362
  345MOL    C8648934   3.927   1.324   5.866 -0.0368 -0.7347  0.2211
  345MOL    C8748935   4.002   1.207   5.804 -0.0723  0.1260 -0.4963
  345MOL    C8848936   4.045   1.099   5.895  0.3677  0.4338  0.6315
  345MOL    N8948937   4.083   1.011   5.961  0.2415 -0.2391  0.3280
  345MOL    H9048938   3.903   1.300   5.969  0.7915  0.8363  0.8022
  345MOL    H9148939   3.833   1.328   5.812 -0.3883 -3.4615  0.5881
  345MOL    H9248940   4.097   1.247   5.769 -0.1933 -0.8868 -2.0191
  345MOL    C9348941   3.932   1.142   5.676  0.3561  0.0912  0.4089
  345MOL    C9448942   4.033   1.055   5.590  0.1319  0.6792 -0.8850
  345MOL    C9548943   4.163   1.122   5.559  0.7247 -0.3487 -0.2906
  345MOL    N9648944   4.266   1.169   5.530 -0.3193 -0.2102 -0.0757
  345MOL    H9748945   3.839   1.090   5.697 -0.0028  1.1275  1.4075
  345MOL    H9848946   3.911   1.226   5.609  1.7943  0.5048  0.4418
  345MOL    H9948947   3.984   1.042   5.493 -1.8433 -0.1103  0.1903
  345MOL   C10048948   4.043   0.908   5.634  0.1428  0.3243 -0.4690
  345MOL   C10148949   4.169   0.821   5.623  0.7598 -0.1664 -0.3684
  345MOL   C10248950   4.164   0.705   5.712  0.0477  0.3433 -0.7394
  345MOL   N10348951   4.174   0.610   5.780  0.0614 -0.3122 -0.4874
  345MOL   H10448952   4.002   0.906   5.735 -2.5926 -2.9314 -1.5605
  345MOL   H10548953   3.964   0.848   5.590  1.8055 -2.8145  0.6753
  345MOL   H10648954   4.243   0.887   5.667 -0.2557  2.2239 -2.1389
  345MOL   C10748955   4.201   0.787   5.475  0.5860 -0.0963 -0.2169
  345MOL   C10848956   4.166   0.645   5.420  0.4944  0.2906  0.2092
  345MOL   C10948957   4.026   0.614   5.434 -0.6031  0.8743 -0.9941
  345MOL   N11048958   3.915   0.586   5.441  0.5109  0.2897  0.4440
  345MOL   H11148959   4.152   0.855   5.405 -0.3364  0.4476  0.9423
  345MOL   H11248960   4.309   0.797   5.465  0.4456  0.4572 -1.3258
  345MOL   H11348961   4.220   0.572   5.481  0.1660  0.5618  0.8328
  345MOL   C11448962   4.214   0.609   5.278 -0.9044 -0.7515 -0.3668
  345MOL   C11548963   4.293   0.478   5.250 -0.1842  0.1238  0.3117
  345MOL   C11648964   4.294   0.451   5.102  0.0490  0.5478 -0.4755
  345MOL   N11748965   4.306   0.430   4.989  0.7908 -0.4427  0.0894
  345MOL   H11848966   4.132   0.610   5.207 -1.2324 -1.3646  0.0013
  345MOL   H11948967   4.279   0.690   5.243 -0.5060 -1.4124 -1.1730
  345MOL   H12048968   4.235   0.395   5.289 -0.4903  0.8742  1.4850
  345MOL   C12148969   4.438   0.470   5.304 -0.0369 -0.3701 -0.1605
  345MOL   C12248970   4.561   0.529   5.219  0.5780 -0.1588 -0.3637
  345MOL   C12348971   4.561   0.670   5.197 -0.8225  0.0851  0.5706
  345MOL   N12448972   4.562   0.788   5.187 -0.2053  0.3456  0.6075
  345MOL   H12548973   4.424   0.528   5.395  0.1629  0.9228 -0.9460
  345MOL   H12648974   4.461   0.366   5.327  1.0466  0.1913  1.3617
  345MOL   H12748975   4.562   0.483   5.121  0.1168  2.1323 -1.4944
  345MOL   C12848976   4.692   0.483   5.277 -0.2765  0.0335 -0.4356
  345MOL   C12948977   4.830   0.539   5.239 -0.8087  0.4282  0.4046
  345MOL   C13048978   4.943   0.485   5.316  0.2017  0.0421 -0.3500
  345MOL   N13148979   5.032   0.441   5.376  0.6577  0.7679 -0.4225
  345MOL   H13248980   4.698   0.486   5.386 -0.2314 -1.8409 -0.3678
  345MOL   H13348981   4.691   0.376   5.255 -2.2994 -0.0914  0.1896
  345MOL   H13448982   4.831   0.646   5.261 -1.9539  0.0385  2.3788
  345MOL   C13548983   4.852   0.518   5.081 -0.6580 -0.3162  0.0070
  345MOL   C13648984   4.921   0.384   5.038  0.1141 -0.8687 -0.1075
  345MOL   C13748985   4.862   0.271   5.110  0.5910  0.3780 -0.3085
  345MOL   N13848986   4.822   0.183   5.169 -0.0952  0.4210  0.7855
  345MOL   H13948987   4.760   0.531   5.024  0.3603 -1.7045 -2.0148
  345MOL   H14048988   4.924   0.590   5.044 -0.0463 -1.1786 -0.5131
  345MOL   H14148989   5.018   0.397   5.086 -1.1061 -0.0352  2.1735
  345MOL   H14248990   4.938   0.373   4.931 -1.3740 -2.3750 -0.2276
  346MOL     C148991   3.432   3.308   3.109 -0.3664 -0.3225 -0.4418
  346MOL     C248992   3.475   3.451   3.075 -0.1389 -0.2580 -0.2264
  346MOL     C348993   3.599   3.459   2.997 -0.0873  0.8549 -0.1769
  346MOL     N448994   3.694   3.468   2.928 -0.0098 -0.5344  0.4362
  346MOL     H548995   3.353   3.314   3.184 -0.2925 -0.4475 -0.3547
  346MOL     H648996   3.508   3.236   3.139  1.4791  2.0285  0.7320
  346MOL     H748997   3.517   3.498   3.164  0.3917 -1.7383  0.3353
  346MOL     H848998   3.384   3.265   3.021 -0.3621  0.6307 -0.9218
  346MOL     C948999   3.362   3.542   3.010 -0.7639 -0.1159  0.3702
  346MOL    C1049000   3.335   3.504   2.857  0.7448 -0.1413  0.7479
  346MOL    C1149001   3.190   3.477   2.856  0.6905  0.5077 -0.3167
  346MOL    N1249002   3.081   3.459   2.849  0.4533 -0.7476 -0.1551
  346MOL    H1349003   3.273   3.526   3.071 -2.8019 -2.1995 -2.9964
  346MOL    H1449004   3.397   3.645   3.014 -0.2213 -0.3131  0.7908
  346MOL    H1549005   3.381   3.408   2.834 -0.4463 -0.2912 -1.1277
  346MOL    C1649006   3.366   3.621   2.755 -0.1643  0.6523  0.7219
  346MOL    C1749007   3.503   3.628   2.678 -0.1330  0.0110  0.1218
  346MOL    C1849008   3.533   3.508   2.602 -0.2050  0.5933  0.5818
  346MOL    N1949009   3.557   3.413   2.540  0.3991 -0.4310  0.1263
  346MOL    H2049010   3.284   3.615   2.683 -0.9743  0.0016  1.6916
  346MOL    H2149011   3.346   3.717   2.804 -0.6180  1.3909 -0.8751
  346MOL    H2249012   3.577   3.633   2.758 -0.3053  1.6290  0.1964
  346MOL    C2349013   3.496   3.751   2.579 -0.3217  0.0810  0.1579
  346MOL    C2449014   3.476   3.888   2.643  0.1171 -0.4989 -0.4371
  346MOL    C2549015   3.534   3.897   2.776  0.6371  0.7765 -0.5862
  346MOL    N2649016   3.573   3.905   2.884  0.3227 -0.3865  0.6371
  346MOL    H2749017   3.590   3.752   2.523 -1.1631 -3.1300 -1.4186
  346MOL    H2849018   3.423   3.732   2.501 -1.3057  2.3707  0.4910
  346MOL    H2949019   3.369   3.889   2.667  0.1815  0.9205 -0.1997
  346MOL    C3049020   3.514   4.006   2.555 -1.1771  0.0774 -0.4278
  346MOL    C3149021   3.469   4.148   2.577 -0.6859  0.1046 -0.1220
  346MOL    C3249022   3.500   4.190   2.714 -0.6214  0.0743  0.4380
  346MOL    N3349023   3.515   4.225   2.823 -0.0683  0.0217  0.2737
  346MOL    H3449024   3.623   4.005   2.555 -1.1259 -0.8304  3.2365
  346MOL    H3549025   3.482   3.991   2.452 -0.1694 -0.6039 -0.6525
  346MOL    H3649026   3.361   4.135   2.584 -0.7026  1.2798  1.9156
  346MOL    C3749027   3.504   4.255   2.473 -0.1935 -0.4652 -0.3522
  346MOL    C3849028   3.448   4.397   2.514 -0.7906  0.9082 -0.1333
  346MOL    C3949029   3.499   4.504   2.423  0.0117 -0.1751 -0.4144
  346MOL    N4049030   3.548   4.577   2.344  0.4640 -0.0300  0.3653
  346MOL    H4149031   3.612   4.267   2.463 -0.0613 -1.0727  0.3016
  346MOL    H4249032   3.474   4.222   2.374  1.5535  0.9662 -1.3968
  346MOL    H4349033   3.481   4.409   2.617  0.4145 -1.2568 -0.2231
  346MOL    C4449034   3.286   4.408   2.507  0.0595 -0.0365 -0.0942
  346MOL    C4549035   3.224   4.414   2.369 -0.8498  0.1435 -0.3119
  346MOL    C4649036   3.222   4.280   2.301 -0.1487 -0.0100  0.1818
  346MOL    N4749037   3.222   4.178   2.245 -0.2530 -0.2407 -0.5307
  346MOL    H4849038   3.240   4.323   2.558  1.3195  0.0566  1.2498
  346MOL    H4949039   3.274   4.504   2.556 -3.0927 -0.8981  0.9077
  346MOL    H5049040   3.287   4.472   2.301 -1.2893  1.2071  0.1849
  346MOL    C5149041   3.091   4.479   2.367 -0.5312  0.0122  0.0732
  346MOL    C5249042   3.048   4.544   2.230  0.0323  0.0386 -0.1417
  346MOL    C5349043   2.904   4.584   2.243  0.7389  0.7973 -0.4349
  346MOL    N5449044   2.794   4.615   2.247  0.4710  0.8005  0.3785
  346MOL    H5549045   3.007   4.415   2.395  0.6580 -1.8461 -0.5007
  346MOL    H5649046   3.085   4.557   2.443 -1.6486 -1.1309  1.1888
  346MOL    H5749047   3.060   4.464   2.157 -3.6397 -0.7416  0.0445
  346MOL    C5849048   3.139   4.660   2.168 -0.0933 -0.3506 -0.1374
  346MOL    C5949049   3.149   4.797   2.250 -0.4609 -0.8311 -0.3749
  346MOL    C6049050   3.192   4.777   2.386 -0.4981  0.4562  0.0830
  346MOL    N6149051   3.228   4.767   2.496 -0.1583  0.1462 -0.3667
  346MOL    H6249052   3.236   4.613   2.155  0.0775 -0.0039 -0.1158
  346MOL    H6349053   3.101   4.682   2.069  0.1475  1.0657  0.0792
  346MOL    H6449054   3.054   4.850   2.250 -0.2956 -0.5325 -0.5541
  346MOL    C6549055   3.248   4.903   2.182 -0.4067 -0.4585 -0.2426
  346MOL    C6649056   3.201   5.049   2.173  0.1226 -0.5893  0.1224
  346MOL    C6749057   3.129   5.083   2.053  0.8825 -0.0995 -0.6863
  346MOL    N6849058   3.071   5.111   1.959 -0.1244  0.2539 -0.1388
  346MOL    H6949059   3.344   4.900   2.234 -0.6452  0.4602  0.2573
  346MOL    H7049060   3.268   4.866   2.081 -0.5067 -0.5592 -0.2256
  346MOL    H7149061   3.291   5.106   2.151 -0.8314  0.4931 -1.0446
  346MOL    C7249062   3.152   5.097   2.309 -0.2209 -0.4581  0.3537
  346MOL    C7349063   3.119   5.247   2.327 -0.0365 -0.1015 -0.4659
  346MOL    C7449064   3.231   5.320   2.273 -0.7353 -0.0788  0.2775
  346MOL    N7549065   3.317   5.382   2.227  0.0061 -0.2024  0.2200
  346MOL    H7649066   3.068   5.035   2.340  0.6605 -1.7268  0.2646
  346MOL    H7749067   3.229   5.070   2.380  0.4401  0.0022 -0.1805
  346MOL    H7849068   3.122   5.280   2.431 -0.9021 -1.0802 -0.1232
  346MOL    C7949069   2.973   5.276   2.275  0.2440 -0.2631 -0.8477
  346MOL    C8049070   2.916   5.419   2.304 -0.9935  0.0065  0.1308
  346MOL    C8149071   2.995   5.517   2.221  0.3410 -0.1553 -0.1063
  346MOL    N8249072   3.051   5.596   2.158 -0.0934  0.2596  0.5991
  346MOL    H8349073   2.963   5.244   2.171 -0.9934 -1.3680 -0.4201
  346MOL    H8449074   2.905   5.210   2.331 -0.5807  2.4321  1.4527
  346MOL    H8549075   2.946   5.446   2.405 -0.9110 -0.6925  0.2942
  346MOL    C8649076   2.770   5.433   2.292  0.5118  0.0518  0.0383
  346MOL    C8749077   2.697   5.377   2.168  0.0259  0.5092 -0.2339
  346MOL    C8849078   2.554   5.368   2.184  0.9742  0.1126 -0.1809
  346MOL    N8949079   2.435   5.365   2.195 -0.4834 -0.4749 -0.4245
  346MOL    H9049080   2.727   5.381   2.377  0.9893  1.7713  1.3535
  346MOL    H9149081   2.747   5.539   2.302 -2.8835 -0.6705  0.5603
  346MOL    H9249082   2.708   5.269   2.174 -0.5462  0.2299 -3.4299
  346MOL    C9349083   2.738   5.446   2.035  0.1322 -1.0365  0.1165
  346MOL    C9449084   2.790   5.349   1.939 -0.0493 -0.1755  0.3594
  346MOL    C9549085   2.681   5.271   1.893  0.0107 -0.3649 -0.0639
  346MOL    N9649086   2.594   5.203   1.850 -0.3598  0.9128  0.1188
  346MOL    H9749087   2.640   5.489   2.010  0.1235 -0.2430  1.4720
  346MOL    H9849088   2.804   5.532   2.049 -0.5669 -0.3647 -0.6471
  346MOL    H9949089   2.862   5.283   1.988 -0.3417 -2.0381 -1.6274
  346MOL   C10049090   2.859   5.422   1.818 -0.4058 -0.2966  0.5291
  346MOL   C10149091   2.906   5.320   1.708  0.2097 -0.1353 -0.8088
  346MOL   C10249092   2.813   5.323   1.591  0.1458  0.2057  0.1251
  346MOL   N10349093   2.740   5.321   1.506  0.1291 -0.8937  0.1994
  346MOL   H10449094   2.785   5.488   1.773 -0.4616 -1.0274 -0.4613
  346MOL   H10549095   2.944   5.483   1.850  1.8104 -2.1619 -1.6300
  346MOL   H10649096   2.892   5.225   1.759 -0.9185  0.8721  0.8153
  346MOL   C10749097   3.061   5.336   1.688  0.4044  0.0974 -0.1894
  346MOL   C10849098   3.121   5.265   1.566  0.6936 -0.2280  0.9479
  346MOL   C10949099   3.201   5.369   1.488  0.1971 -0.2484 -0.0356
  346MOL   N11049100   3.259   5.450   1.434  0.3596  0.7172  0.7505
  346MOL   H11149101   3.094   5.440   1.678 -0.6444  0.4851  0.2637
  346MOL   H11249102   3.104   5.283   1.773  0.1496 -0.8451 -0.6473
  346MOL   H11349103   3.047   5.237   1.492 -0.2762  1.1928  1.3681
  346MOL   C11449104   3.203   5.134   1.587 -0.1661 -0.4658 -0.3136
  346MOL   C11549105   3.349   5.153   1.651 -0.7217  0.4184 -0.1287
  346MOL   C11649106   3.352   5.208   1.793  0.3116  0.6610 -0.2057
  346MOL   N11749107   3.355   5.257   1.904  0.2155  0.7097 -0.6278
  346MOL   H11849108   3.138   5.079   1.655 -0.6367 -0.4059 -0.7137
  346MOL   H11949109   3.210   5.083   1.491  0.9808  0.1591 -0.5780
  346MOL   H12049110   3.404   5.228   1.594 -0.8081 -1.5738 -2.9114
  346MOL   C12149111   3.425   5.017   1.645 -0.2987  0.0181 -0.1241
  346MOL   C12249112   3.402   4.909   1.751  0.3154  0.0261  0.4864
  346MOL   C12349113   3.275   4.830   1.749  0.1997  0.2954  0.7572
  346MOL   N12449114   3.176   4.771   1.752  0.0890  0.5306 -0.5949
  346MOL   H12549115   3.419   4.973   1.545 -2.3799 -1.3579  0.5857
  346MOL   H12649116   3.530   5.047   1.649 -0.0326 -0.0341 -4.2190
  346MOL   H12749117   3.393   4.969   1.842  1.7230  2.8927 -1.1971
  346MOL   C12849118   3.523   4.813   1.751  1.1808  0.6831 -0.2065
  346MOL   C12949119   3.535   4.710   1.869 -0.0988 -0.1709 -0.4354
  346MOL   C13049120   3.624   4.605   1.839 -0.2836  0.4935  0.4283
  346MOL   N13149121   3.690   4.517   1.825  0.1272  0.7043  0.6500
  346MOL   H13249122   3.526   4.756   1.658  0.9824  1.2073 -0.5390
  346MOL   H13349123   3.615   4.873   1.747  1.3137  0.4497 -0.7375
  346MOL   H13449124   3.438   4.667   1.893  0.2091 -0.4736  0.2985
  346MOL   C13549125   3.584   4.773   2.009  0.2042  0.1308  0.5344
  346MOL   C13649126   3.730   4.811   2.006  1.1099  0.0214 -0.3168
  346MOL   C13749127   3.796   4.886   2.116  0.0392 -0.5875 -0.1675
  346MOL   N13849128   3.848   4.946   2.204 -0.0744 -0.4899 -0.0096
  346MOL   H13949129   3.520   4.860   2.024  1.4178  1.2836 -0.9137
  346MOL   H14049130   3.563   4.716   2.100 -0.1622  1.2249  1.1491
  346MOL   H14149131   3.756   4.873   1.920  0.1180 -1.6411 -1.8682
  346MOL   H14249132   3.781   4.716   1.989 -0.6537 -0.4775 -3.2812
  347MOL     C149133   2.515   3.398   7.358  0.4474 -0.1947 -0.1736
  347MOL     C249134   2.369   3.446   7.361  0.2918  0.9721 -0.6978
  347MOL     C349135   2.353   3.549   7.468 -0.3654 -0.1064  0.4107
  347MOL     N449136   2.342   3.627   7.551 -0.1811 -0.2029  0.1933
  347MOL     H549137   2.524   3.334   7.270  2.2194 -1.0913  0.6416
  347MOL     H649138   2.562   3.347   7.442  1.4117 -0.1997 -0.7115
  347MOL     H749139   2.301   3.369   7.398  1.8609  0.2107  0.7047
  347MOL     H849140   2.570   3.491   7.341 -0.6048  0.4930  0.1410
  347MOL     C949141   2.334   3.505   7.221 -0.3864 -0.1797 -0.5321
  347MOL    C1049142   2.297   3.412   7.103  0.1475  0.0708  0.2803
  347MOL    C1149143   2.196   3.315   7.148  0.0235  0.4566  0.3576
  347MOL    N1249144   2.117   3.237   7.185 -0.4532  0.3419 -0.1050
  347MOL    H1349145   2.246   3.567   7.234 -1.9625 -2.8359  2.0885
  347MOL    H1449146   2.411   3.574   7.187 -1.3979  1.1182 -0.1996
  347MOL    H1549147   2.385   3.352   7.082 -0.9784 -1.4503 -0.2318
  347MOL    C1649148   2.238   3.485   6.973  0.8996  0.1634 -0.4176
  347MOL    C1749149   2.319   3.587   6.894 -0.3188 -0.3394 -0.1694
  347MOL    C1849150   2.427   3.523   6.806  0.3881  0.4237  0.0046
  347MOL    N1949151   2.508   3.471   6.746 -0.4151  0.4584 -0.3857
  347MOL    H2049152   2.225   3.398   6.909  0.2440 -0.5858  0.7167
  347MOL    H2149153   2.138   3.522   6.996  0.9636 -0.2617  0.5985
  347MOL    H2249154   2.378   3.646   6.964  0.9923 -0.9175 -0.7748
  347MOL    C2349155   2.236   3.679   6.802 -0.2536 -0.1821  0.2664
  347MOL    C2449156   2.313   3.799   6.748  0.0443 -0.4161 -0.5989
  347MOL    C2549157   2.234   3.876   6.657 -0.3209 -0.0166  0.3494
  347MOL    N2649158   2.176   3.940   6.584  0.6456  0.0532  0.0987
  347MOL    H2749159   2.182   3.627   6.723  0.5299  0.0738 -0.4407
  347MOL    H2849160   2.149   3.705   6.862 -1.2683 -0.9118 -0.8597
  347MOL    H2949161   2.390   3.757   6.684  1.3249  0.7260  0.1720
  347MOL    C3049162   2.386   3.885   6.860  0.1013  0.1060  0.4017
  347MOL    C3149163   2.400   4.039   6.822  0.4259 -0.0926  0.7566
  347MOL    C3249164   2.270   4.091   6.850  0.4001  0.5336  0.1685
  347MOL    N3349165   2.166   4.133   6.865  0.5144  0.0562  0.1320
  347MOL    H3449166   2.332   3.880   6.954  0.4350 -0.5403  0.5627
  347MOL    H3549167   2.483   3.840   6.878  1.1277  1.6812 -1.0202
  347MOL    H3649168   2.432   4.051   6.718  0.4035  0.2719  0.7934
  347MOL    C3749169   2.507   4.115   6.895  0.5980  0.1764 -0.5234
  347MOL    C3849170   2.491   4.124   7.048  0.8916  0.3239  0.6952
  347MOL    C3949171   2.507   3.987   7.112  0.0660 -0.2749 -0.3632
  347MOL    N4049172   2.523   3.883   7.158  0.1252  0.5539 -0.0227
  347MOL    H4149173   2.595   4.055   6.871 -0.7756 -1.7513 -0.8070
  347MOL    H4249174   2.518   4.213   6.847  1.4362 -0.3135 -1.3405
  347MOL    H4349175   2.390   4.146   7.081 -0.1063 -2.3005 -0.4070
  347MOL    C4449176   2.599   4.228   7.099  0.3948 -0.2309 -0.3530
  347MOL    C4549177   2.597   4.277   7.250 -0.0158  0.4148  0.6007
  347MOL    C4649178   2.594   4.163   7.346 -0.7462 -0.2715 -0.4444
  347MOL    N4749179   2.590   4.075   7.419  0.0530 -0.1687 -0.4833
  347MOL    H4849180   2.689   4.173   7.073 -0.3169 -2.3805  1.5585
  347MOL    H4949181   2.596   4.311   7.029  0.9665  0.4846  0.4704
  347MOL    H5049182   2.504   4.330   7.269  0.0685  1.0649 -0.7391
  347MOL    C5149183   2.715   4.374   7.281  0.2989  0.0449  0.5565
  347MOL    C5249184   2.758   4.475   7.164  0.2463 -0.3721 -0.1032
  347MOL    C5349185   2.813   4.408   7.038  0.2278 -0.0905  0.1951
  347MOL    N5449186   2.852   4.361   6.944 -0.7036  0.1672 -0.4803
  347MOL    H5549187   2.691   4.430   7.371  0.0444 -0.2347  0.6626
  347MOL    H5649188   2.805   4.321   7.310  0.7515  1.3665  1.6150
  347MOL    H5749189   2.853   4.520   7.192  2.2925 -1.7053 -4.4169
  347MOL    C5849190   2.650   4.578   7.140 -0.1533  0.4858  0.5051
  347MOL    C5949191   2.677   4.671   7.016 -0.0935 -0.3282 -0.3585
  347MOL    C6049192   2.558   4.703   6.942 -0.7225  0.1037  0.8248
  347MOL    N6149193   2.465   4.732   6.877 -0.3042 -0.0471  0.3308
  347MOL    H6249194   2.560   4.526   7.107  0.0094  0.0443  0.7499
  347MOL    H6349195   2.621   4.638   7.226  0.3093 -1.2300  1.8788
  347MOL    H6449196   2.745   4.620   6.947  0.4030 -0.7116  0.4074
  347MOL    C6549197   2.758   4.801   7.056  0.4100 -0.4062  1.0206
  347MOL    C6649198   2.799   4.885   6.934 -0.0988  0.1745 -0.3354
  347MOL    C6749199   2.862   5.016   6.975  0.9647  0.2518  0.6254
  347MOL    N6849200   2.911   5.113   7.005  0.3082  0.1187  0.3116
  347MOL    H6949201   2.692   4.860   7.120  0.5309 -1.2104  1.8920
  347MOL    H7049202   2.851   4.778   7.108  2.8559  1.5139 -2.3465
  347MOL    H7149203   2.706   4.912   6.884  1.3488  0.2597 -3.0702
  347MOL    C7249204   2.886   4.806   6.829  0.4543 -0.8032  0.0973
  347MOL    C7349205   3.032   4.780   6.862 -0.2051 -0.5904  0.6522
  347MOL    C7449206   3.048   4.680   6.968  0.1293  0.2554  0.1033
  347MOL    N7549207   3.060   4.600   7.052 -0.0197  1.1076 -0.4398
  347MOL    H7649208   2.832   4.715   6.803 -0.6670 -0.0227 -0.3530
  347MOL    H7749209   2.894   4.873   6.743 -4.8334 -0.5038 -0.3459
  347MOL    H7849210   3.086   4.871   6.887 -0.5955 -0.7756  2.2379
  347MOL    C7949211   3.089   4.723   6.726 -0.2430  0.1184 -0.4142
  347MOL    C8049212   3.243   4.707   6.731  0.5104 -0.0585 -0.0894
  347MOL    C8149213   3.288   4.599   6.816 -0.1250 -0.7221 -0.3365
  347MOL    N8249214   3.329   4.511   6.880 -0.1310 -0.5021  0.6332
  347MOL    H8349215   3.045   4.624   6.726 -0.9402  0.4185 -2.1177
  347MOL    H8449216   3.056   4.779   6.638  0.7855 -0.6358 -1.2920
  347MOL    H8549217   3.288   4.799   6.770 -0.5258  0.3986  0.0414
  347MOL    C8649218   3.303   4.700   6.590  0.2205  0.7814  0.1593
  347MOL    C8749219   3.317   4.559   6.538  1.1037 -0.0849 -0.7232
  347MOL    C8849220   3.195   4.476   6.567 -0.8666  0.2643 -0.5101
  347MOL    N8949221   3.106   4.407   6.599 -0.8672 -0.0162 -0.4112
  347MOL    H9049222   3.252   4.769   6.522 -1.3527 -1.4151 -0.9469
  347MOL    H9149223   3.406   4.733   6.601  0.3171  0.5205  0.0259
  347MOL    H9249224   3.397   4.507   6.592  0.2975 -0.2864  0.3025
  347MOL    C9349225   3.363   4.561   6.389 -0.3977 -0.3537 -0.3922
  347MOL    C9449226   3.358   4.428   6.316 -0.0071 -0.6854 -0.4848
  347MOL    C9549227   3.236   4.400   6.234 -0.3036 -0.1019 -0.1237
  347MOL    N9649228   3.141   4.372   6.175 -0.0646  0.5330 -0.1735
  347MOL    H9749229   3.303   4.632   6.331  1.7444  1.0793 -0.9090
  347MOL    H9849230   3.466   4.595   6.382 -0.6584  0.1598 -1.9366
  347MOL    H9949231   3.354   4.348   6.390  1.0609 -0.4320 -0.1461
  347MOL   C10049232   3.496   4.395   6.248  0.5474  0.1117  0.0331
  347MOL   C10149233   3.507   4.468   6.109 -0.3338  0.1242  0.3611
  347MOL   C10249234   3.480   4.618   6.118 -0.7027 -0.0634 -0.1998
  347MOL   N10349235   3.469   4.726   6.131  0.4502  0.1246  0.2868
  347MOL   H10449236   3.566   4.430   6.323 -0.4772 -1.5568  1.7929
  347MOL   H10549237   3.505   4.286   6.246  0.6500  0.1029  0.7985
  347MOL   H10649238   3.442   4.425   6.033 -2.0306 -0.3773  2.0499
  347MOL   C10749239   3.652   4.442   6.060  0.0878 -0.2711 -0.4738
  347MOL   C10849240   3.715   4.303   6.093  0.3800 -0.1697 -0.1973
  347MOL   C10949241   3.638   4.188   6.043  0.0246 -0.2272 -0.9606
  347MOL   N11049242   3.579   4.106   5.996 -0.1739 -0.1545  0.0812
  347MOL   H11149243   3.660   4.482   5.959  1.1389 -1.0418 -0.7102
  347MOL   H11249244   3.716   4.512   6.115 -1.8716  1.5154 -0.4161
  347MOL   H11349245   3.710   4.279   6.199 -3.4498  0.6411 -0.1378
  347MOL   C11449246   3.865   4.300   6.053  0.8751 -0.1142  0.1683
  347MOL   C11549247   3.941   4.172   6.107 -0.6890  0.1167 -0.2127
  347MOL   C11649248   3.922   4.052   6.025 -0.1988 -0.3689  0.2129
  347MOL   N11749249   3.903   3.950   5.973  0.4296 -0.1779 -0.2372
  347MOL   H11849250   3.863   4.316   5.945  1.3229  1.5035  0.3888
  347MOL   H11949251   3.910   4.391   6.092  2.3542 -0.7217 -0.0848
  347MOL   H12049252   3.907   4.152   6.208  1.1446  0.9358  0.5941
  347MOL   C12149253   4.090   4.181   6.140 -0.2039 -0.4978 -0.4163
  347MOL   C12249254   4.184   4.143   6.023  0.6702  0.1871  0.5045
  347MOL   C12349255   4.133   4.198   5.899  0.2718  0.2351 -0.9857
  347MOL   N12449256   4.096   4.248   5.803  0.2375  0.1644 -0.1763
  347MOL   H12549257   4.107   4.281   6.178 -3.3538  0.3284 -1.0879
  347MOL   H12649258   4.109   4.114   6.224  0.1026  0.4210  0.2517
  347MOL   H12749259   4.186   4.036   6.004  1.0948  0.5045 -1.3302
  347MOL   C12849260   4.338   4.179   6.056 -1.0945 -0.3494  0.1451
  347MOL   C12949261   4.450   4.119   5.969  0.1558 -0.8434  0.1483
  347MOL   C13049262   4.443   4.177   5.830  0.7488 -0.9300  0.1216
  347MOL   N13149263   4.442   4.222   5.720  0.0952  0.3162  0.3710
  347MOL   H13249264   4.348   4.287   6.065 -1.0481 -0.4941  2.0970
  347MOL   H13349265   4.355   4.150   6.160  0.6282 -1.5222 -0.4457
  347MOL   H13449266   4.415   4.018   5.950  1.7505 -1.8512  2.4543
  347MOL   C13549267   4.597   4.137   6.019 -0.2575 -0.3493 -0.4320
  347MOL   C13649268   4.633   4.046   6.138 -0.3613 -0.5907 -0.5763
  347MOL   C13749269   4.594   4.096   6.269 -0.0918  0.0281 -0.2915
  347MOL   N13849270   4.556   4.135   6.372  0.5593 -0.2380 -0.3275
  347MOL   H13949271   4.656   4.096   5.937 -0.5263  0.2532 -0.9377
  347MOL   H14049272   4.639   4.237   6.028  1.5533 -1.1790  0.3677
  347MOL   H14149273   4.741   4.056   6.148 -0.4016 -0.4007 -0.3267
  347MOL   H14249274   4.607   3.941   6.121  1.0977 -1.4847  2.4307
  348MOL     C149275   2.371   5.981   3.962 -1.0966  0.0759 -0.9120
  348MOL     C249276   2.213   5.962   3.937  0.7837 -0.4718  0.0165
  348MOL     C349277   2.191   5.821   3.904  0.1618  0.3384  0.1520
  348MOL     N449278   2.177   5.706   3.884  0.5106  0.8528 -0.7190
  348MOL     H549279   2.413   5.924   4.045  1.5296  1.2543 -1.3814
  348MOL     H649280   2.404   6.083   3.982  1.7035 -0.4315 -2.6054
  348MOL     H749281   2.178   6.022   3.852  0.4960 -0.8617 -0.1404
  348MOL     H849282   2.435   5.951   3.879 -1.6504  0.0250 -1.3237
  348MOL     C949283   2.123   6.012   4.058 -0.2473  0.3405  0.1721
  348MOL    C1049284   1.973   6.023   4.030  1.1186  0.0964  0.2928
  348MOL    C1149285   1.921   5.887   4.027  0.1115 -0.1571 -0.4158
  348MOL    N1249286   1.873   5.786   4.032 -0.3568  0.0849 -0.3070
  348MOL    H1349287   2.151   5.965   4.152  0.2791 -0.2035 -0.2592
  348MOL    H1449288   2.163   6.109   4.088 -0.3730  1.0197 -1.7603
  348MOL    H1549289   1.961   6.082   3.939 -0.8339 -0.3769  0.2187
  348MOL    C1649290   1.891   6.102   4.135 -0.2903  0.4859 -0.7772
  348MOL    C1749291   1.851   6.243   4.102 -0.6568  0.2971 -0.4430
  348MOL    C1849292   1.771   6.244   3.983  0.2264  0.5479  0.0708
  348MOL    N1949293   1.708   6.244   3.886  0.4520 -0.0330 -0.3024
  348MOL    H2049294   1.809   6.041   4.172 -0.1212  1.2019  0.8166
  348MOL    H2149295   1.963   6.115   4.216  0.5875 -1.4750 -1.2061
  348MOL    H2249296   1.946   6.287   4.070 -0.4934  0.6566  0.5285
  348MOL    C2349297   1.795   6.319   4.225 -0.5035 -0.0754 -0.1567
  348MOL    C2449298   1.653   6.280   4.284  0.2304  0.1255  0.0789
  348MOL    C2549299   1.651   6.157   4.365 -0.0925  0.5676 -0.1835
  348MOL    N2649300   1.656   6.055   4.416  0.6799  0.0371  0.5991
  348MOL    H2749301   1.869   6.324   4.305 -0.9951 -0.3527  0.3097
  348MOL    H2849302   1.801   6.422   4.188  0.9110 -0.7530 -1.9416
  348MOL    H2949303   1.587   6.262   4.200 -0.5449  1.9509  0.2780
  348MOL    C3049304   1.580   6.398   4.356  0.0079 -0.4468 -0.0187
  348MOL    C3149305   1.660   6.442   4.484  0.2136 -0.4070 -0.2006
  348MOL    C3249306   1.775   6.525   4.440 -0.4078  0.0102  0.3225
  348MOL    N3349307   1.872   6.591   4.416 -0.3025  0.9695  0.2702
  348MOL    H3449308   1.554   6.484   4.294  2.0700 -0.7019 -1.2808
  348MOL    H3549309   1.477   6.371   4.379  0.3434 -0.6829  1.2054
  348MOL    H3649310   1.702   6.350   4.524 -1.3642 -0.4867  1.3016
  348MOL    C3749311   1.570   6.533   4.580 -1.1763  0.0526 -0.7793
  348MOL    C3849312   1.658   6.623   4.671  1.3416  0.0449  0.2262
  348MOL    C3949313   1.569   6.716   4.740  0.0939 -0.0533  0.5559
  348MOL    N4049314   1.502   6.788   4.796  0.1494 -0.4976 -0.3212
  348MOL    H4149315   1.499   6.583   4.514 -2.1787  0.0364  0.2883
  348MOL    H4249316   1.498   6.478   4.639 -1.0122  1.0526  0.3811
  348MOL    H4349317   1.706   6.695   4.605  2.1402  0.3262  1.1163
  348MOL    C4449318   1.773   6.569   4.754 -0.3171 -0.0048 -0.0901
  348MOL    C4549319   1.732   6.484   4.881 -0.4519  0.3344 -0.1962
  348MOL    C4649320   1.650   6.368   4.841 -0.5958  0.6352  0.0840
  348MOL    N4749321   1.587   6.274   4.808  0.2207  0.3132 -0.1867
  348MOL    H4849322   1.843   6.510   4.695 -1.0823  0.4437 -1.4673
  348MOL    H4949323   1.828   6.658   4.784 -1.7630  1.0203 -0.4492
  348MOL    H5049324   1.667   6.540   4.948 -3.4980 -0.5438 -2.3356
  348MOL    C5149325   1.857   6.444   4.962  0.5954  0.2920  0.0649
  348MOL    C5249326   1.831   6.349   5.075 -0.2367  0.2616  0.1037
  348MOL    C5349327   1.964   6.308   5.112  0.0789  0.1514  0.0204
  348MOL    N5449328   2.069   6.275   5.149  0.3984  0.3064 -0.1250
  348MOL    H5549329   1.923   6.384   4.900  1.1215 -0.5337  1.3952
  348MOL    H5649330   1.915   6.531   4.994  1.9984 -1.1628  1.5272
  348MOL    H5749331   1.786   6.256   5.041  2.7805 -0.6999 -1.4868
  348MOL    C5849332   1.763   6.391   5.200  0.7913 -0.2784 -0.1032
  348MOL    C5949333   1.661   6.291   5.266  0.4867 -0.0392  0.5505
  348MOL    C6049334   1.734   6.175   5.318  0.2903 -0.3057  0.2342
  348MOL    N6149335   1.793   6.087   5.359 -0.7563 -0.1863  0.5648
  348MOL    H6249336   1.837   6.424   5.273 -0.4411 -0.2962  1.1854
  348MOL    H6349337   1.702   6.478   5.177  0.9018 -0.5235 -1.3690
  348MOL    H6449338   1.584   6.271   5.192 -0.2278  2.4194  0.5733
  348MOL    C6549339   1.577   6.350   5.380  0.7473  0.1294  0.1153
  348MOL    C6649340   1.471   6.252   5.431  1.1404  0.2246 -1.0455
  348MOL    C6749341   1.524   6.189   5.556 -0.5532 -1.0172 -0.5282
  348MOL    N6849342   1.567   6.141   5.658  0.4034 -0.3522 -0.3477
  348MOL    H6949343   1.634   6.389   5.465 -0.3114  0.2456  0.7833
  348MOL    H7049344   1.522   6.434   5.337 -0.5661 -0.1847  1.1454
  348MOL    H7149345   1.463   6.170   5.360  2.1112 -0.8685  0.0789
  348MOL    C7249346   1.334   6.312   5.467  0.1383 -0.7076  0.3721
  348MOL    C7349347   1.336   6.407   5.590  0.1474  0.8804 -0.2827
  348MOL    C7449348   1.390   6.544   5.562 -0.3956  0.4794  0.5556
  348MOL    N7549349   1.442   6.643   5.535  0.6479  0.1473 -0.1553
  348MOL    H7649350   1.298   6.376   5.387 -0.8937 -1.1269  0.4982
  348MOL    H7749351   1.260   6.232   5.472 -0.3389 -0.5114 -2.3999
  348MOL    H7849352   1.407   6.364   5.660  0.6766  0.1853 -1.2346
  348MOL    C7949353   1.195   6.422   5.650 -0.8408  0.9356 -0.1357
  348MOL    C8049354   1.170   6.511   5.782 -0.4706 -0.0438 -0.4748
  348MOL    C8149355   1.160   6.659   5.760  0.3046  0.1226  0.6492
  348MOL    N8249356   1.147   6.770   5.738 -0.3146  0.2294  0.3509
  348MOL    H8349357   1.120   6.444   5.575 -1.6967  1.8279  0.9635
  348MOL    H8449358   1.180   6.319   5.683 -0.2065  0.9512  0.2130
  348MOL    H8549359   1.266   6.498   5.833  0.3291 -1.5504 -2.2700
  348MOL    C8649360   1.043   6.471   5.861  0.9278 -0.2588  0.4380
  348MOL    C8749361   1.035   6.526   6.007 -0.0487 -0.7020  0.5136
  348MOL    C8849362   0.900   6.548   6.051 -0.0167  0.4520 -0.5213
  348MOL    N8949363   0.791   6.557   6.087 -0.3474 -0.2565  0.0417
  348MOL    H9049364   0.959   6.509   5.802 -0.2978 -0.7158  1.8790
  348MOL    H9149365   1.034   6.363   5.852 -1.2462  0.0990 -2.3527
  348MOL    H9249366   1.072   6.629   6.013  0.6391 -0.9668  0.8649
  348MOL    C9349367   1.109   6.447   6.112  0.0945  0.7839 -0.2028
  348MOL    C9449368   1.041   6.331   6.179 -0.4353 -0.5183  0.2089
  348MOL    C9549369   0.978   6.251   6.075  0.5240  0.2638 -0.4676
  348MOL    N9649370   0.927   6.187   5.993  0.1141 -0.2576 -0.9483
  348MOL    H9749371   1.197   6.420   6.053  0.2728  2.3014 -0.6477
  348MOL    H9849372   1.151   6.512   6.189  0.0339  0.0412  0.4610
  348MOL    H9949373   0.966   6.374   6.245  0.1538 -0.9526  1.1793
  348MOL   C10049374   1.139   6.255   6.274 -0.7115  0.1365 -0.0210
  348MOL   C10149375   1.087   6.129   6.341  0.6835  0.1047 -0.1315
  348MOL   C10249376   1.088   6.027   6.241  0.2251  0.1915 -0.4228
  348MOL   N10349377   1.091   5.948   6.160  0.4640  0.0103  0.0883
  348MOL   H10449378   1.234   6.226   6.229 -0.7843 -0.7697  0.3875
  348MOL   H10549379   1.171   6.326   6.350  0.4668 -0.2197 -0.1764
  348MOL   H10649380   0.983   6.149   6.365  0.5414  0.2643 -0.8709
  348MOL   C10749381   1.168   6.088   6.471  0.0387 -0.0160  1.0154
  348MOL   C10849382   1.077   6.036   6.582  0.1232 -0.3292  0.3470
  348MOL   C10949383   0.985   5.929   6.533  0.3583 -0.1526  0.5607
  348MOL   N11049384   0.914   5.848   6.497 -0.6887 -0.3435 -0.6028
  348MOL   H11149385   1.249   6.020   6.444 -1.7978 -1.6690 -0.5347
  348MOL   H11249386   1.218   6.177   6.507  2.6875 -0.0409 -2.3631
  348MOL   H11349387   1.010   6.116   6.614  3.7086  1.9017  2.6866
  348MOL   C11449388   1.161   5.985   6.703  0.9166 -0.1783 -0.5554
  348MOL   C11549389   1.074   6.001   6.833 -0.8683  0.3177  0.0560
  348MOL   C11649390   1.117   5.912   6.947 -0.2244  0.6302 -0.9320
  348MOL   N11749391   1.143   5.835   7.032  0.1409 -0.3004 -0.6370
  348MOL   H11849392   1.192   5.882   6.686  2.9872  0.4524 -0.8234
  348MOL   H11949393   1.260   6.029   6.721 -0.0290  0.9712  2.1183
  348MOL   H12049394   0.979   5.962   6.796 -1.3373  0.7751  0.7664
  348MOL   C12149395   1.063   6.154   6.872  0.5298 -0.7671 -0.7485
  348MOL   C12249396   1.158   6.205   6.979  0.4066  0.6485 -0.1362
  348MOL   C12349397   1.292   6.171   6.932  0.0005 -0.8235 -0.9821
  348MOL   N12449398   1.396   6.146   6.899 -0.2824  0.9218  0.0065
  348MOL   H12549399   1.070   6.216   6.783 -3.7209 -1.7328 -1.8716
  348MOL   H12649400   0.962   6.157   6.915  0.9297  2.0950  0.1081
  348MOL   H12749401   1.137   6.154   7.073 -0.1882  0.8254 -0.1687
  348MOL   C12849402   1.142   6.358   6.991 -0.1223 -0.5040  0.1204
  348MOL   C12949403   1.187   6.413   7.126  0.4750  0.1925 -0.3708
  348MOL   C13049404   1.315   6.368   7.172 -0.1070 -0.0777  0.6986
  348MOL   N13149405   1.419   6.337   7.207 -0.1847  0.1312  0.1257
  348MOL   H13249406   1.196   6.398   6.905  0.7053  1.4985  1.5240
  348MOL   H13349407   1.036   6.381   6.976 -0.1889 -1.6709 -1.2646
  348MOL   H13449408   1.118   6.382   7.205 -0.2767 -0.1835 -1.1571
  348MOL   C13549409   1.177   6.569   7.123  0.2545 -0.3302 -0.1389
  348MOL   C13649410   1.224   6.650   7.248 -0.1185  0.6032  0.5442
  348MOL   C13749411   1.201   6.589   7.385 -0.8419  1.3690  0.1280
  348MOL   N13849412   1.184   6.538   7.487  0.4410  0.2270  0.3943
  348MOL   H13949413   1.216   6.606   7.028  0.7158 -0.3536  0.0389
  348MOL   H14049414   1.071   6.588   7.109 -0.2557 -1.1864  2.2929
  348MOL   H14149415   1.182   6.751   7.247 -0.3283  0.5545  2.2832
  348MOL   H14249416   1.333   6.648   7.244 -0.1645 -0.0784 -0.3992
  349MOL     C149417   7.762   4.812   6.582  0.2966  0.7510  0.2804
  349MOL     C249418   7.893   4.854   6.502 -1.1068 -0.9496  0.3219
  349MOL     C349419   7.905   4.803   6.368  0.4869  0.4777 -0.4404
  349MOL     N449420   7.912   4.767   6.258 -0.2259 -0.0069  0.3968
  349MOL     H549421   7.733   4.862   6.674  0.6720  1.2270  0.1416
  349MOL     H649422   7.771   4.706   6.606  0.2835  0.7191  0.1467
  349MOL     H749423   7.968   4.802   6.562 -0.4388 -0.3598  0.0085
  349MOL     H849424   7.680   4.817   6.510  2.3214 -0.7668 -2.2240
  349MOL     C949425   7.916   5.007   6.499  0.5144 -0.4989  0.6657
  349MOL    C1049426   7.938   5.072   6.635  0.0833 -0.5508  0.4131
  349MOL    C1149427   8.044   4.996   6.708 -0.1727  1.2516 -0.2878
  349MOL    N1249428   8.126   4.935   6.762 -0.0362  0.0254 -0.2571
  349MOL    H1349429   8.009   5.022   6.444  1.3499  0.7877  2.3765
  349MOL    H1449430   7.839   5.068   6.451  1.3228  0.5703  0.7056
  349MOL    H1549431   7.847   5.063   6.694 -1.2987  0.6412 -1.4624
  349MOL    C1649432   7.966   5.228   6.620  0.0641  0.0370  0.1781
  349MOL    C1749433   7.991   5.300   6.751  0.0300  0.1546  0.7061
  349MOL    C1849434   7.900   5.254   6.857 -0.0624  0.8032 -0.4210
  349MOL    N1949435   7.834   5.215   6.948 -0.5838  0.4927 -0.4707
  349MOL    H2049436   8.049   5.246   6.551  0.8951 -1.8831  0.6257
  349MOL    H2149437   7.873   5.267   6.579 -0.5578  0.5213  2.0346
  349MOL    H2249438   7.968   5.406   6.747 -0.7122 -0.0907 -3.0323
  349MOL    C2349439   8.137   5.311   6.790 -0.4531  0.2761 -0.3184
  349MOL    C2449440   8.175   5.372   6.925  0.0907 -0.6446 -0.2429
  349MOL    C2549441   8.083   5.476   6.977  0.2265 -0.1176  0.0464
  349MOL    N2649442   8.012   5.554   7.026  0.8828  0.3690  0.7777
  349MOL    H2749443   8.179   5.212   6.778 -2.0945 -0.2528 -1.9877
  349MOL    H2849444   8.184   5.373   6.713 -1.1382  0.2144 -0.7931
  349MOL    H2949445   8.272   5.420   6.916 -0.6366  0.7032 -1.0627
  349MOL    C3049446   8.177   5.255   7.027 -0.3840 -0.5521 -0.2182
  349MOL    C3149447   8.246   5.293   7.162 -0.2620 -0.7281  0.0568
  349MOL    C3249448   8.226   5.183   7.256 -0.1687 -0.4649 -0.0190
  349MOL    N3349449   8.203   5.092   7.324  0.3284  0.1025  0.5378
  349MOL    H3449450   8.076   5.234   7.061 -1.0928  0.5287 -1.5784
  349MOL    H3549451   8.206   5.156   6.993 -1.3611 -1.0966  0.5179
  349MOL    H3649452   8.188   5.377   7.199  0.9376  0.3394 -0.4147
  349MOL    C3749453   0.076   5.334   7.153 -0.2354  0.2101 -0.2330
  349MOL    C3849454   0.143   5.394   7.286 -0.4717  1.0361  0.0562
  349MOL    C3949455   0.180   5.299   7.392 -0.3039 -0.7645 -1.3349
  349MOL    N4049456   0.212   5.227   7.474  0.4804 -0.4952  1.0040
  349MOL    H4149457   0.134   5.246   7.126  2.4633  1.6495  0.6327
  349MOL    H4249458   0.083   5.397   7.064 -0.2973 -1.2783 -1.3154
  349MOL    H4349459   0.059   5.449   7.329 -0.6688 -0.5555  1.7437
  349MOL    C4449460   0.254   5.498   7.238 -0.2909  0.7649 -0.2627
  349MOL    C4549461   0.322   5.573   7.350 -0.0286 -0.2611  0.1315
  349MOL    C4649462   0.443   5.643   7.299  0.0257  0.6628  0.0273
  349MOL    N4749463   0.536   5.700   7.260 -0.4293  0.0348  0.3130
  349MOL    H4849464   0.336   5.455   7.182  0.0380  1.5720 -0.4098
  349MOL    H4949465   0.211   5.562   7.161 -0.7332 -0.7342 -1.2954
  349MOL    H5049466   0.357   5.494   7.417 -1.2466 -2.9958 -2.3699
  349MOL    C5149467   0.226   5.669   7.419  0.0587  0.0806 -0.0963
  349MOL    C5249468   0.209   5.815   7.371  0.7988 -0.0348  0.2125
  349MOL    C5349469   0.128   5.832   7.243  0.3680  0.5517  0.0157
  349MOL    N5449470   0.075   5.834   7.141  0.7261  0.4142  0.4585
  349MOL    H5549471   0.132   5.624   7.450 -0.3739  2.2407  1.9069
  349MOL    H5649472   0.268   5.681   7.519 -0.3478 -2.2320  0.3833
  349MOL    H5749473   0.308   5.854   7.351  0.0603  1.7036 -0.1425
  349MOL    C5849474   0.149   5.900   7.485 -0.2565  0.2080 -0.2918
  349MOL    C5949475   0.118   6.046   7.439 -0.4875  0.0848 -0.0449
  349MOL    C6049476   8.285   6.039   7.404  0.4635 -0.1763 -0.5551
  349MOL    N6149477   8.170   6.031   7.380 -0.8095  0.4079 -0.6533
  349MOL    H6249478   0.058   5.848   7.514 -1.2420  2.1877  0.2271
  349MOL    H6349479   0.222   5.910   7.565  0.5308 -0.3230 -0.9376
  349MOL    H6449480   0.185   6.062   7.355  1.3861 -0.6306  1.2828
  349MOL    C6549481   0.147   6.149   7.552  0.4195 -0.1328 -0.4564
  349MOL    C6649482   0.166   6.293   7.506 -0.1441 -0.3474  0.3007
  349MOL    C6749483   0.076   6.341   7.398  0.1776  0.3190  0.3367
  349MOL    N6849484   0.003   6.381   7.325  0.3522  0.7969 -0.1854
  349MOL    H6949485   0.058   6.143   7.615 -0.6711  1.7302 -1.7345
  349MOL    H7049486   0.245   6.120   7.588  0.7849  2.2067  0.5085
  349MOL    H7149487   0.264   6.300   7.458 -0.9986  0.4449 -1.4001
  349MOL    C7249488   0.173   6.388   7.627 -0.7658 -0.2301  0.1784
  349MOL    C7349489   0.223   6.536   7.597 -0.1529 -0.2528  0.1812
  349MOL    C7449490   0.341   6.533   7.510 -0.4129  0.0808  0.0104
  349MOL    N7549491   0.432   6.540   7.440 -0.0207 -0.2141  0.8047
  349MOL    H7649492   0.076   6.406   7.672 -0.7086  0.3186  0.0967
  349MOL    H7749493   0.242   6.337   7.694  0.1336  0.3123 -0.3181
  349MOL    H7849494   0.277   6.580   7.681  1.6288  0.5304 -1.3442
  349MOL    C7949495   0.118   6.631   7.545 -0.5147  0.0318 -0.4906
  349MOL    C8049496   0.146   6.774   7.565 -0.6229  0.6721  0.6238
  349MOL    C8149497   0.269   6.823   7.490  0.0183 -0.1395 -0.1656
  349MOL    N8249498   0.361   6.858   7.430 -0.3478 -0.8349 -0.2980
  349MOL    H8349499   0.102   6.612   7.439  1.3216 -2.4212 -0.3686
  349MOL    H8449500   0.027   6.608   7.601  0.0586 -2.1110 -0.3853
  349MOL    H8549501   0.176   6.782   7.670 -0.5155 -0.7878  0.7112
  349MOL    C8649502   0.030   6.876   7.534  0.9297  0.2413 -0.5889
  349MOL    C8749503   8.217   6.841   7.613 -0.0808  0.7569  0.1675
  349MOL    C8849504   8.261   6.833   7.758 -0.1165  0.2000 -0.0594
  349MOL    N8949505   8.300   6.820   7.866  1.4052  0.4836  0.3562
  349MOL    H9049506   0.046   6.981   7.559 -0.8154 -0.0641  1.9481
  349MOL    H9149507   0.000   6.863   7.429 -1.3015  1.5865 -0.1668
  349MOL    H9249508   8.181   6.743   7.580  1.0393  0.7439 -1.0699
  349MOL    C9349509   8.097   6.930   7.589 -0.6621  0.0958  0.0075
  349MOL    C9449510   8.039   6.910   7.441  0.9193 -0.7947  0.1609
  349MOL    C9549511   8.005   6.772   7.423 -0.5779  0.3200 -0.0503
  349MOL    N9649512   7.980   6.658   7.409  0.2276 -0.5230 -0.0421
  349MOL    H9749513   8.023   6.899   7.662 -0.6182  0.5286  0.2350
  349MOL    H9849514   8.111   7.034   7.617 -1.6897 -0.0713  1.1746
  349MOL    H9949515   8.119   6.931   7.371  0.9243 -1.4245 -0.0199
  349MOL   C10049516   7.917   7.009   7.408 -0.2168  0.5868 -0.3220
  349MOL   C10149517   7.953   7.147   7.344 -0.5711 -0.1990  0.0755
  349MOL   C10249518   8.059   7.219   7.418  0.2358  0.0080 -0.1206
  349MOL   N10349519   8.148   7.264   7.479 -0.1183  0.9070 -0.7855
  349MOL   H10449520   7.859   6.949   7.338 -1.1069  1.1220 -0.0567
  349MOL   H10549521   7.847   7.012   7.492  0.8728  0.0665  0.6154
  349MOL   H10649522   7.864   7.208   7.355 -1.3965 -0.8941 -2.5198
  349MOL   C10749523   7.987   7.132   7.195 -0.9159  0.4791 -0.5639
  349MOL   C10849524   7.874   7.101   7.099 -0.4327 -0.3045 -0.0602
  349MOL   C10949525   7.754   7.163   7.157  0.1864 -0.0669  0.6070
  349MOL   N11049526   7.662   7.214   7.204  0.4263  0.4526 -0.0567
  349MOL   H11149527   8.027   7.228   7.164  0.7266 -0.1550 -0.4724
  349MOL   H11249528   8.062   7.054   7.178 -1.0182  0.7908 -2.6422
  349MOL   H11349529   7.848   6.996   7.114 -1.8038 -0.2244 -1.7108
  349MOL   C11449530   7.884   7.121   6.940 -0.2973  0.5003 -0.5707
  349MOL   C11549531   7.752   7.086   6.884 -0.0933 -0.0068  0.1734
  349MOL   C11649532   7.744   7.156   6.753 -0.2942 -0.2254 -0.3308
  349MOL   N11749533   7.734   7.213   6.651 -0.7813 -0.3446 -0.5924
  349MOL   H11849534   7.908   7.225   6.919 -0.4280  0.9560  1.5060
  349MOL   H11949535   7.970   7.070   6.896 -0.8621  0.2612 -1.4109
  349MOL   H12049536   7.675   7.140   6.941 -0.2533 -0.2158  0.1557
  349MOL   C12149537   7.717   6.932   6.874  0.4661 -0.1564 -0.1716
  349MOL   C12249538   7.578   6.886   6.840  0.0948 -0.0485  0.1867
  349MOL   C12349539   7.474   6.953   6.924  0.5385 -0.0949 -0.5210
  349MOL   N12449540   7.393   7.003   6.988  0.2116  0.0431  0.0712
  349MOL   H12549541   7.792   6.877   6.816 -0.4668 -2.5269  0.8081
  349MOL   H12649542   7.745   6.892   6.972  0.5869 -0.0416 -0.1587
  349MOL   H12749543   7.569   6.779   6.862 -1.2566 -0.3274 -1.6100
  349MOL   C12849544   7.539   6.917   6.695 -0.5036  0.4088  0.6149
  349MOL   C12949545   7.646   6.882   6.588 -0.6041 -0.4158 -0.6148
  349MOL   C13049546   7.669   6.736   6.583  0.0754 -0.8346 -0.1981
  349MOL   N13149547   7.684   6.624   6.576 -0.1254 -0.1081 -0.0464
  349MOL   H13249548   7.452   6.857   6.669  1.5164 -0.9936 -3.3274
  349MOL   H13349549   7.510   7.021   6.682 -1.6159  0.1616  1.1404
  349MOL   H13449550   7.738   6.936   6.611 -1.9633  2.7756 -2.4525
  349MOL   C13549551   7.591   6.934   6.457  0.7331 -0.9785  0.5184
  349MOL   C13649552   7.685   6.925   6.338  0.1357 -0.7501 -0.3752
  349MOL   C13749553   7.642   6.998   6.215 -0.1054  0.1851 -0.3579
  349MOL   N13849554   7.608   7.055   6.121 -0.4383 -1.0473  0.0283
  349MOL   H13949555   7.494   6.896   6.427 -0.3538  2.1461 -0.1445
  349MOL   H14049556   7.564   7.039   6.467  0.6930 -0.9091 -0.2861
  349MOL   H14149557   7.708   6.821   6.317 -0.8568 -0.4523 -3.1090
  349MOL   H14249558   7.786   6.958   6.360 -1.0661  1.7611  1.6482
  350MOL     C149559   4.920   3.451   6.890  0.2256  0.5809 -0.2809
  350MOL     C249560   4.916   3.596   6.838 -0.8736 -0.2509  0.1910
  350MOL     C349561   5.033   3.626   6.749 -0.3710 -0.5200 -0.2767
  350MOL     N449562   5.126   3.649   6.685 -0.2768  0.4729  0.2073
  350MOL     H549563   4.858   3.428   6.976 -1.1635 -0.7516 -1.6121
  350MOL     H649564   5.022   3.435   6.925  0.4316  2.4797 -0.0045
  350MOL     H749565   4.924   3.667   6.921  1.8360  0.5441 -0.6901
  350MOL     H849566   4.900   3.387   6.804 -0.7730 -0.3654  0.6412
  350MOL     C949567   4.787   3.642   6.762  0.2743 -0.0469  0.0307
  350MOL    C1049568   4.648   3.603   6.817 -1.1914  0.5144  0.0881
  350MOL    C1149569   4.633   3.636   6.955 -0.2511 -0.7115 -0.8413
  350MOL    N1249570   4.618   3.668   7.065  0.0393  0.0373 -1.0058
  350MOL    H1349571   4.810   3.747   6.741  0.2529 -0.2002 -0.7773
  350MOL    H1449572   4.791   3.594   6.664 -0.4331  1.2205 -0.6353
  350MOL    H1549573   4.639   3.494   6.814  0.3708  0.3999 -0.4271
  350MOL    C1649574   4.522   3.647   6.741 -0.3462 -1.1582  0.4098
  350MOL    C1749575   4.474   3.793   6.773 -0.2663 -0.1080 -0.8382
  350MOL    C1849576   4.569   3.902   6.803 -0.0589  0.2766  0.0689
  350MOL    N1949577   4.642   3.986   6.825  0.1671  0.1338  0.3945
  350MOL    H2049578   4.546   3.644   6.635 -0.2212  1.4072  0.3142
  350MOL    H2149579   4.437   3.582   6.759 -0.5225 -0.9596  0.3007
  350MOL    H2249580   4.425   3.777   6.870  3.7548 -2.1104  1.0169
  350MOL    C2349581   4.347   3.846   6.692 -0.1674  0.0595 -0.7170
  350MOL    C2449582   4.384   3.928   6.561 -0.4503 -0.2852 -0.1845
  350MOL    C2549583   4.452   3.845   6.459 -0.7285 -0.5212 -0.0984
  350MOL    N2649584   4.505   3.790   6.370  0.0058  0.8280 -0.6238
  350MOL    H2749585   4.278   3.765   6.668  1.3477 -1.6169  0.4039
  350MOL    H2849586   4.290   3.910   6.759 -1.1654 -1.3553 -0.1871
  350MOL    H2949587   4.456   4.007   6.583 -0.2221 -0.7341  0.6606
  350MOL    C3049588   4.259   3.995   6.511  0.2260 -0.2315  0.0761
  350MOL    C3149589   4.193   4.116   6.593  0.4558  0.3490  0.2124
  350MOL    C3249590   4.298   4.217   6.630  0.2602  0.0958  0.7596
  350MOL    N3349591   4.372   4.298   6.664 -0.2302 -0.2390 -0.0517
  350MOL    H3449592   4.276   4.030   6.409  2.7042 -2.5669 -0.3677
  350MOL    H3549593   4.180   3.922   6.493  0.5396 -0.2959 -1.1313
  350MOL    H3649594   4.169   4.078   6.692  0.6640 -1.0569 -0.2633
  350MOL    C3749595   4.081   4.189   6.521  0.3284  0.3813  0.8138
  350MOL    C3849596   4.002   4.297   6.605  0.1973 -0.0226  0.0226
  350MOL    C3949597   3.897   4.347   6.507 -0.2093 -0.3169  0.1865
  350MOL    N4049598   3.819   4.388   6.431 -0.5373 -0.2537  0.3402
  350MOL    H4149599   4.139   4.237   6.443  0.7758 -0.2279  0.7665
  350MOL    H4249600   4.006   4.122   6.479  1.3983 -0.2625 -0.0695
  350MOL    H4349601   4.076   4.375   6.624 -0.6200  0.4792  1.1715
  350MOL    C4449602   3.939   4.236   6.725  0.6371 -0.3581 -0.6523
  350MOL    C4549603   3.811   4.307   6.777 -0.0417 -0.2484  0.4578
  350MOL    C4649604   3.687   4.228   6.741  0.6995 -0.5923 -0.1419
  350MOL    N4749605   3.591   4.170   6.722  0.5363  0.2507  0.6311
  350MOL    H4849606   3.907   4.135   6.698  1.4854 -0.4575 -1.2880
  350MOL    H4949607   4.022   4.224   6.794  0.0273  2.1117  0.5590
  350MOL    H5049608   3.792   4.400   6.722  1.5206  0.4389  1.0466
  350MOL    C5149609   3.810   4.344   6.929  0.2045  0.0240  1.0570
  350MOL    C5249610   3.689   4.416   6.976  0.2879 -0.4632  0.5202
  350MOL    C5349611   3.708   4.444   7.122 -0.2538  0.0249  0.8621
  350MOL    N5449612   3.731   4.463   7.231  0.0717 -0.6264 -0.2408
  350MOL    H5549613   3.824   4.256   6.991 -2.0474 -2.0786 -1.3456
  350MOL    H5649614   3.904   4.396   6.950  0.5152  0.5279 -1.4687
  350MOL    H5749615   3.603   4.350   6.972 -0.1283  0.1164 -0.3008
  350MOL    C5849616   3.658   4.560   6.915 -0.1586  0.0068  0.4513
  350MOL    C5949617   3.758   4.671   6.923  0.1741 -0.3724 -0.6714
  350MOL    C6049618   3.869   4.647   6.827 -0.2541 -0.5642  0.5255
  350MOL    N6149619   3.955   4.633   6.751  0.3563 -0.2560  0.7762
  350MOL    H6249620   3.614   4.545   6.817 -1.9833  0.6656  1.1516
  350MOL    H6349621   3.569   4.592   6.969 -0.8115 -1.3416  0.2035
  350MOL    H6449622   3.803   4.667   7.022 -1.4219 -1.6135  0.0198
  350MOL    C6549623   3.696   4.806   6.893 -0.4017 -0.4399 -0.4210
  350MOL    C6649624   3.796   4.924   6.899 -0.2451 -0.2335  0.8165
  350MOL    C6749625   3.910   4.902   6.997 -0.7516  0.5958 -0.3797
  350MOL    N6849626   3.996   4.885   7.067 -0.0336  0.2464 -0.2626
  350MOL    H6949627   3.660   4.802   6.791 -1.9451  4.1528 -0.1565
  350MOL    H7049628   3.612   4.834   6.957  0.0971  2.1702 -0.8804
  350MOL    H7149629   3.740   5.007   6.944 -0.8921  0.6520 -1.5456
  350MOL    C7249630   3.866   4.957   6.768  0.2856 -0.0812  0.2701
  350MOL    C7349631   3.771   5.026   6.670  0.0862 -0.7601  0.2988
  350MOL    C7449632   3.713   5.145   6.732  0.4971  0.0774 -0.4196
  350MOL    N7549633   3.673   5.243   6.786  0.9179 -0.2194  0.5077
  350MOL    H7649634   3.947   5.028   6.787  1.1924  0.0151 -3.4400
  350MOL    H7749635   3.922   4.874   6.725 -3.3763 -2.5311  0.0774
  350MOL    H7849636   3.680   4.967   6.657 -1.4390  1.4097  0.8184
  350MOL    C7949637   3.829   5.063   6.534  0.0801 -0.1112  0.4784
  350MOL    C8049638   3.861   4.952   6.439  0.0894 -0.1129  0.2315
  350MOL    C8149639   3.748   4.860   6.442 -0.0210 -0.1530 -0.4157
  350MOL    N8249640   3.662   4.788   6.446 -0.3474  0.3459 -0.0155
  350MOL    H8349641   3.753   5.123   6.486  2.2137 -0.1675 -3.1121
  350MOL    H8449642   3.921   5.121   6.531 -0.5272  0.7989 -0.9962
  350MOL    H8549643   3.936   4.896   6.495 -0.1495  0.4033  1.0851
  350MOL    C8649644   3.924   4.996   6.304  0.4843 -0.7787 -0.3916
  350MOL    C8749645   3.970   4.891   6.202 -0.1931  0.4042 -0.5205
  350MOL    C8849646   4.058   4.776   6.256 -0.2766 -0.5654  0.0152
  350MOL    N8949647   4.120   4.685   6.300  0.2726 -0.7724 -0.3302
  350MOL    H9049648   3.848   5.052   6.248  0.1451  0.6878  1.5059
  350MOL    H9149649   4.005   5.065   6.325 -0.3255  0.7398 -2.0020
  350MOL    H9249650   4.044   4.941   6.139  2.6532 -1.4258  1.2672
  350MOL    C9349651   3.859   4.840   6.110 -0.3803 -0.0834 -0.4372
  350MOL    C9449652   3.828   4.926   5.986 -0.4115  0.2304  0.0799
  350MOL    C9549653   3.950   4.939   5.896  0.2067  0.0609  1.0161
  350MOL    N9649654   4.042   4.949   5.828 -0.3021 -1.6683  0.1530
  350MOL    H9749655   3.876   4.737   6.079  1.8935  0.4242 -0.9620
  350MOL    H9849656   3.772   4.831   6.175  2.9696 -2.6356  3.9790
  350MOL    H9949657   3.791   5.015   6.036 -0.8779  0.0365  0.0880
  350MOL   C10049658   3.707   4.873   5.905 -0.7988  0.6581  0.2417
  350MOL   C10149659   3.673   4.954   5.782  0.3748 -0.1899 -0.6145
  350MOL   C10249660   3.688   5.101   5.808  0.0800 -0.3570  0.3221
  350MOL   N10349661   3.692   5.217   5.823 -0.0078  0.4767 -0.0183
  350MOL   H10449662   3.731   4.770   5.876  0.2656  0.4410  1.8507
  350MOL   H10549663   3.626   4.870   5.978 -0.6919 -1.5635  0.3041
  350MOL   H10649664   3.565   4.958   5.766  0.4738 -2.2442 -2.1054
  350MOL   C10749665   3.728   4.899   5.651  0.1039 -0.2060  0.3346
  350MOL   C10849666   3.730   5.004   5.539 -0.2920 -0.6328  0.2790
  350MOL   C10949667   3.605   5.082   5.528 -0.4166 -0.5929 -0.1216
  350MOL   N11049668   3.514   5.147   5.519 -0.1130  0.2907 -0.1516
  350MOL   H11149669   3.822   4.844   5.655  0.7370  0.7786 -0.5261
  350MOL   H11249670   3.656   4.826   5.614  2.8705 -2.7922 -0.1896
  350MOL   H11349671   3.744   4.953   5.444  2.6943  1.0145 -0.2390
  350MOL   C11449672   3.861   5.096   5.550  0.6138 -0.4019 -0.3880
  350MOL   C11549673   3.992   5.028   5.517 -0.7473  0.2336 -0.2718
  350MOL   C11649674   3.998   4.967   5.380  0.2145 -0.1642 -0.3280
  350MOL   N11749675   4.005   4.922   5.273 -0.0352 -0.0239  0.5371
  350MOL   H11849676   3.857   5.175   5.476  0.5692 -0.9609 -0.9893
  350MOL   H11949677   3.880   5.150   5.643 -4.0464  0.0661  0.4497
  350MOL   H12049678   3.996   4.937   5.577 -0.4109  0.5184  0.1455
  350MOL   C12149679   4.117   5.117   5.547 -0.9814 -0.0621 -0.1490
  350MOL   C12249680   4.153   5.223   5.449  0.5900 -0.2419 -0.0645
  350MOL   C12349681   4.060   5.336   5.444 -0.1991 -0.4010 -0.3556
  350MOL   N12449682   3.982   5.418   5.442  0.2351  0.5113  0.5562
  350MOL   H12549683   4.122   5.158   5.648  2.2924 -2.1046  0.6140
  350MOL   H12649684   4.202   5.048   5.545 -0.3235  0.7523 -0.7852
  350MOL   H12749685   4.157   5.169   5.355  1.8064 -1.1383  0.5013
  350MOL   C12849686   4.290   5.278   5.466 -0.2560 -0.4527 -0.2573
  350MOL   C12949687   4.407   5.181   5.484 -0.5649 -0.7015  0.3756
  350MOL   C13049688   4.417   5.092   5.364  0.1314  0.2884 -1.3643
  350MOL   N13149689   4.423   5.019   5.275  0.1303 -0.3391 -0.1257
  350MOL   H13249690   4.311   5.334   5.374  0.9697 -0.3454  0.0807
  350MOL   H13349691   4.295   5.356   5.542 -1.2554 -0.4701 -0.1710
  350MOL   H13449692   4.392   5.113   5.568  1.7737  0.5521  1.8676
  350MOL   C13549693   4.548   5.244   5.529  0.2622 -0.2024  1.4494
  350MOL   C13649694   4.637   5.160   5.620 -0.5615 -1.3623  0.4776
  350MOL   C13749695   4.698   5.036   5.574 -0.7135  0.1413  0.1921
  350MOL   N13849696   4.742   4.932   5.543 -0.4887  0.1555  0.1781
  350MOL   H13949697   4.606   5.275   5.441 -1.3916 -2.2868 -0.4387
  350MOL   H14049698   4.524   5.337   5.580 -1.0122 -1.2355  2.7624
  350MOL   H14149699   4.583   5.122   5.707  1.1073  0.0085  2.1852
  350MOL   H14249700   4.710   5.232   5.658 -0.7642  0.3759 -2.2787
  351MOL     C149701   7.969   0.286   2.522 -0.1589 -0.0427 -0.0347
  351MOL     C249702   7.891   0.241   2.399 -0.3305 -0.1164 -0.3923
  351MOL     C349703   7.951   0.115   2.351 -0.8086  0.0033 -0.5354
  351MOL     N449704   7.990   0.011   2.322  0.0133 -0.1738 -0.1218
  351MOL     H549705   7.960   0.208   2.597 -0.7384 -0.1871 -0.2499
  351MOL     H649706   7.937   0.382   2.561  0.1190 -0.2697  0.7554
  351MOL     H749707   7.915   0.315   2.322  1.7413  1.4483  1.6838
  351MOL     H849708   8.074   0.304   2.500 -0.0158  0.1592  0.8045
  351MOL     C949709   7.740   0.239   2.406 -0.4374 -0.1114  0.3158
  351MOL    C1049710   7.676   0.383   2.429 -0.7732 -0.1915  0.4611
  351MOL    C1149711   7.714   0.488   2.327  0.1309 -0.0302  0.6372
  351MOL    N1249712   7.742   0.562   2.239  0.1833 -0.1782 -0.2574
  351MOL    H1349713   7.696   0.206   2.312  0.5665 -1.1167  0.1895
  351MOL    H1449714   7.704   0.171   2.484 -0.5762  1.2015  1.4159
  351MOL    H1549715   7.713   0.433   2.519 -0.0439  1.6920 -0.8588
  351MOL    C1649716   7.525   0.377   2.442  0.4204  0.4280 -0.3026
  351MOL    C1749717   7.450   0.299   2.327 -0.1329  0.0883  0.1535
  351MOL    C1849718   7.439   0.160   2.370  0.0487  0.1402 -1.0222
  351MOL    N1949719   7.430   0.051   2.406 -0.4555  0.6501 -0.1890
  351MOL    H2049720   7.491   0.339   2.539 -2.4491  1.8903 -0.6665
  351MOL    H2149721   7.484   0.478   2.447 -0.1566  0.1937 -0.2170
  351MOL    H2249722   7.511   0.293   2.237  0.1765  0.4893  0.3328
  351MOL    C2349723   7.317   0.365   2.297  0.5389  0.0725  0.6869
  351MOL    C2449724   7.344   0.484   2.209  0.3415 -0.0310 -0.3008
  351MOL    C2549725   7.410   0.437   2.085  0.4555  0.6615 -0.1150
  351MOL    N2649726   7.463   0.406   1.986  0.8720  0.1365  0.8907
  351MOL    H2749727   7.253   0.293   2.247  0.1111  2.2743 -2.0615
  351MOL    H2849728   7.264   0.396   2.387  1.0820  0.2795  0.9377
  351MOL    H2949729   7.422   0.536   2.265 -0.5276 -2.1458  3.0410
  351MOL    C3049730   7.224   0.579   2.188  0.1460 -1.1034 -0.1343
  351MOL    C3149731   7.163   0.640   2.314  0.6708 -0.0173  0.2346
  351MOL    C3249732   7.263   0.733   2.371 -0.1509  0.5568 -0.6314
  351MOL    N3349733   7.344   0.803   2.417 -0.0406 -0.1332  0.0010
  351MOL    H3449734   7.268   0.658   2.127 -2.6001  1.1692  0.7178
  351MOL    H3549735   7.145   0.528   2.134 -0.7867 -2.1088  2.0889
  351MOL    H3649736   7.148   0.558   2.384 -0.0163 -0.2918 -0.2362
  351MOL    C3749737   7.027   0.717   2.285  0.8673 -0.1311  0.9823
  351MOL    C3849738   6.915   0.630   2.232  0.5728  0.0369  0.2323
  351MOL    C3949739   6.899   0.510   2.320  0.0849  0.6895 -0.8115
  351MOL    N4049740   6.880   0.416   2.382  0.8730 -0.0499 -0.4543
  351MOL    H4149741   7.001   0.768   2.378 -0.1466  0.7828  0.2184
  351MOL    H4249742   7.048   0.788   2.204  0.5412 -0.5742  0.5061
  351MOL    H4349743   6.938   0.581   2.137  1.5388  0.8458  0.0444
  351MOL    C4449744   6.783   0.705   2.218  0.5864 -0.0808 -0.5178
  351MOL    C4549745   6.659   0.623   2.206 -0.5329  0.5939  0.2675
  351MOL    C4649746   6.596   0.613   2.340 -0.3233 -0.3092  0.3900
  351MOL    N4749747   6.546   0.606   2.441  0.2875  0.1849  0.2567
  351MOL    H4849748   6.758   0.760   2.309  1.8339 -3.2908  1.8714
  351MOL    H4949749   6.776   0.772   2.132 -0.8045  0.1621 -0.2323
  351MOL    H5049750   6.685   0.519   2.185  1.5605  1.1586  0.0008
  351MOL    C5149751   6.565   0.658   2.084 -0.2948 -0.0391 -0.3331
  351MOL    C5249752   6.470   0.778   2.112  0.5724  0.4387  0.4143
  351MOL    C5349753   6.546   0.895   2.149  0.1362  0.2872  0.0818
  351MOL    N5449754   6.609   0.988   2.185  0.4789 -0.2153  0.8835
  351MOL    H5549755   6.634   0.673   2.002 -0.7778  2.7461 -0.2944
  351MOL    H5649756   6.505   0.572   2.055 -2.3688  1.1049  0.4453
  351MOL    H5749757   6.404   0.751   2.195  2.1105 -1.2023  1.1311
  351MOL    C5849758   6.384   0.810   1.989 -0.0488  0.1056 -0.8456
  351MOL    C5949759   6.461   0.872   1.868  0.4180 -0.0082 -0.3517
  351MOL    C6049760   6.534   0.765   1.800  0.0891 -0.3631 -0.9465
  351MOL    N6149761   6.594   0.682   1.741 -0.1343  0.5630 -0.0851
  351MOL    H6249762   6.331   0.722   1.954 -0.0365 -0.2914  0.1131
  351MOL    H6349763   6.312   0.886   2.019 -0.7139 -0.6639 -0.5030
  351MOL    H6449764   6.526   0.949   1.911  0.8397 -0.3594 -0.3522
  351MOL    C6549765   6.366   0.950   1.781  0.0664  0.0856  0.4280
  351MOL    C6649766   6.425   1.032   1.671 -0.7904 -0.2301 -0.2221
  351MOL    C6749767   6.563   0.984   1.625  0.2492  0.1206 -0.0851
  351MOL    N6849768   6.672   0.948   1.594  0.8275 -0.3638  0.3199
  351MOL    H6949769   6.312   0.871   1.729  0.0335  0.5392 -0.2366
  351MOL    H7049770   6.297   1.015   1.834  0.1535  0.8434 -0.3811
  351MOL    H7149771   6.459   1.127   1.712  0.5095  0.6403 -3.1978
  351MOL    C7249772   6.322   1.055   1.560  0.6604  0.6730 -0.3854
  351MOL    C7349773   6.364   1.169   1.461  0.2080  0.3034 -0.0005
  351MOL    C7449774   6.480   1.154   1.366 -0.4414  0.3124  0.4230
  351MOL    N7549775   6.567   1.147   1.291 -0.0071 -0.4836 -0.1820
  351MOL    H7649776   6.310   0.969   1.494  1.2382 -0.5529  1.1051
  351MOL    H7749777   6.224   1.065   1.607  0.3658 -1.7678 -0.4407
  351MOL    H7849778   6.393   1.260   1.514  2.9293 -0.1637 -0.6179
  351MOL    C7949779   6.243   1.220   1.382 -0.4625 -0.2204  0.0123
  351MOL    C8049780   6.221   1.160   1.242  0.2229 -0.3768 -0.4681
  351MOL    C8149781   6.199   1.015   1.256  0.4158 -0.0154  0.1049
  351MOL    N8249782   6.181   0.905   1.270 -0.4220  0.4138 -0.0315
  351MOL    H8349783   6.153   1.205   1.441 -1.6448  0.5153 -1.5433
  351MOL    H8449784   6.260   1.327   1.372 -1.6186  0.1624  1.9626
  351MOL    H8549785   6.311   1.174   1.181  0.3705 -0.2298 -0.2160
  351MOL    C8649786   6.094   1.214   1.177  0.5078  0.4535 -0.0932
  351MOL    C8749787   6.072   1.370   1.168 -0.5351 -0.0167 -0.7142
  351MOL    C8849788   6.200   1.437   1.141  0.4278  1.0849  0.2793
  351MOL    N8949789   6.298   1.494   1.122 -0.0240 -0.5922  0.3390
  351MOL    H9049790   6.097   1.184   1.072 -0.5313 -0.9227  0.2542
  351MOL    H9149791   6.002   1.171   1.216 -0.5670  3.1811  0.4712
  351MOL    H9249792   6.055   1.417   1.265 -2.2569  0.8123 -1.4014
  351MOL    C9349793   5.957   1.395   1.070  0.4527  0.1506  0.0622
  351MOL    C9449794   5.818   1.369   1.114  0.1736 -0.1009  0.2191
  351MOL    C9549795   5.798   1.426   1.248 -0.6151  0.1064  0.3283
  351MOL    N9649796   5.786   1.470   1.352  0.1164 -0.5801 -0.1380
  351MOL    H9749797   5.969   1.502   1.051 -0.1998 -0.0866 -1.7355
  351MOL    H9849798   5.983   1.341   0.980  1.4824 -1.3903  1.2659
  351MOL    H9949799   5.806   1.265   1.142 -2.8084  0.1298 -0.0448
  351MOL   C10049800   5.724   1.406   1.001  0.3614 -0.1960  0.2045
  351MOL   C10149801   5.731   1.327   0.873 -0.0884 -0.8434  0.1626
  351MOL   C10249802   5.710   1.188   0.906 -0.1612 -0.1825  0.3142
  351MOL   N10349803   5.693   1.075   0.926  0.0637  0.3811 -0.1129
  351MOL   H10449804   5.624   1.401   1.045  1.2068 -0.8192  2.0882
  351MOL   H10549805   5.741   1.511   0.977  0.4928  0.0064  1.1691
  351MOL   H10649806   5.833   1.335   0.835  0.1481  0.0992  0.9585
  351MOL   C10749807   5.625   1.366   0.778  0.6705  0.2040 -0.2690
  351MOL   C10849808   5.642   1.504   0.710  1.0836  0.2419 -0.1974
  351MOL   C10949809   5.753   1.500   0.615  0.5839  0.4944  0.4845
  351MOL   N11049810   5.842   1.495   0.542  0.0095 -0.1957 -1.0960
  351MOL   H11149811   5.622   1.293   0.697 -0.6808  0.8993 -0.8672
  351MOL   H11249812   5.528   1.355   0.826  1.6406 -1.6442  1.3515
  351MOL   H11349813   5.661   1.589   0.775 -0.3419  1.2183 -1.0374
  351MOL   C11449814   5.505   1.548   0.648  0.0040  0.1089 -0.2440
  351MOL   C11549815   5.498   1.669   0.558 -0.1918 -1.3240  0.3209
  351MOL   C11649816   5.582   1.664   0.434 -0.3757  0.0048  0.0429
  351MOL   N11749817   5.644   1.657   0.337 -0.5795 -0.8355 -0.0667
  351MOL   H11849818   5.480   1.459   0.590 -0.7171 -1.8036  2.8862
  351MOL   H11949819   5.430   1.557   0.726  1.0531 -0.3474  0.8380
  351MOL   H12049820   5.535   1.760   0.605 -1.0213 -0.5818 -0.4493
  351MOL   C12149821   5.349   1.706   0.529 -0.0340 -0.0467  0.3876
  351MOL   C12249822   5.324   1.820   0.430  0.3993 -0.1977 -0.5694
  351MOL   C12349823   5.187   1.803   0.371 -0.1782 -0.6654  0.1159
  351MOL   N12449824   5.079   1.788   0.328  0.0305  0.2175  0.4266
  351MOL   H12549825   5.298   1.619   0.487  0.0661  0.4901 -0.8626
  351MOL   H12649826   5.286   1.726   0.616 -0.4005 -1.0854  0.3682
  351MOL   H12749827   5.402   1.815   0.353  0.2584 -0.2653 -0.7075
  351MOL   C12849828   5.331   1.955   0.494  0.4425 -0.3643 -0.2548
  351MOL   C12949829   5.262   2.066   0.420 -0.1033 -0.5258  0.1996
  351MOL   C13049830   5.301   2.191   0.489  0.8971 -1.4113 -0.5261
  351MOL   N13149831   5.317   2.291   0.552  0.4727  0.3905  0.3045
  351MOL   H13249832   5.288   1.939   0.592 -0.2162  0.2644 -0.4407
  351MOL   H13349833   5.438   1.968   0.507  0.1899  0.1178  1.4188
  351MOL   H13449834   5.155   2.054   0.434 -0.1521 -2.8623 -1.7790
  351MOL   C13549835   5.315   2.081   0.273 -0.6612  0.3888  0.9077
  351MOL   C13649836   5.246   2.192   0.196 -1.1939  0.3476  0.2503
  351MOL   C13749837   5.261   2.186   0.050 -0.5536  0.7512  0.0640
  351MOL   N13849838   5.275   2.189   8.246  0.0393 -0.0830 -0.4613
  351MOL   H13949839   5.422   2.098   0.261 -0.6614 -0.8316 -1.0435
  351MOL   H14049840   5.299   1.989   0.216 -1.4309  1.2395 -0.2775
  351MOL   H14149841   5.282   2.289   0.229 -0.6202 -0.1683  1.1617
  351MOL   H14249842   5.138   2.198   0.210 -1.2833  0.3527 -0.4312
  352MOL     C149843   0.465   1.871   5.510 -0.4647 -0.2008  0.0853
  352MOL     C249844   0.593   1.779   5.508  0.2454  0.6617 -0.3794
  352MOL     C349845   0.613   1.710   5.641 -0.4716  0.2509  0.4872
  352MOL     N449846   0.632   1.658   5.745  0.7292 -0.7876  0.1792
  352MOL     H549847   0.482   1.955   5.443  3.8407 -0.4335  0.7531
  352MOL     H649848   0.448   1.908   5.611 -0.1800 -1.0853  0.4598
  352MOL     H749849   0.674   1.851   5.495  1.3861 -0.7523 -1.2203
  352MOL     H849850   0.370   1.828   5.481 -0.4843 -0.6219  0.7655
  352MOL     C949851   0.618   1.687   5.384 -0.4863  0.0714 -0.3405
  352MOL    C1049852   0.544   1.553   5.375 -0.1060  0.4038  0.7751
  352MOL    C1149853   0.613   1.439   5.436  0.5348  0.4730  0.0047
  352MOL    N1249854   0.663   1.350   5.483  0.0153 -0.4606 -0.0771
  352MOL    H1349855   0.587   1.743   5.295  1.4669  0.1295 -1.0112
  352MOL    H1449856   0.726   1.673   5.381  0.0195  3.1167  0.9479
  352MOL    H1549857   0.540   1.534   5.268 -1.0381 -1.7307  1.1441
  352MOL    C1649858   0.391   1.560   5.418 -0.3076  0.6754 -0.3203
  352MOL    C1749859   0.290   1.449   5.375  0.5578  0.7113 -0.4312
  352MOL    C1849860   0.317   1.328   5.452  0.0111  0.3700 -0.0465
  352MOL    N1949861   0.336   1.229   5.509  0.6683  0.3501  0.2056
  352MOL    H2049862   0.384   1.584   5.524  1.8191  0.1594 -0.0372
  352MOL    H2149863   0.353   1.643   5.358 -0.9327  2.3478  2.3200
  352MOL    H2249864   0.313   1.442   5.269 -1.2549  2.8434 -0.9977
  352MOL    C2349865   0.143   1.493   5.392 -0.0685 -0.1486  0.2494
  352MOL    C2449866   0.048   1.377   5.358  0.6398 -0.5272  0.0825
  352MOL    C2549867   8.218   1.431   5.368  0.2176  0.5368 -0.7287
  352MOL    N2649868   8.111   1.469   5.379 -0.4698  0.2454  0.5135
  352MOL    H2749869   0.115   1.531   5.490 -1.1859 -1.6217  0.5138
  352MOL    H2849870   0.124   1.571   5.318  2.6284 -1.0845 -1.5212
  352MOL    H2949871   0.058   1.310   5.442  2.2450 -1.7796 -1.0794
  352MOL    C3049872   0.064   1.306   5.217  0.2265  0.2613 -0.1024
  352MOL    C3149873   0.015   1.384   5.098 -0.3138  0.3196  0.1691
  352MOL    C3249874   0.094   1.507   5.082  0.3186 -0.3458  0.0712
  352MOL    N3349875   0.153   1.606   5.069 -0.4376 -0.0770  0.2538
  352MOL    H3449876   0.163   1.260   5.205  0.2601 -0.0914  1.4151
  352MOL    H3549877   8.312   1.219   5.223 -1.9126  1.7799 -0.7273
  352MOL    H3649878   8.227   1.422   5.116 -1.1415 -0.8267 -1.8302
  352MOL    C3749879   0.009   1.301   4.964  0.1197 -0.0272 -0.0414
  352MOL    C3849880   8.274   1.379   4.836 -0.5422 -0.0080 -0.5039
  352MOL    C3949881   0.032   1.333   4.716  0.2522  0.1937 -0.4707
  352MOL    N4049882   0.079   1.303   4.617 -0.4626 -0.1048 -0.2801
  352MOL    H4149883   0.111   1.269   4.945  0.7686  0.9715  1.6037
  352MOL    H4249884   8.275   1.205   4.984 -3.6445  1.6061 -0.4557
  352MOL    H4349885   8.303   1.484   4.846 -1.7223  0.2683  0.1518
  352MOL    C4449886   8.122   1.350   4.821 -0.4279  0.1741  0.6967
  352MOL    C4549887   8.052   1.387   4.689 -0.3800 -0.0025  0.3828
  352MOL    C4649888   7.911   1.342   4.687 -0.1418 -0.4054  0.0426
  352MOL    N4749889   7.806   1.308   4.692  0.1320  0.6900  0.8972
  352MOL    H4849890   8.101   1.243   4.828  1.6258 -0.4835 -2.5356
  352MOL    H4949891   8.059   1.385   4.903 -1.5964  2.3248 -1.0542
  352MOL    H5049892   8.100   1.338   4.605  0.9229 -0.1173  1.1762
  352MOL    C5149893   8.067   1.540   4.656 -0.1105 -0.7631 -0.2661
  352MOL    C5249894   7.969   1.594   4.550  0.0717 -0.6624 -0.3876
  352MOL    C5349895   7.957   1.518   4.432  0.4994  0.2446  0.5772
  352MOL    N5449896   7.944   1.461   4.334 -0.3830 -0.0447 -0.2570
  352MOL    H5549897   8.054   1.602   4.744  3.3247  0.3806 -0.4871
  352MOL    H5649898   8.166   1.567   4.619  0.7065 -1.7779  1.1113
  352MOL    H5749899   8.025   1.672   4.497  2.9964 -0.3637  2.9169
  352MOL    C5849900   7.839   1.656   4.596  0.1910  0.8977  0.0055
  352MOL    C5949901   7.838   1.747   4.720  0.2013  0.6015 -0.0929
  352MOL    C6049902   7.955   1.834   4.721 -0.6764  0.6272  0.5737
  352MOL    N6149903   8.054   1.891   4.724  0.0959 -1.0280 -0.0239
  352MOL    H6249904   7.785   1.709   4.518  1.2101  3.4352  0.9631
  352MOL    H6349905   7.779   1.568   4.620  1.6134 -0.1229 -0.1221
  352MOL    H6449906   7.850   1.696   4.816 -1.1200 -0.5751 -0.5339
  352MOL    C6549907   7.700   1.818   4.725  0.0210 -0.3275 -0.4767
  352MOL    C6649908   7.673   1.904   4.851 -0.0398  0.1970 -1.0158
  352MOL    C6749909   7.780   2.004   4.884 -0.9818  0.0670  0.2508
  352MOL    N6849910   7.864   2.078   4.914 -0.0366  0.7221 -1.2251
  352MOL    H6949911   7.698   1.887   4.641 -2.0640 -0.2457 -0.3960
  352MOL    H7049912   7.619   1.747   4.707 -0.7523  0.4915 -0.3283
  352MOL    H7149913   7.672   1.839   4.938  0.5480 -1.2588 -2.0620
  352MOL    C7249914   7.530   1.970   4.848 -0.7371 -0.1085  0.1790
  352MOL    C7349915   7.504   2.069   4.955 -1.1113  0.0479 -0.5818
  352MOL    C7449916   7.369   2.119   4.945 -0.4757 -0.4401  0.0050
  352MOL    N7549917   7.262   2.164   4.936 -0.0943  0.8444  0.0359
  352MOL    H7649918   7.515   2.018   4.752 -2.7501  1.7276  1.3584
  352MOL    H7749919   7.468   1.880   4.851  1.0469 -1.3299  3.0873
  352MOL    H7849920   7.578   2.149   4.944  1.6237 -2.1255  1.3116
  352MOL    C7949921   7.523   2.012   5.094 -0.1681 -0.7122 -0.0383
  352MOL    C8049922   7.469   2.088   5.212 -1.3674  0.0376  0.0590
  352MOL    C8149923   7.496   2.011   5.331 -0.2499  0.2496 -0.9189
  352MOL    N8249924   7.517   1.947   5.431 -0.0012  0.0023 -0.0006
  352MOL    H8349925   7.485   1.911   5.079  1.2768 -1.0810 -1.4712
  352MOL    H8449926   7.629   1.986   5.100  0.0074  0.3506  1.5508
  352MOL    H8549927   7.360   2.087   5.209 -1.3551 -1.5210 -0.7392
  352MOL    C8649928   7.537   2.232   5.215  0.6813  0.2039 -0.2666
  352MOL    C8749929   7.438   2.345   5.259  0.2356 -0.4916  0.4822
  352MOL    C8849930   7.375   2.310   5.388 -0.5306 -0.8601  0.3455
  352MOL    N8949931   7.321   2.278   5.485  0.2973  0.4511  0.2843
  352MOL    H9049932   7.616   2.237   5.289 -0.5848 -1.8406  1.2566
  352MOL    H9149933   7.595   2.249   5.124 -0.7844  0.4249 -1.1808
  352MOL    H9249934   7.356   2.328   5.190 -0.8634 -0.2166  1.7155
  352MOL    C9349935   7.490   2.487   5.256  0.2094 -0.1358  0.1171
  352MOL    C9449936   7.383   2.598   5.283 -0.1937  0.1675 -0.3230
  352MOL    C9549937   7.279   2.604   5.179  0.1683 -0.9262  0.1896
  352MOL    N9649938   7.201   2.609   5.091 -0.5467 -0.3059  0.2649
  352MOL    H9749939   7.567   2.492   5.333  1.3514 -2.3845 -0.8220
  352MOL    H9849940   7.538   2.501   5.159  0.4410 -2.3701 -0.1299
  352MOL    H9949941   7.428   2.697   5.270 -0.2157  0.2828  0.4511
  352MOL   C10049942   7.317   2.592   5.426  0.6378  0.4820  0.3291
  352MOL   C10149943   7.408   2.584   5.552  0.8966 -0.4774 -0.0025
  352MOL   C10249944   7.497   2.696   5.573 -0.6840  0.1688 -0.6194
  352MOL   N10349945   7.577   2.783   5.584 -0.6507 -0.0927  0.5024
  352MOL   H10449946   7.247   2.675   5.436  0.2949  0.2567 -0.1475
  352MOL   H10549947   7.239   2.515   5.423 -0.1017  1.2584 -0.7878
  352MOL   H10649948   7.471   2.496   5.561  0.7632 -0.6052 -0.3015
  352MOL   C10749949   7.326   2.570   5.681  0.3895  0.1035  0.3058
  352MOL   C10849950   7.229   2.682   5.739  0.4981  0.5013 -0.0496
  352MOL   C10949951   7.122   2.729   5.649  0.1644  0.4258  0.5696
  352MOL   N11049952   7.037   2.770   5.579  0.8132  0.3243 -0.2948
  352MOL   H11149953   7.259   2.485   5.668  0.6605 -0.2769  1.3547
  352MOL   H11249954   7.398   2.550   5.760  2.0460  1.2301 -0.8811
  352MOL   H11349955   7.290   2.770   5.757  1.1330  0.0199  0.1663
  352MOL   C11449956   7.163   2.610   5.862  0.1124 -0.1224  0.0567
  352MOL   C11549957   7.052   2.689   5.944  0.4118  0.9880  0.8032
  352MOL   C11649958   6.922   2.706   5.867  0.5387 -1.5422 -0.1231
  352MOL   N11749959   6.825   2.727   5.808  0.8747 -0.4727  0.4861
  352MOL   H11849960   7.131   2.513   5.823 -2.2205  0.6950 -0.1382
  352MOL   H11949961   7.234   2.576   5.937  0.2869  1.0295  0.4241
  352MOL   H12049962   7.085   2.793   5.954 -1.2271  1.6995 -1.0211
  352MOL   C12149963   7.021   2.623   6.081  0.1708 -0.6218  0.3362
  352MOL   C12249964   7.124   2.636   6.194  0.2184 -0.3784  0.2280
  352MOL   C12349965   7.168   2.782   6.208  0.2740  0.7477  0.4494
  352MOL   N12449966   7.201   2.889   6.217  0.6097 -0.5069  0.1985
  352MOL   H12549967   6.933   2.680   6.109  1.4428  0.9638  1.2277
  352MOL   H12649968   6.996   2.519   6.062  0.6356 -0.4146 -1.5144
  352MOL   H12749969   7.213   2.591   6.149 -0.3329  0.5352 -1.8669
  352MOL   C12849970   7.087   2.556   6.324  0.4371 -0.3633  0.3529
  352MOL   C12949971   7.209   2.537   6.422  0.5952 -0.6708 -0.5377
  352MOL   C13049972   7.326   2.483   6.347 -0.4170  0.1075 -0.4762
  352MOL   N13149973   7.412   2.434   6.292  0.2778 -0.4103  0.3175
  352MOL   H13249974   7.006   2.598   6.384 -0.7476 -1.0978 -0.6827
  352MOL   H13349975   7.062   2.455   6.290  0.2118 -0.0077 -0.5580
  352MOL   H13449976   7.174   2.460   6.491  0.6205  0.8195  1.1709
  352MOL   C13549977   7.249   2.668   6.500  0.1073  0.9076  0.2355
  352MOL   C13649978   7.135   2.726   6.583  0.2281  0.0321 -0.5771
  352MOL   C13749979   7.198   2.823   6.668  0.0948  0.3502 -0.0112
  352MOL   N13849980   7.253   2.900   6.737  0.2762  0.0092 -0.5589
  352MOL   H13949981   7.333   2.652   6.567  0.3812  2.0509  0.1796
  352MOL   H14049982   7.278   2.744   6.427  0.9434  0.3259 -0.0390
  352MOL   H14149983   7.078   2.665   6.654  0.5028 -0.1713 -0.5324
  352MOL   H14249984   7.072   2.789   6.520  1.0143  0.5633 -0.8416
   8.31238   8.31238   8.31238
