Control file title. For DL_FIELD 4.10
49780
    1MOL     C1    1   4.530   5.791   5.611 -0.8369 -0.0570 -0.2658
    1MOL     C2    2   4.498   5.825   5.460  0.2963 -0.7605 -0.4626
    1MOL     C3    3   4.551   5.928   5.393  0.2628  0.7328 -0.0254
    1MOL     C4    4   4.537   5.942   5.243 -0.1481  0.0987 -0.0981
    1MOL     C5    5   4.626   6.040   5.456  0.8085 -0.0699 -0.0619
    1MOL     H6    6   4.573   5.870   5.673 -2.6948  0.2758  0.6267
    1MOL     H7    7   4.440   5.746   5.652  0.3538 -3.4824 -1.2539
    1MOL     H8    8   4.433   5.758   5.406  2.4229 -2.0302 -1.5315
    1MOL     H9    9   4.464   5.876   5.196 -1.8830  1.9098 -0.0016
    1MOL    H10   10   4.620   5.906   5.182 -1.0830  1.3069 -2.1474
    1MOL    H11   11   4.503   6.041   5.212  0.4607  0.2731 -0.2072
    1MOL    H12   12   4.708   6.073   5.393  1.2714  3.4280  2.1926
    1MOL    H13   13   4.674   6.004   5.547 -0.2162 -0.1303  0.4634
    1MOL    H14   14   4.609   5.716   5.615 -0.2448  0.5201 -1.1351
    1MOL    C15   15   4.536   6.158   5.486 -0.0971 -0.6211 -0.0544
    1MOL    C16   16   4.599   6.281   5.538 -1.1074 -0.6431  0.3736
    1MOL    C17   17   4.608   6.406   5.480  0.0244  0.6981 -0.2334
    1MOL    C18   18   4.694   6.514   5.546 -0.1968  0.4065  0.1452
    1MOL    C19   19   4.545   6.439   5.343 -0.0575  0.1762 -0.0186
    1MOL    H20   20   4.466   6.117   5.559  0.9142 -1.9357  0.2035
    1MOL    H21   21   4.471   6.189   5.404  1.3166  1.1262 -0.5496
    1MOL    H22   22   4.634   6.261   5.638 -0.4141  0.5183  0.3721
    1MOL    H23   23   4.639   6.603   5.576 -1.8696 -0.2046 -1.0100
    1MOL    H24   24   4.771   6.555   5.480 -0.8440  1.0647 -0.2087
    1MOL    H25   25   4.726   6.479   5.644 -1.4076  0.4433  0.5659
    1MOL    H26   26   4.529   6.547   5.337  1.5677  0.3670 -1.0212
    1MOL    H27   27   4.442   6.401   5.340 -0.7515  2.0376 -0.6249
    1MOL    C28   28   4.623   6.384   5.219  0.4549  0.0667  0.3742
    1MOL    C29   29   4.573   6.425   5.083  0.7355  0.2371 -0.4014
    1MOL    C30   30   4.607   6.361   4.964  0.3423  0.9690  0.8033
    1MOL    C31   31   4.535   6.402   4.839  0.0780 -0.2633  0.0814
    1MOL    C32   32   4.705   6.241   4.944  0.1106 -0.2017 -0.2543
    1MOL    H33   33   4.630   6.276   5.228 -0.7410 -0.0097  0.3615
    1MOL    H34   34   4.731   6.400   5.215  0.5624 -0.5659  0.6719
    1MOL    H35   35   4.501   6.506   5.084  1.0811  0.5439  0.3603
    1MOL    H36   36   4.444   6.461   4.853 -1.7415 -2.6980 -1.0301
    1MOL    H37   37   4.501   6.315   4.781 -2.9652  0.8086  0.1403
    1MOL    H38   38   4.603   6.447   4.767  1.7155  1.9895  2.9397
    1MOL    H39   39   4.651   6.159   4.896  0.2953 -0.5868  0.1870
    1MOL    H40   40   4.743   6.196   5.036 -0.5273  0.5380  0.3755
    1MOL    C41   41   4.822   6.276   4.853  0.1128 -0.2274  1.0536
    1MOL    C42   42   4.930   6.169   4.843  0.3405 -0.3460  0.1372
    1MOL    C43   43   5.051   6.171   4.905  0.0978  0.1053  0.8713
    1MOL    C44   44   5.163   6.077   4.868  0.2894  0.0092 -0.3617
    1MOL    C45   45   5.102   6.280   4.999  0.2196 -0.5377 -0.6662
    1MOL    H46   46   4.866   6.369   4.889  0.5258 -0.4685  1.1719
    1MOL    H47   47   4.799   6.304   4.750 -0.5004  2.4372  1.8539
    1MOL    H48   48   4.915   6.084   4.778  1.3755  0.8899 -1.7526
    1MOL    H49   49   5.219   6.030   4.950 -1.5030  0.0257  0.9139
    1MOL    H50   50   5.230   6.130   4.801 -1.5483  0.8122 -1.6009
    1MOL    H51   51   5.125   5.995   4.807 -4.3382 -0.4673  2.8840
    1MOL    H52   52   5.043   6.371   4.997 -0.6500 -1.0707  0.1831
    1MOL    H53   53   5.201   6.319   4.976 -0.0939  0.1387 -0.8697
    1MOL    C54   54   5.103   6.221   5.143 -0.8794  0.1938  0.5216
    1MOL    C55   55   5.123   6.326   5.252 -0.4239  0.3220  0.4440
    1MOL    C56   56   5.067   6.332   5.376  0.0246  0.7360 -0.6700
    1MOL    C57   57   5.102   6.448   5.465  1.0226  0.0050 -1.1938
    1MOL    C58   58   4.970   6.224   5.426  0.0527  1.0403  0.3868
    1MOL    H59   59   5.187   6.153   5.155 -1.1722 -0.6282 -1.7110
    1MOL    H60   60   5.017   6.161   5.170 -0.6110 -0.2712  0.3526
    1MOL    H61   61   5.193   6.405   5.232 -1.6355  1.8200  1.9419
    1MOL    H62   62   5.039   6.441   5.554  0.8749  0.9782 -1.2230
    1MOL    H63   63   5.078   6.540   5.413  0.0888  1.5210  1.8205
    1MOL    H64   64   5.195   6.438   5.521 -0.3383  0.9231  1.3128
    1MOL    H65   65   4.904   6.191   5.346  0.2476  1.4344  0.0607
    1MOL    H66   66   4.897   6.273   5.490 -0.2364 -0.3959  1.1867
    1MOL    C67   67   5.030   6.098   5.483 -0.2452 -0.2827  0.2454
    1MOL    C68   68   5.101   6.107   5.611  0.2686  0.8353 -0.5204
    1MOL    C69   69   5.096   6.024   5.719 -0.6559  0.2179 -0.5887
    1MOL    C70   70   5.201   6.021   5.826 -0.4451 -0.3135 -0.2542
    1MOL    C71   71   4.976   5.931   5.745 -0.7155 -0.1032  0.3114
    1MOL    H72   72   5.093   6.049   5.409  1.0971  0.0058  1.1684
    1MOL    H73   73   4.958   6.016   5.493  0.8666 -1.5260 -1.6253
    1MOL    H74   74   5.193   6.164   5.602  1.2389 -0.3026  1.8600
    1MOL    H75   75   5.196   5.946   5.905 -3.3757  1.4937  1.3750
    1MOL    H76   76   5.183   6.115   5.878 -0.2437  0.3301 -1.3515
    1MOL    H77   77   5.301   6.028   5.784  0.0155 -2.9705  0.2866
    1MOL    H78   78   5.002   5.842   5.802  0.6302  0.3473  0.4325
    1MOL    H79   79   4.935   5.896   5.651 -2.2365  0.7712  0.6370
    1MOL    C80   80   4.870   6.007   5.815  0.6441  0.4234  0.2684
    1MOL    C81   81   4.912   6.058   5.949  0.1282 -0.0936  0.3483
    1MOL    C82   82   4.908   6.185   5.994  0.0420 -0.0899  0.4941
    1MOL    C83   83   4.864   6.301   5.907 -0.2504 -0.7662  0.5576
    1MOL    C84   84   4.959   6.228   6.134  0.1031  0.1233 -0.2875
    1MOL    H85   85   4.799   5.926   5.831  2.0071 -0.9912 -0.7794
    1MOL    H86   86   4.810   6.076   5.755  1.4465  1.1213  0.2569
    1MOL    H87   87   4.951   5.979   6.012  1.2000 -0.5028 -0.8048
    1MOL    H88   88   4.800   6.372   5.961  0.4600 -0.3086  0.8022
    1MOL    H89   89   4.803   6.274   5.821 -1.4252 -1.9879  1.7313
    1MOL    H90   90   4.939   6.353   5.848 -0.8583 -0.3909  0.1025
    1MOL    H91   91   4.982   6.141   6.195  0.3682 -0.8405 -1.7499
    1MOL    H92   92   4.877   6.285   6.179 -0.8539 -1.4323 -0.0587
    1MOL    C93   93   5.075   6.324   6.121  0.3823 -0.1484  0.1683
    1MOL    C94   94   5.145   6.347   6.255  0.0511 -0.3504 -0.2343
    1MOL    C95   95   5.251   6.281   6.300 -0.3442 -0.0545  0.1585
    1MOL    C96   96   5.308   6.331   6.431 -0.1441 -0.5930 -0.6042
    1MOL    C97   97   5.316   6.161   6.243  0.9823  0.0348  0.3955
    1MOL    H98   98   5.031   6.414   6.080  1.5848 -1.9015 -5.4732
    1MOL    H99   99   5.144   6.288   6.044  0.1710  2.6687 -1.3863
    1MOL   H100  100   5.112   6.435   6.307  0.1895  0.7225 -1.9155
    1MOL   H101  101   5.410   6.369   6.433 -0.1075 -0.7164 -0.0145
    1MOL   H102  102   5.251   6.413   6.473  0.3355 -0.8571  0.5745
    1MOL   H103  103   5.314   6.251   6.504  2.2529 -0.2038 -0.3461
    1MOL   H104  104   5.424   6.165   6.255  1.0254 -2.1326  1.1399
    1MOL   H105  105   5.295   6.147   6.137  1.2295 -1.1293  0.4883
    1MOL   C106  106   5.271   6.030   6.320 -0.1139 -0.2266 -0.4900
    1MOL   C107  107   5.367   5.922   6.290  0.2138  0.0751 -0.3580
    1MOL   C108  108   5.464   5.870   6.371  0.8889 -0.5446 -0.2178
    1MOL   C109  109   5.484   5.916   6.510  0.0827 -0.0382  0.1456
    1MOL   C110  110   5.539   5.747   6.322 -0.2937 -0.2293  0.4444
    1MOL   H111  111   5.169   5.997   6.300  0.4487 -1.1309 -1.9844
    1MOL   H112  112   5.286   6.054   6.425  1.6263  1.8995 -1.1723
    1MOL   H113  113   5.353   5.883   6.191 -0.2693  1.3876 -0.8157
    1MOL   H114  114   5.482   6.024   6.518 -0.3484 -0.0199 -0.1829
    1MOL   H115  115   5.409   5.865   6.570 -1.3960  0.3716 -1.3288
    1MOL   H116  116   5.582   5.885   6.547 -0.9340 -1.2838  1.8637
    1MOL   H117  117   5.645   5.756   6.346 -0.4039  1.1082  0.4809
    1MOL   H118  118   5.543   5.734   6.214  1.7347 -0.0251  0.4790
    1MOL   C119  119   5.487   5.619   6.390  0.3049 -0.6630  0.2322
    1MOL   C120  120   5.556   5.496   6.337  0.2686 -0.2928 -0.8939
    1MOL   C121  121   5.598   5.393   6.410 -0.6297  0.7899 -0.5260
    1MOL   C122  122   5.669   5.282   6.339 -0.3599 -0.3467 -0.0232
    1MOL   C123  123   5.595   5.385   6.561 -0.2806 -0.4582 -0.1551
    1MOL   H124  124   5.382   5.601   6.369  0.4882 -2.3817  0.7206
    1MOL   H125  125   5.499   5.634   6.497 -2.0573 -2.4061  0.7769
    1MOL   H126  126   5.576   5.490   6.231  0.3482 -0.0628 -0.8913
    1MOL   H127  127   5.613   5.247   6.252 -1.4741 -1.5610  1.1637
    1MOL   H128  128   5.667   5.203   6.415 -1.1955 -0.7875 -0.4962
    1MOL   H129  129   5.770   5.319   6.321 -1.1181  1.9270  0.3115
    1MOL   H130  130   5.622   5.482   6.603 -0.9330  0.1155 -1.0335
    1MOL   H131  131   5.668   5.310   6.589  0.7962  1.1309  1.3658
    1MOL   C132  132   5.455   5.347   6.615 -0.0846  0.3673  0.2233
    1MOL   C133  133   5.472   5.312   6.761  0.0440 -0.3736 -0.1684
    1MOL   C134  134   5.409   5.358   6.868 -0.2850 -0.3561 -0.3644
    1MOL   C135  135   5.452   5.314   7.007  0.3496 -0.0505 -0.2015
    1MOL   C136  136   5.288   5.454   6.862 -0.1140  0.3684  0.3889
    1MOL   H137  137   5.425   5.258   6.560  1.5735 -0.8401  1.2034
    1MOL   H138  138   5.385   5.429   6.602  0.0007  0.3728 -0.1966
    1MOL   H139  139   5.550   5.244   6.794 -0.0345  0.0049  0.8078
    1MOL   H140  140   5.475   5.207   7.008 -0.7652 -0.2973  0.6874
    1MOL   H141  141   5.369   5.321   7.078 -0.6133 -5.4477 -0.5939
    1MOL   H142  142   5.534   5.369   7.052  0.0132 -0.1210  0.5044
    1MOL   H143  143   5.209   5.428   6.932 -0.8592 -1.0411 -0.9533
    1MOL   H144  144   5.238   5.449   6.764  1.5576 -1.3666 -0.4027
    1MOL   C145  145   5.334   5.603   6.888  0.4026  0.3831 -0.0113
    1MOL   C146  146   5.212   5.691   6.900  0.0767 -0.1747 -0.4682
    1MOL   C147  147   5.139   5.754   6.800 -0.9993  0.3342  0.3497
    1MOL   C148  148   5.014   5.840   6.833  0.1162 -0.4613 -0.0589
    1MOL   C149  149   5.167   5.734   6.652 -0.5506 -0.2631  0.2208
    1MOL   H150  150   5.410   5.645   6.822 -0.2960  2.1169  0.2595
    1MOL   H151  151   5.366   5.608   6.992  2.1649 -0.4122 -0.4835
    1MOL   H152  152   5.174   5.710   7.000  1.3878 -0.2247  0.0419
    1MOL   H153  153   5.027   5.854   6.940  1.0866  0.4394 -0.2863
    1MOL   H154  154   4.917   5.793   6.816  0.7049 -2.3889  1.6704
    1MOL   H155  155   5.014   5.942   6.794 -1.4812 -0.1639  0.7060
    1MOL   H156  156   5.243   5.664   6.617 -0.4584 -0.3051  0.5009
    1MOL   H157  157   5.203   5.831   6.617 -2.0176 -0.0646 -0.7698
    1MOL   C158  158   5.040   5.690   6.573 -0.8101 -0.4461 -0.3039
    1MOL   C159  159   5.076   5.668   6.431  0.2231 -0.2685 -0.1724
    1MOL   C160  160   5.028   5.748   6.333 -0.3045 -0.1090  0.7044
    1MOL   C161  161   4.929   5.863   6.349 -0.0628 -0.0041  0.5888
    1MOL   C162  162   5.063   5.724   6.185 -0.0143 -0.1995 -0.0782
    1MOL   H163  163   4.951   5.753   6.576 -0.3045  0.2811 -0.4459
    1MOL   H164  164   5.013   5.592   6.611 -0.9378 -0.2245  0.1892
    1MOL   H165  165   5.142   5.587   6.403 -1.6152 -1.4295 -1.2915
    1MOL   H166  166   4.825   5.835   6.363 -0.0973 -0.1064  0.1387
    1MOL   H167  167   4.936   5.925   6.260 -0.5509  1.5457  1.6137
    1MOL   H168  168   4.953   5.929   6.433  2.8681 -1.5274  1.0221
    1MOL   H169  169   5.122   5.810   6.154  0.9927 -0.6305  0.6442
    1MOL   H170  170   4.967   5.720   6.133 -0.8010 -0.8529  1.3930
    1MOL   C171  171   5.133   5.596   6.155  0.4003  0.3167  0.0374
    1MOL   C172  172   5.132   5.576   6.003 -0.0588  0.0968 -0.0419
    1MOL   C173  173   5.232   5.537   5.923  0.3739 -0.1004  0.1074
    1MOL   C174  174   5.373   5.522   5.965 -0.1430  0.7543  0.3956
    1MOL   C175  175   5.219   5.512   5.772 -0.2618  0.0316  0.7026
    1MOL   H176  176   5.066   5.519   6.191  1.5943  0.2153  2.1382
    1MOL   H177  177   5.231   5.592   6.203  1.2985  1.9022 -1.5764
    1MOL   H178  178   5.034   5.581   5.959  0.3879  1.3446 -0.8896
    1MOL   H179  179   5.394   5.552   6.068  0.1333 -1.3705  0.9681
    1MOL   H180  180   5.429   5.599   5.912 -0.4513  0.6173 -0.1297
    1MOL   H181  181   5.416   5.425   5.944 -0.8376  1.0746 -2.6901
    1MOL   H182  182   5.268   5.417   5.750  0.0049  0.2786  0.2391
    1MOL   H183  183   5.275   5.594   5.727  0.7402 -1.1532 -0.2347
    1MOL   C184  184   5.070   5.503   5.718  0.8229  0.0365 -0.3773
    1MOL   C185  185   5.079   5.482   5.567 -0.2810 -0.4479 -0.2024
    1MOL   C186  186   4.991   5.410   5.498  0.5154  0.3579  0.0158
    1MOL   C187  187   5.005   5.383   5.350 -0.2087 -0.0660 -0.2107
    1MOL   C188  188   4.864   5.335   5.555 -0.1376 -0.1254  0.1049
    1MOL   H189  189   5.017   5.595   5.742  0.4400 -0.0648 -0.8263
    1MOL   H190  190   5.028   5.419   5.773 -0.3696 -0.0460 -1.3905
    1MOL   H191  191   5.164   5.520   5.511 -1.2115 -0.0031 -1.3418
    1MOL   H192  192   5.037   5.280   5.332  2.2038  0.5094  0.5382
    1MOL   H193  193   5.088   5.438   5.305  1.4236 -0.4453  2.2374
    1MOL   H194  194   4.909   5.406   5.304 -0.7594 -0.9951  0.4537
    1MOL   H195  195   4.901   5.307   5.654 -1.6941 -0.6095  0.5606
    1MOL   H196  196   4.837   5.244   5.502 -0.2165 -0.9188  1.4760
    1MOL   C197  197   4.743   5.424   5.567 -0.1881  0.1532  0.0612
    1MOL   C198  198   4.613   5.355   5.622  1.0753  0.5383 -0.1828
    1MOL   C199  199   4.488   5.367   5.567 -0.2355 -0.8038 -0.5523
    1MOL   C200  200   4.375   5.282   5.616 -0.4393  0.2936 -0.2824
    1MOL   C201  201   4.451   5.462   5.451  0.8768 -0.0089 -0.2317
    1MOL   H202  202   4.717   5.475   5.475 -2.8574 -0.7214  0.2682
    1MOL   H203  203   4.762   5.506   5.636  0.9062  0.6097 -0.7715
    1MOL   H204  204   4.621   5.281   5.700 -1.0456  2.7260  2.2313
    1MOL   H205  205   4.348   5.196   5.554 -2.4210 -0.3016  1.3282
    1MOL   H206  206   4.292   5.351   5.625 -0.4483  0.4180 -1.3013
    1MOL   H207  207   4.393   5.248   5.718  2.7564  1.0076 -0.5760
    1MOL   H208  208   4.519   5.546   5.450  0.6581  0.1815 -2.7855
    1MOL   H209  209   4.354   5.509   5.465  0.8526  0.1540 -0.9289
    1MOL   C210  210   4.450   5.397   5.312 -0.4793  0.1155  0.0756
    1MOL   C211  211   4.426   5.504   5.206 -0.0490  0.8074 -0.4114
    1MOL   C212  212   4.516   5.554   5.121  0.2286 -0.0431 -0.0461
    1MOL   C213  213   4.474   5.642   5.006 -0.1700  0.7821  0.0018
    1MOL   C214  214   4.668   5.519   5.130  0.4317  0.0825  0.8679
    1MOL   H215  215   4.370   5.324   5.295  1.6479 -2.5301  1.1854
    1MOL   H216  216   4.544   5.343   5.300 -1.6967 -2.0783  0.1583
    1MOL   H217  217   4.323   5.531   5.190 -0.4069  0.0122  0.5130
    1MOL   H218  218   4.562   5.705   4.993  0.8637 -0.8254 -0.8749
    1MOL   H219  219   4.376   5.689   5.011 -1.0182 -0.9273 -0.2689
    1MOL   H220  220   4.471   5.573   4.923  1.0599  0.1973  0.4278
    1MOL   H221  221   4.697   5.479   5.227 -1.6342  0.5361  1.6879
    1MOL   H222  222   4.724   5.611   5.110  1.3049 -0.8575 -1.1512
    1MOL   C223  223   4.710   5.433   5.008 -0.5706 -0.2223  0.1447
    1MOL   C224  224   4.847   5.370   5.009 -0.2603 -0.0318  0.0365
    1MOL   C225  225   4.956   5.399   4.932 -0.1684 -0.1598  0.0778
    1MOL   C226  226   5.084   5.315   4.948  0.3688  0.6231 -0.0792
    1MOL   C227  227   4.954   5.516   4.825  0.3321  0.6198  0.3871
    1MOL   H228  228   4.696   5.496   4.920 -1.4912 -1.4930 -0.6347
    1MOL   H229  229   4.638   5.355   4.985  0.3941 -0.9384 -0.4512
    1MOL   H230  230   4.857   5.301   5.091  2.9242 -1.4271 -1.4334
    1MOL   H231  231   5.088   5.214   4.907  1.3015  1.1184 -1.2458
    1MOL   H232  232   5.109   5.305   5.054  1.2431  1.5281 -0.1928
    1MOL   H233  233   5.174   5.361   4.906  0.1678  0.9963 -0.0990
    1MOL   H234  234   4.853   5.539   4.792  0.0738 -0.8970  0.0911
    1MOL   H235  235   4.997   5.484   4.730  2.0935  3.1085  0.2918
    1MOL   C236  236   5.034   5.635   4.859  0.3016 -0.0033 -0.4976
    1MOL   C237  237   4.957   5.728   4.959 -0.0705 -0.3968 -0.5193
    1MOL   C238  238   5.003   5.777   5.080 -0.5598  0.2209 -0.1869
    1MOL   C239  239   4.922   5.871   5.166  0.2744  0.6632 -0.3688
    1MOL   C240  240   5.140   5.742   5.139  0.0846 -0.0629  0.0245
    1MOL   H241  241   5.038   5.697   4.770 -0.2933 -1.0543 -1.2598
    1MOL   H242  242   5.141   5.629   4.877  0.6102 -1.1871 -2.6783
    1MOL   H243  243   4.863   5.774   4.930  1.0384  2.7447  0.6768
    1MOL   H244  244   4.981   5.936   5.231  2.1513 -0.8161 -0.5444
    1MOL   H245  245   4.870   5.796   5.225  1.2431 -0.6041 -1.1045
    1MOL   H246  246   4.853   5.932   5.107 -0.1297  0.2426 -0.3289
    1MOL   H247  247   5.222   5.791   5.086  1.7487 -0.5946  2.0053
    1MOL   H248  248   5.159   5.639   5.108  1.9203  0.1814  0.2308
    1MOL   C249  249   5.152   5.741   5.295 -0.4451  0.4638  0.0984
    1MOL   C250  250   5.286   5.674   5.335 -0.1979 -0.3327 -0.3609
    1MOL   C251  251   5.396   5.730   5.393 -0.3298 -0.4921 -0.6602
    1MOL   C252  252   5.524   5.652   5.424 -0.6016 -0.0349  0.8139
    1MOL   C253  253   5.409   5.873   5.424  0.2594 -0.4401  0.0715
    1MOL   H254  254   5.064   5.689   5.333  0.2032 -0.1167  0.8351
    1MOL   H255  255   5.146   5.840   5.340 -1.1457 -0.3634  1.9131
    1MOL   H256  256   5.295   5.569   5.313 -0.0615  0.2003 -2.9667
    1MOL   H257  257   5.498   5.546   5.420 -1.9288  0.3252 -0.5075
    1MOL   H258  258   5.566   5.677   5.521 -0.9156 -0.7807  1.1478
    1MOL   H259  259   5.599   5.680   5.350 -2.8387  0.2077 -1.4256
    1MOL   H260  260   5.479   5.906   5.347 -0.9994 -0.0116 -0.9116
    1MOL   H261  261   5.440   5.894   5.526  0.1470  2.3995 -0.4366
    1MOL   H262  262   5.312   5.919   5.407  0.3932  0.0723  0.6671
    2MOL     C1  263   7.142   0.620   4.457 -0.1219  0.2441 -0.1356
    2MOL     C2  264   7.282   0.655   4.510 -0.5321 -0.0558 -0.0409
    2MOL     C3  265   7.365   0.578   4.584 -0.6393 -0.3455  0.0026
    2MOL     C4  266   7.496   0.644   4.635 -0.1422 -0.7720 -0.0752
    2MOL     C5  267   7.335   0.433   4.622  0.4690 -0.1685 -0.4950
    2MOL     H6  268   7.119   0.711   4.401  1.9808  1.3273  0.7042
    2MOL     H7  269   7.153   0.545   4.380 -0.5352 -0.9728  0.9786
    2MOL     H8  270   7.317   0.750   4.473 -0.6892 -0.2654 -0.7291
    2MOL     H9  271   7.574   0.569   4.650 -0.5832 -0.8383  2.0582
    2MOL    H10  272   7.488   0.688   4.735  0.2939 -2.5717  0.7787
    2MOL    H11  273   7.529   0.718   4.562  2.3669 -1.0291  0.7465
    2MOL    H12  274   7.419   0.369   4.596  0.1812 -0.2418 -1.2477
    2MOL    H13  275   7.257   0.388   4.561 -1.1029  1.8408 -0.0321
    2MOL    H14  276   7.064   0.607   4.533  0.5879 -2.3865  0.1771
    2MOL    C15  277   7.302   0.426   4.775  0.5379  0.4482 -0.2321
    2MOL    C16  278   7.294   0.279   4.818  0.5212 -0.3921 -0.6961
    2MOL    C17  279   7.327   0.224   4.941  0.4376  0.3764  0.6986
    2MOL    C18  280   7.320   0.076   4.960  0.4296 -0.2353 -0.0044
    2MOL    C19  281   7.367   0.304   5.061  0.3273 -0.6318 -0.5023
    2MOL    H20  282   7.208   0.481   4.779 -0.3506 -1.0546  0.0702
    2MOL    H21  283   7.382   0.478   4.827 -0.6511  0.7357  1.3575
    2MOL    H22  284   7.258   0.211   4.741  0.8566 -2.2207  0.7374
    2MOL    H23  285   7.223   0.062   5.006 -1.3719  4.1537 -2.1864
    2MOL    H24  286   7.394   0.034   5.027 -2.5077  0.6150  3.9428
    2MOL    H25  287   7.317   0.030   4.861  1.7163  0.2355 -0.2760
    2MOL    H26  288   7.331   0.241   5.142 -1.2517 -1.5938 -1.9298
    2MOL    H27  289   7.318   0.401   5.060  0.9262 -0.3275 -0.5702
    2MOL    C28  290   7.526   0.319   5.079  0.1940  0.4862 -0.0065
    2MOL    C29  291   7.572   0.346   5.220  0.0332  0.6312  0.5678
    2MOL    C30  292   7.594   0.465   5.279  0.1925  0.4056 -0.0215
    2MOL    C31  293   7.647   0.463   5.421  0.4045  0.1359 -0.3012
    2MOL    C32  294   7.570   0.594   5.210  0.4620  0.6266  0.4342
    2MOL    H33  295   7.563   0.392   5.007  1.3367  1.6100  1.6622
    2MOL    H34  296   7.574   0.226   5.048 -1.8770  0.7308 -4.2272
    2MOL    H35  297   7.589   0.251   5.270 -0.8089 -0.1978 -0.6906
    2MOL    H36  298   7.639   0.368   5.473 -0.7586  0.8973  0.9425
    2MOL    H37  299   7.574   0.531   5.465  3.0937  1.8150  1.8041
    2MOL    H38  300   7.748   0.505   5.420  0.4377  0.0291 -2.4787
    2MOL    H39  301   7.485   0.647   5.254 -1.4603 -0.2726 -2.0254
    2MOL    H40  302   7.534   0.580   5.107  0.9402  2.5662 -0.0104
    2MOL    C41  303   7.700   0.676   5.198  0.8704 -0.7126  0.3570
    2MOL    C42  304   7.806   0.596   5.134  0.1062  0.2002  0.0983
    2MOL    C43  305   0.057   0.622   5.134 -0.3884 -0.3005  0.8827
    2MOL    C44  306   0.152   0.537   5.054  0.2690  0.4373 -0.3683
    2MOL    C45  307   0.123   0.737   5.223 -0.0374 -0.3207 -0.1392
    2MOL    H46  308   7.735   0.717   5.293 -2.0096  0.6962  0.8776
    2MOL    H47  309   7.673   0.763   5.139  0.3938 -0.1881  1.3293
    2MOL    H48  310   7.771   0.517   5.070 -0.4577  2.1134 -2.0316
    2MOL    H49  311   0.109   0.445   5.015  0.2336 -0.6917  2.2230
    2MOL    H50  312   0.247   0.525   5.108  0.0700  0.1369 -0.0827
    2MOL    H51  313   0.185   0.596   4.969  2.5423  0.7379  0.6587
    2MOL    H52  314   0.197   0.693   5.291 -0.0763  1.5778  1.1610
    2MOL    H53  315   0.048   0.784   5.286 -0.1767 -1.3671  0.5006
    2MOL    C54  316   0.201   0.840   5.147 -0.0165  0.1929  0.0639
    2MOL    C55  317   0.267   0.929   5.243 -0.1347  0.1044 -0.2738
    2MOL    C56  318   0.271   1.064   5.246 -0.0164  0.3258 -0.1785
    2MOL    C57  319   0.348   1.139   5.360  0.3896 -0.1455  0.2658
    2MOL    C58  320   0.204   1.158   5.142 -0.2316 -0.2148  0.1277
    2MOL    H59  321   0.143   0.900   5.077  1.4277  0.3779 -0.9698
    2MOL    H60  322   0.275   0.794   5.082  2.2328  0.7185  2.1616
    2MOL    H61  323   0.318   0.877   5.323  0.0917 -1.2922 -1.2971
    2MOL    H62  324   0.275   1.173   5.434 -0.6767 -0.0444 -0.8217
    2MOL    H63  325   0.411   1.214   5.314  0.8771 -0.4980  0.3542
    2MOL    H64  326   0.411   1.064   5.408 -1.0759 -1.0863  0.7637
    2MOL    H65  327   0.183   1.104   5.050 -0.3697  1.0620 -0.5995
    2MOL    H66  328   0.272   1.239   5.118 -2.1277  1.0568 -1.1399
    2MOL    C67  329   0.074   1.218   5.190  0.3952  0.0280 -0.9276
    2MOL    C68  330   7.871   1.298   5.087 -0.4504  0.4287 -0.4520
    2MOL    C69  331   7.785   1.245   4.999  0.1439  0.5920  0.2412
    2MOL    C70  332   7.709   1.333   4.904 -0.5468  0.0984  0.1630
    2MOL    C71  333   7.750   1.099   4.982  0.1782  0.3692 -0.4344
    2MOL    H72  334   0.091   1.286   5.273  4.3235 -1.3342 -0.5022
    2MOL    H73  335   0.011   1.136   5.226  2.0998 -1.1870 -0.6264
    2MOL    H74  336   0.010   1.404   5.087 -1.9741  0.6847 -0.4368
    2MOL    H75  337   7.606   1.306   4.883 -0.8737  1.2764  0.2492
    2MOL    H76  338   7.769   1.329   4.813  1.7086  0.0903  1.5929
    2MOL    H77  339   7.707   1.436   4.940 -0.7117  0.3888 -0.6874
    2MOL    H78  340   7.645   1.084   5.010  0.0527 -0.0110 -1.0840
    2MOL    H79  341   7.820   1.041   5.041 -0.0818  0.0978 -0.3952
    2MOL    C80  342   7.769   1.028   4.846  0.3524 -0.4677 -0.0138
    2MOL    C81  343   0.021   1.061   4.772 -0.0661  0.1990  0.1718
    2MOL    C82  344   0.124   0.974   4.742 -0.1671 -0.1272 -0.9883
    2MOL    C83  345   0.140   0.831   4.787 -0.3286 -0.2353 -0.4754
    2MOL    C84  346   0.236   1.023   4.649  0.5435 -0.5703  0.4221
    2MOL    H85  347   7.690   1.059   4.778  1.8115  0.2371 -1.3926
    2MOL    H86  348   7.763   0.919   4.855  3.3458 -0.7332 -0.6415
    2MOL    H87  349   0.025   1.162   4.733  1.4612 -0.1339 -0.5417
    2MOL    H88  350   0.065   0.798   4.859 -2.0409  1.4931 -1.4123
    2MOL    H89  351   0.238   0.823   4.835  0.6726  2.0547 -2.0805
    2MOL    H90  352   0.148   0.761   4.704  0.8403  1.1414 -1.5386
    2MOL    H91  353   0.334   1.025   4.697  0.2181 -0.2044  1.0772
    2MOL    H92  354   0.228   1.126   4.613  4.9334 -0.3574 -0.2270
    2MOL    C93  355   0.238   0.930   4.528  0.7016  0.7567 -0.3646
    2MOL    C94  356   0.316   0.992   4.410 -0.1123 -0.0410  0.1582
    2MOL    C95  357   0.421   0.933   4.348  0.4995  0.4638  0.2525
    2MOL    C96  358   0.487   1.003   4.238 -0.5233  0.3170 -0.5965
    2MOL    C97  359   0.481   0.801   4.392 -0.3314 -0.1848 -0.0835
    2MOL    H98  360   0.142   0.930   4.476  0.3433  1.3193  0.2966
    2MOL    H99  361   0.261   0.824   4.541 -0.2746  0.6297  0.3385
    2MOL   H100  362   0.273   1.083   4.371 -1.3566 -1.3123 -1.5314
    2MOL   H101  363   0.466   0.945   4.148 -0.1543  0.0754 -0.5281
    2MOL   H102  364   0.463   1.108   4.222 -1.5821  0.1095 -0.4098
    2MOL   H103  365   0.594   0.990   4.253 -0.6830 -0.6062 -0.2462
    2MOL   H104  366   0.465   0.782   4.498 -0.5856 -0.5754 -0.1923
    2MOL   H105  367   0.589   0.816   4.393 -0.5603  1.5393  0.4637
    2MOL   C106  368   0.442   0.687   4.300 -0.4139 -0.5954  0.4165
    2MOL   C107  369   0.500   0.552   4.331  0.5650 -0.6577  1.0165
    2MOL   C108  370   0.618   0.504   4.291  0.6026  0.0634  0.2751
    2MOL   C109  371   0.719   0.586   4.218  0.0324  0.3740  0.2665
    2MOL   C110  372   0.659   0.358   4.317 -0.2706 -0.0223 -0.0683
    2MOL   H111  373   0.445   0.709   4.193 -0.7870  0.2640  0.5836
    2MOL   H112  374   0.335   0.671   4.309 -0.5490 -1.4643 -2.1849
    2MOL   H113  375   0.427   0.482   4.370  1.2127 -1.3443  1.0091
    2MOL   H114  376   0.724   0.560   4.112  0.2003  0.8035  0.1679
    2MOL   H115  377   0.691   0.691   4.224 -1.4812  0.1169 -1.8884
    2MOL   H116  378   0.817   0.579   4.265  0.5092  1.6401 -0.5090
    2MOL   H117  379   0.576   0.316   4.374 -1.2264  1.0707 -0.6302
    2MOL   H118  380   0.758   0.354   4.363 -0.1506 -0.4269 -0.3534
    2MOL   C119  381   0.666   0.259   4.195  0.1353 -0.0351 -1.0791
    2MOL   C120  382   0.625   0.117   4.226  0.1746 -0.0455  1.1185
    2MOL   C121  383   0.539   0.043   4.158 -0.5436  0.2761 -0.4014
    2MOL   C122  384   0.505   7.782   4.215 -0.5669  0.0867  0.0389
    2MOL   C123  385   0.456   0.091   4.045 -0.8591  0.5153  0.5024
    2MOL   H124  386   0.768   0.254   4.157  1.2331  0.8133  1.6161
    2MOL   H125  387   0.610   0.309   4.116  0.4313  1.7071 -0.2071
    2MOL   H126  388   0.680   0.067   4.304  1.1241  0.8027  1.0092
    2MOL   H127  389   0.566   7.759   4.303 -0.4434 -0.6320 -0.2328
    2MOL   H128  390   0.514   7.715   4.130  0.8812  0.2244  0.0562
    2MOL   H129  391   0.399   7.788   4.238 -0.5555  0.9397 -0.1145
    2MOL   H130  392   0.439   0.010   3.974 -0.8894 -0.5502  1.7234
    2MOL   H131  393   0.508   0.175   3.998  0.1527  0.6996  1.9138
    2MOL   C132  394   0.320   0.145   4.089  0.0216  0.2308 -0.4415
    2MOL   C133  395   0.232   0.194   3.975  0.1427 -0.4569 -0.3455
    2MOL   C134  396   0.179   0.311   3.959 -0.0335  0.3036  0.1689
    2MOL   C135  397   0.079   0.352   3.852 -0.1360  0.7856  0.1849
    2MOL   C136  398   0.181   0.416   4.075 -0.1691 -0.6050  0.7075
    2MOL   H137  399   0.341   0.219   4.165 -1.5555  1.5615 -1.2680
    2MOL   H138  400   0.254   0.062   4.117  1.7004 -1.4665 -1.3943
    2MOL   H139  401   0.208   0.124   3.896 -0.4017  0.1132 -0.6955
    2MOL   H140  402   0.128   0.424   3.787  2.6792 -0.6788  0.6321
    2MOL   H141  403   7.873   0.410   3.887 -0.6591  0.6867 -0.8923
    2MOL   H142  404   0.051   0.275   3.780  2.3979 -0.0223  0.0454
    2MOL   H143  405   0.184   0.508   4.016  1.6480  0.0692  1.8086
    2MOL   H144  406   0.277   0.430   4.125  0.4259  0.3873 -0.6751
    2MOL   C145  407   0.050   0.405   4.161 -0.4124 -0.7046  0.0360
    2MOL   C146  408   0.065   0.497   4.284 -0.4018 -0.4701  0.1100
    2MOL   C147  409   0.017   0.480   4.408  0.1054  0.4914  1.0175
    2MOL   C148  410   0.058   0.564   4.526 -0.3160 -0.2103 -0.4552
    2MOL   C149  411   7.808   0.364   4.445  0.8290  0.1666 -0.1644
    2MOL   H150  412   0.036   0.301   4.191  1.3108 -1.2684 -1.0617
    2MOL   H151  413   7.841   0.432   4.103 -0.5432  3.2265  1.9419
    2MOL   H152  414   0.137   0.577   4.274 -0.8867 -0.0208  0.1752
    2MOL   H153  415   0.120   0.512   4.598 -1.2432 -0.0748  0.4461
    2MOL   H154  416   7.859   0.624   4.574  0.1697  2.7908 -3.1796
    2MOL   H155  417   0.122   0.643   4.486  0.4822  1.1115  3.2172
    2MOL   H156  418   7.748   0.326   4.363  0.0771  2.4804 -0.7370
    2MOL   H157  419   7.737   0.403   4.518 -0.0089 -0.2308 -0.7689
    2MOL   C158  420   0.006   0.241   4.508 -0.0543 -0.0930  0.0305
    2MOL   C159  421   7.787   0.130   4.547  0.1514 -0.7676  0.2052
    2MOL   C160  422   7.767   0.011   4.484  0.3839 -0.8339 -0.0507
    2MOL   C161  423   7.823   7.872   4.343 -0.2590  0.0831 -0.3626
    2MOL   C162  424   7.675   7.775   4.529 -0.2514  0.4854 -0.5282
    2MOL   H163  425   0.072   0.263   4.592 -2.5557  0.1870  1.9808
    2MOL   H164  426   0.077   0.191   4.442  2.2172 -0.1679  2.4642
    2MOL   H165  427   7.741   0.137   4.645 -2.2798 -2.4078 -0.7814
    2MOL   H166  428   7.755   7.826   4.271  0.0457  2.0385 -1.9390
    2MOL   H167  429   0.040   7.820   4.348 -0.0910  0.5266  1.3543
    2MOL   H168  430   7.834   0.090   4.295 -0.0492 -1.0827 -2.7486
    2MOL   H169  431   7.720   7.677   4.511  0.7486  0.8703 -0.1694
    2MOL   H170  432   7.596   7.773   4.454 -1.6774  0.6603  0.9594
    2MOL   C171  433   7.617   7.788   4.664 -0.8283 -0.0697 -0.1173
    2MOL   C172  434   7.543   7.658   4.690  0.3587 -0.7494 -0.3220
    2MOL   C173  435   7.583   7.541   4.753 -0.0667  0.1406 -0.5961
    2MOL   C174  436   7.726   7.531   4.806 -0.3753 -0.1161  0.5394
    2MOL   C175  437   7.487   7.430   4.786 -0.1873 -0.3445 -0.4847
    2MOL   H176  438   7.550   7.874   4.667  0.5468  1.0330 -0.3626
    2MOL   H177  439   7.696   7.821   4.731  0.2999 -1.2115 -0.8589
    2MOL   H178  440   7.439   7.651   4.661 -0.5740  0.0877  2.6416
    2MOL   H179  441   7.767   7.430   4.801 -1.3280 -0.5140  0.6841
    2MOL   H180  442   7.731   7.580   4.903  2.9131 -0.8583  0.8243
    2MOL   H181  443   7.792   7.589   4.741  0.4659 -1.7298 -0.0764
    2MOL   H182  444   7.387   7.462   4.758 -1.8248 -1.1746  3.9930
    2MOL   H183  445   7.487   7.424   4.895  2.0647  0.0957 -0.4279
    2MOL   C184  446   7.528   7.295   4.726 -0.1043  0.3735  0.0773
    2MOL   C185  447   7.426   7.184   4.753  0.5954  0.5218 -0.5168
    2MOL   C186  448   7.350   7.119   4.664  0.9433  0.2337 -0.3919
    2MOL   C187  449   7.240   7.020   4.699 -0.0470  0.2917 -0.2574
    2MOL   C188  450   7.368   7.137   4.504 -0.0186  0.3393  0.4753
    2MOL   H189  451   7.622   7.255   4.763 -0.6159 -0.7568  0.1753
    2MOL   H190  452   7.557   7.306   4.622 -1.2575  0.4289 -0.2500
    2MOL   H191  453   7.398   7.163   4.855 -0.5365  0.2707 -0.8716
    2MOL   H192  454   7.144   7.038   4.651 -0.4728  0.9715  0.8443
    2MOL   H193  455   7.232   7.019   4.807 -1.7892 -1.8818 -0.3544
    2MOL   H194  456   7.264   6.916   4.673  2.7732  0.2435  2.1845
    2MOL   H195  457   7.401   7.236   4.474 -0.5549 -0.1942 -1.9479
    2MOL   H196  458   7.270   7.132   4.458 -0.0312  0.6514  0.4670
    2MOL   C197  459   7.460   7.027   4.448  0.7095 -0.3293  0.0566
    2MOL   C198  460   7.444   6.977   4.306 -0.1581 -0.1380  0.0273
    2MOL   C199  461   7.424   6.845   4.264  0.3707 -0.0665  0.0906
    2MOL   C200  462   7.431   6.824   4.114 -0.0442 -0.5923  0.5998
    2MOL   C201  463   7.400   6.725   4.352  0.4909  0.2262  0.1321
    2MOL   H202  464   7.439   6.934   4.502  1.8734 -1.7658 -1.8933
    2MOL   H203  465   7.562   7.063   4.466  0.5846  0.5590 -0.9718
    2MOL   H204  466   7.464   7.054   4.233 -1.8743  0.7379  0.4386
    2MOL   H205  467   7.510   6.760   4.073  1.4872  1.7948 -0.2878
    2MOL   H206  468   7.444   6.922   4.068 -0.9043 -1.0778 -0.7319
    2MOL   H207  469   7.338   6.778   4.079  0.2171  1.2484 -2.7359
    2MOL   H208  470   7.302   6.685   4.326 -0.4579  1.6711  1.4241
    2MOL   H209  471   7.380   6.755   4.455 -0.5593 -0.8159  0.2465
    2MOL   C210  472   7.490   6.602   4.347  0.9685  0.1438 -0.3911
    2MOL   C211  473   7.422   6.486   4.424 -0.5309 -0.5199  0.5166
    2MOL   C212  474   7.453   6.438   4.547  1.0833  0.2817  0.0429
    2MOL   C213  475   7.369   6.338   4.625  0.0492 -0.5781  0.0597
    2MOL   C214  476   7.578   6.482   4.617 -0.5770  0.1869 -0.1393
    2MOL   H215  477   7.585   6.636   4.389  0.1931  1.5624  0.2749
    2MOL   H216  478   7.511   6.567   4.246 -1.1175 -1.8619 -0.1824
    2MOL   H217  479   7.324   6.464   4.383 -0.8151  3.6805 -1.4366
    2MOL   H218  480   7.412   6.242   4.598 -1.1207 -1.7214  2.1492
    2MOL   H219  481   7.267   6.327   4.590 -0.0121  2.9550 -1.1370
    2MOL   H220  482   7.377   6.361   4.732 -2.2668  0.2707  0.0631
    2MOL   H221  483   7.567   6.545   4.705 -0.3831 -0.2966  0.2343
    2MOL   H222  484   7.640   6.538   4.549 -0.6137  0.0458 -0.2901
    2MOL   C223  485   7.664   6.364   4.656  0.5457  0.1440  0.0703
    2MOL   C224  486   7.796   6.407   4.716 -0.2991 -0.0046  0.1761
    2MOL   C225  487   0.042   6.368   4.681  0.8104 -0.8992  0.8447
    2MOL   C226  488   0.170   6.406   4.755  0.1960 -0.3907 -0.2094
    2MOL   C227  489   0.073   6.282   4.554 -0.3020 -0.3244  0.3708
    2MOL   H228  490   7.675   6.299   4.569  0.8004 -1.9025  1.5982
    2MOL   H229  491   7.619   6.300   4.732 -1.8030  0.0999 -1.3048
    2MOL   H230  492   7.794   6.468   4.804 -2.5217 -0.6218  0.5777
    2MOL   H231  493   0.242   6.457   4.691  0.6529 -0.6070  0.1215
    2MOL   H232  494   0.219   6.317   4.796 -0.3315 -0.6322 -0.0969
    2MOL   H233  495   0.167   6.478   4.836  2.7887 -0.3437 -0.1100
    2MOL   H234  496   7.870   6.219   4.519 -1.4665  0.1448  2.1737
    2MOL   H235  497   0.159   6.215   4.558  1.7891  2.2367 -0.7503
    2MOL   C236  498   0.120   6.364   4.434  0.3319 -0.3371 -0.0026
    2MOL   C237  499   0.158   6.292   4.307 -0.6150  0.3929  0.0904
    2MOL   C238  500   0.278   6.290   4.245  0.0530 -0.6248 -0.0956
    2MOL   C239  501   0.291   6.220   4.107 -0.0288 -0.1314 -0.7644
    2MOL   C240  502   0.405   6.361   4.297 -0.3490  0.3355 -0.4926
    2MOL   H241  503   0.200   6.433   4.462  0.6222 -0.3082 -0.8683
    2MOL   H242  504   0.037   6.427   4.401  0.8430  1.1958  1.5291
    2MOL   H243  505   0.083   6.229   4.262 -0.4330  1.4368 -1.7083
    2MOL   H244  506   0.393   6.194   4.078  0.0575  1.1620 -1.6330
    2MOL   H245  507   0.252   6.284   4.029  0.7538  0.2199 -0.8742
    2MOL   H246  508   0.244   6.122   4.112  0.5973 -0.4603 -1.2449
    2MOL   H247  509   0.373   6.421   4.382 -2.3531 -0.0850 -0.9277
    2MOL   H248  510   0.447   6.424   4.218  0.3323 -1.0082 -1.2235
    2MOL   C249  511   0.504   6.259   4.362 -0.2036 -1.0326  0.3843
    2MOL   C250  512   0.632   6.326   4.426 -0.7010  0.0325 -0.0684
    2MOL   C251  513   0.761   6.282   4.423  0.0372  0.1926 -0.0394
    2MOL   C252  514   0.864   6.345   4.510  0.2670  0.2417  0.2015
    2MOL   C253  515   0.823   6.181   4.331 -0.4916  0.2449 -0.3408
    2MOL   H254  516   0.542   6.181   4.297 -0.3514  0.7184 -1.8526
    2MOL   H255  517   0.450   6.194   4.431  0.0505  1.2918  2.8470
    2MOL   H256  518   0.608   6.396   4.504  0.0809  0.4900 -0.2403
    2MOL   H257  519   0.823   6.416   4.582 -2.6253 -0.6432 -0.5139
    2MOL   H258  520   0.930   6.404   4.446  1.8988 -0.2365  1.3959
    2MOL   H259  521   0.914   6.265   4.564  0.8570  0.7677  0.4443
    2MOL   H260  522   0.753   6.110   4.288 -0.6705  0.2338 -0.0324
    2MOL   H261  523   0.912   6.133   4.372 -0.3784 -1.3166 -2.3758
    2MOL   H262  524   0.864   6.239   4.248 -1.2341  1.9767  0.4599
    3MOL     C1  525   3.617   0.274   7.250 -0.1370 -0.5895 -0.4593
    3MOL     C2  526   3.572   0.272   7.109  0.1674  0.0209  0.1330
    3MOL     C3  527   3.476   0.352   7.056 -0.4154 -0.4400  0.4901
    3MOL     C4  528   3.457   0.342   6.905 -0.8007 -0.1276  0.3866
    3MOL     C5  529   3.401   0.459   7.125 -0.2919  0.3827 -0.0114
    3MOL     H6  530   3.689   0.352   7.276 -1.1969  0.8964 -1.8675
    3MOL     H7  531   3.529   0.295   7.311  1.8471  0.7696  2.0282
    3MOL     H8  532   3.624   0.210   7.036  2.0156  0.8896  0.6914
    3MOL     H9  533   3.533   0.413   6.872  0.0104 -0.9232  0.5132
    3MOL    H10  534   3.357   0.372   6.874 -1.4008 -0.4763  1.9096
    3MOL    H11  535   3.476   0.240   6.870  0.0800 -0.1571  0.9293
    3MOL    H12  536   3.412   0.553   7.071 -0.8235  0.8865  0.7430
    3MOL    H13  537   3.431   0.464   7.230  2.2022 -1.7205 -0.5645
    3MOL    H14  538   3.656   0.176   7.277  2.0816 -0.1083 -1.8277
    3MOL    C15  539   3.250   0.426   7.131  0.2098  0.0974 -0.0586
    3MOL    C16  540   3.167   0.514   7.221 -0.3058  0.1382  0.1140
    3MOL    C17  541   3.037   0.520   7.213 -0.3334 -1.2081  0.1783
    3MOL    C18  542   2.962   0.609   7.310 -0.3167  0.0546  0.0927
    3MOL    C19  543   2.948   0.447   7.118 -0.5809 -0.3157 -0.0306
    3MOL    H20  544   3.242   0.326   7.175 -1.7869  1.1305  2.0130
    3MOL    H21  545   3.197   0.425   7.036 -2.7770  3.0603  1.4932
    3MOL    H22  546   3.220   0.567   7.298 -0.3902 -0.8902  0.8869
    3MOL    H23  547   2.898   0.541   7.367 -2.9443  0.7796 -1.9229
    3MOL    H24  548   2.897   0.686   7.269 -0.5401  0.6120  1.4597
    3MOL    H25  549   3.035   0.652   7.379 -0.8274  0.8575  0.1422
    3MOL    H26  550   2.867   0.404   7.177 -1.8027  0.2062 -1.2951
    3MOL    H27  551   2.998   0.357   7.082  0.6160 -0.1939  1.2757
    3MOL    C28  552   2.901   0.542   7.002  0.1386 -0.2500 -0.1198
    3MOL    C29  553   2.971   0.509   6.869  0.1409  0.3438 -0.1813
    3MOL    C30  554   3.011   0.593   6.772 -0.2488 -0.2497 -0.1262
    3MOL    C31  555   3.088   0.541   6.658 -0.2358 -0.6598 -0.4385
    3MOL    C32  556   2.986   0.737   6.761 -0.0116  0.1156 -0.3682
    3MOL    H33  557   2.920   0.646   7.029 -2.4042  0.1269  0.3893
    3MOL    H34  558   2.794   0.523   6.992  0.4572 -2.4403  0.3097
    3MOL    H35  559   2.983   0.401   6.864 -0.9080  0.2487 -0.9822
    3MOL    H36  560   3.099   0.432   6.659  1.6204 -0.5604 -3.0976
    3MOL    H37  561   3.195   0.560   6.670 -0.5036 -0.2868  1.4565
    3MOL    H38  562   3.069   0.572   6.555  0.2866  2.0637  0.2462
    3MOL    H39  563   2.902   0.765   6.825 -0.5732 -0.9697 -0.6264
    3MOL    H40  564   2.953   0.763   6.661 -3.1129 -1.1028  0.2703
    3MOL    C41  565   3.111   0.826   6.792  0.1802  0.5333 -0.2354
    3MOL    C42  566   3.143   0.813   6.939  0.4552 -0.4829  0.5658
    3MOL    C43  567   3.167   0.918   7.024 -0.0179 -0.7794 -0.5459
    3MOL    C44  568   3.183   0.897   7.173 -0.2197 -0.1225  0.1880
    3MOL    C45  569   3.196   1.061   6.984  0.0104 -0.5300  0.0932
    3MOL    H46  570   3.099   0.931   6.768  4.3889  0.8265 -1.4312
    3MOL    H47  571   3.201   0.793   6.740 -0.1833 -0.0619 -0.4967
    3MOL    H48  572   3.156   0.713   6.977  1.2989 -0.6736 -0.1910
    3MOL    H49  573   3.286   0.922   7.199  0.1154  0.2537 -1.4440
    3MOL    H50  574   3.149   0.800   7.210  1.3232 -1.2396 -1.1912
    3MOL    H51  575   3.113   0.962   7.225 -0.8112 -0.5108 -0.1128
    3MOL    H52  576   3.225   1.073   6.880  1.7942  3.7304  0.9647
    3MOL    H53  577   3.288   1.090   7.036 -1.4225  0.8006  1.9965
    3MOL    C54  578   3.085   1.157   7.006 -0.4044 -0.2461  0.6493
    3MOL    C55  579   3.114   1.292   6.950 -0.1078  0.3471 -0.0316
    3MOL    C56  580   3.036   1.362   6.863  0.0546  0.2230  0.0306
    3MOL    C57  581   3.081   1.503   6.823 -0.3018 -0.1222  0.0721
    3MOL    C58  582   2.919   1.314   6.777  0.6125  0.5567 -0.7419
    3MOL    H59  583   3.066   1.182   7.111 -1.5821  1.0576  0.1344
    3MOL    H60  584   2.987   1.123   6.974  0.8757 -2.2808 -1.2165
    3MOL    H61  585   3.204   1.343   6.983  0.2197 -0.1722 -0.1171
    3MOL    H62  586   2.994   1.567   6.833  2.0511  3.3373 -0.6550
    3MOL    H63  587   3.129   1.495   6.725 -1.2822 -0.6033 -0.3765
    3MOL    H64  588   3.149   1.554   6.892 -2.0673  1.1016  0.9394
    3MOL    H65  589   2.826   1.364   6.804  0.3983  0.0490 -0.5223
    3MOL    H66  590   2.899   1.213   6.813 -3.2350  0.7198 -2.1134
    3MOL    C67  591   2.948   1.314   6.626  0.1525  0.2284 -0.7336
    3MOL    C68  592   2.816   1.276   6.552  0.2627 -0.2618  0.9753
    3MOL    C69  593   2.789   1.150   6.506  0.1779  0.5102  0.5490
    3MOL    C70  594   2.663   1.127   6.425 -0.1199  0.3856  0.5226
    3MOL    C71  595   2.888   1.032   6.502  0.5287  0.8489  0.3474
    3MOL    H72  596   3.031   1.253   6.589  0.9479  0.9288 -0.1348
    3MOL    H73  597   2.971   1.417   6.597  0.7941  0.4276  0.4593
    3MOL    H74  598   2.734   1.345   6.569  0.7452  0.2279  1.3287
    3MOL    H75  599   2.695   1.085   6.330  0.9396  1.0653  0.5816
    3MOL    H76  600   2.597   1.207   6.392 -1.9103 -0.4876  1.9007
    3MOL    H77  601   2.600   1.051   6.472  0.5585  0.3151  1.3116
    3MOL    H78  602   2.841   0.937   6.529  1.6327  0.0884 -0.3454
    3MOL    H79  603   2.961   1.040   6.582  1.9208 -0.9398 -0.7024
    3MOL    C80  604   2.970   1.034   6.375 -0.7405  0.8444  0.1155
    3MOL    C81  605   3.083   0.930   6.371 -0.3378 -0.5742  0.5220
    3MOL    C82  606   3.066   0.806   6.316 -0.1789  0.1198 -0.1210
    3MOL    C83  607   2.930   0.752   6.262 -0.4252 -0.2744 -0.6578
    3MOL    C84  608   3.194   0.709   6.301  0.4056 -0.1693 -0.1197
    3MOL    H85  609   3.008   1.135   6.361  0.2489  0.5266  0.3967
    3MOL    H86  610   2.909   1.013   6.287 -0.5380  1.0677 -0.0765
    3MOL    H87  611   3.183   0.952   6.407 -0.4682 -0.9568  1.1395
    3MOL    H88  612   2.931   0.750   6.153  1.7401 -0.6846 -0.6380
    3MOL    H89  613   2.833   0.802   6.274 -0.4678 -0.0848 -1.7585
    3MOL    H90  614   2.910   0.647   6.283 -0.5017  0.0827  1.1002
    3MOL    H91  615   3.168   0.605   6.321  0.8780 -0.4448 -0.9005
    3MOL    H92  616   3.261   0.751   6.376  0.1993  0.0615 -0.0641
    3MOL    C93  617   3.244   0.718   6.155  0.2113 -0.0748  0.2645
    3MOL    C94  618   3.328   0.593   6.130  0.0920  0.5029  0.9433
    3MOL    C95  619   3.465   0.579   6.136  0.6386 -0.3280 -0.7900
    3MOL    C96  620   3.545   0.452   6.099  0.0995 -0.0758  0.1217
    3MOL    C97  621   3.555   0.693   6.188  0.5294  0.5163  0.2482
    3MOL    H98  622   3.304   0.808   6.144 -0.3906  0.5297  1.7745
    3MOL    H99  623   3.158   0.723   6.088  1.7012  0.9303 -1.6105
    3MOL   H100  624   3.285   0.504   6.087 -2.8425  1.7874  1.0882
    3MOL   H101  625   3.589   0.402   6.186 -0.4047 -0.1115  0.3560
    3MOL   H102  626   3.480   0.377   6.053  0.7519 -1.8887  2.0482
    3MOL   H103  627   3.631   0.470   6.034  0.5730 -0.2433  0.6928
    3MOL   H104  628   3.624   0.660   6.265 -0.6007 -0.3873  0.8791
    3MOL   H105  629   3.488   0.759   6.242  0.8879  1.0810  0.0130
    3MOL   C106  630   3.632   0.762   6.075  0.7469  0.6379  0.8044
    3MOL   C107  631   3.704   0.885   6.126  0.5566  0.6687 -0.7618
    3MOL   C108  632   3.650   1.007   6.123 -0.0623 -0.1554  0.2891
    3MOL   C109  633   3.516   1.036   6.060 -0.5426  0.7135 -0.5661
    3MOL   C110  634   3.719   1.118   6.201  0.3960 -0.2143 -0.5479
    3MOL   H111  635   3.573   0.769   5.984  3.1255  0.8581 -0.7838
    3MOL   H112  636   3.712   0.698   6.037  1.0114  1.0381  0.6824
    3MOL   H113  637   3.793   0.862   6.184 -1.5524 -1.8990  1.6520
    3MOL   H114  638   3.519   0.990   5.962  2.2794  0.5861 -0.4728
    3MOL   H115  639   3.441   0.995   6.127  0.5127  1.6612  1.2560
    3MOL   H116  640   3.490   1.140   6.041  0.3218  0.7337 -1.6625
    3MOL   H117  641   3.797   1.074   6.263 -0.9093 -1.7352  0.0856
    3MOL   H118  642   3.645   1.166   6.265 -0.7027 -2.5352 -0.0249
    3MOL   C119  643   3.778   1.235   6.119  0.2183 -0.3955  0.3825
    3MOL   C120  644   3.881   1.179   6.020 -0.5209  0.3688 -0.1310
    3MOL   C121  645   3.890   1.203   5.887 -0.0127  0.2124  0.3269
    3MOL   C122  646   4.010   1.143   5.812  1.0120 -0.8526  0.2630
    3MOL   C123  647   3.791   1.277   5.796 -0.3840 -0.7066 -0.1120
    3MOL   H124  648   3.848   1.302   6.169 -1.5031 -0.1460  2.5026
    3MOL   H125  649   3.715   1.291   6.051 -0.2526  0.9493  1.8849
    3MOL   H126  650   3.957   1.117   6.066 -0.2624 -0.7073 -1.9626
    3MOL   H127  651   3.975   1.071   5.738  1.6384  0.7131 -1.6118
    3MOL   H128  652   4.085   1.108   5.883  1.1650  0.0942  0.5737
    3MOL   H129  653   4.063   1.222   5.758 -1.4966  0.8948  0.2555
    3MOL   H130  654   3.842   1.318   5.709  0.2686  0.1290  0.6528
    3MOL   H131  655   3.747   1.357   5.855  0.5370 -0.6357  0.4952
    3MOL   C132  656   3.680   1.188   5.738 -0.5525 -0.4913 -0.4687
    3MOL   C133  657   3.604   1.260   5.621  0.1923  0.5585 -0.1794
    3MOL   C134  658   3.567   1.215   5.502  0.0425 -0.8404 -0.1570
    3MOL   C135  659   3.482   1.305   5.416 -0.2549 -0.4298  0.2154
    3MOL   C136  660   3.589   1.075   5.452  0.7896 -0.1710 -0.7684
    3MOL   H137  661   3.621   1.154   5.824 -1.4054 -1.2054 -1.3269
    3MOL   H138  662   3.737   1.110   5.689  0.8038  0.8952 -1.1552
    3MOL   H139  663   3.586   1.363   5.646 -0.1003  0.5679 -0.4408
    3MOL   H140  664   3.479   1.405   5.459 -1.0622  0.7290 -2.4053
    3MOL   H141  665   3.382   1.266   5.396  0.0717 -1.5363  0.7030
    3MOL   H142  666   3.525   1.317   5.316 -0.4936 -2.4416 -0.1624
    3MOL   H143  667   3.508   1.048   5.384  0.1937  4.0029 -1.8178
    3MOL   H144  668   3.575   1.006   5.536 -0.4443  0.7754 -0.1811
    3MOL   C145  669   3.727   1.056   5.390 -0.2656 -0.7208 -0.2325
    3MOL   C146  670   3.741   0.915   5.345 -0.4324  0.0790 -0.0657
    3MOL   C147  671   3.774   0.861   5.223 -0.7252 -0.2406 -0.4704
    3MOL   C148  672   3.795   0.706   5.217 -0.0400 -0.5358 -0.4614
    3MOL   C149  673   3.820   0.947   5.107  0.0056  0.1574 -0.0686
    3MOL   H150  674   3.800   1.076   5.470  0.4777  0.9455 -1.2846
    3MOL   H151  675   3.753   1.117   5.303 -0.4969 -1.1335 -0.5876
    3MOL   H152  676   3.709   0.847   5.422  2.6802  0.6982  1.8816
    3MOL   H153  677   3.892   0.676   5.179 -1.3073 -1.2314 -3.2869
    3MOL   H154  678   3.720   0.679   5.143 -2.0986  0.7688  1.0795
    3MOL   H155  679   3.762   0.658   5.309 -1.0281 -0.5153 -0.7959
    3MOL   H156  680   3.927   0.939   5.122 -0.4047 -0.8514  2.7968
    3MOL   H157  681   3.797   1.053   5.120 -1.6736 -0.2179  0.1066
    3MOL   C158  682   3.786   0.890   4.973  0.3424  0.1305 -0.1104
    3MOL   C159  683   3.779   1.010   4.882 -0.4238  0.1665 -0.3777
    3MOL   C160  684   3.670   1.063   4.827 -0.2290 -0.7137  0.2372
    3MOL   C161  685   3.534   1.002   4.856 -0.4796  0.4237 -0.3801
    3MOL   C162  686   3.666   1.190   4.741 -0.2125  0.8186 -0.7815
    3MOL   H163  687   3.694   0.832   4.971 -0.1827  0.9178  1.1121
    3MOL   H164  688   3.862   0.817   4.943  0.2697 -0.5754  1.3883
    3MOL   H165  689   3.876   1.048   4.855 -0.2404 -0.4654 -0.6339
    3MOL   H166  690   3.524   0.908   4.801  1.0389 -1.2549  2.1100
    3MOL   H167  691   3.457   1.068   4.817 -1.0677  0.5626  0.9764
    3MOL   H168  692   3.511   0.995   4.962  1.1916  0.0452 -0.0205
    3MOL   H169  693   3.627   1.275   4.798  1.7700  1.1177  0.1590
    3MOL   H170  694   3.598   1.156   4.663 -0.2605  0.2578 -0.4974
    3MOL   C171  695   3.799   1.231   4.677 -0.6169  0.0552  0.7140
    3MOL   C172  696   3.778   1.299   4.542 -0.1553 -0.9371 -0.0339
    3MOL   C173  697   3.832   1.413   4.495  0.4918 -0.0588 -0.0388
    3MOL   C174  698   3.952   1.481   4.565  0.7325  0.6846  0.0823
    3MOL   C175  699   3.789   1.485   4.365  0.0378  0.1461 -0.1821
    3MOL   H176  700   3.870   1.149   4.665 -1.1675 -0.6484  2.1904
    3MOL   H177  701   3.849   1.303   4.741  2.5349 -0.0684 -1.5127
    3MOL   H178  702   3.700   1.258   4.479  0.3853  0.1262 -1.4175
    3MOL   H179  703   4.027   1.497   4.487  1.4475 -0.3397  0.5589
    3MOL   H180  704   3.993   1.408   4.635 -0.9078 -1.3499 -1.0376
    3MOL   H181  705   3.922   1.574   4.612  1.7070  1.5672 -0.9910
    3MOL   H182  706   3.852   1.449   4.284 -1.7004 -1.5909 -0.7917
    3MOL   H183  707   3.809   1.591   4.381 -0.7705  0.5306 -1.6246
    3MOL   C184  708   3.646   1.467   4.317  0.8460  0.4061  0.1736
    3MOL   C185  709   3.625   1.546   4.191  0.6271  0.0327  0.4382
    3MOL   C186  710   3.585   1.499   4.071 -0.7903  0.0076  0.1688
    3MOL   C187  711   3.577   1.587   3.944  0.1744  0.2557 -0.6121
    3MOL   C188  712   3.570   1.344   4.043 -0.1191  0.3235 -0.1046
    3MOL   H189  713   3.572   1.483   4.396 -0.4206  0.5162 -1.0097
    3MOL   H190  714   3.607   1.365   4.308  2.1692 -0.1359  0.5718
    3MOL   H191  715   3.640   1.651   4.209 -0.8888  0.4955 -0.8242
    3MOL   H192  716   3.481   1.616   3.901 -0.2058  1.2374  0.8510
    3MOL   H193  717   3.622   1.540   3.856  1.8322  1.7003 -0.5673
    3MOL   H194  718   3.642   1.674   3.958  3.1815 -2.3844  2.4143
    3MOL   H195  719   3.475   1.323   3.993 -0.4905  1.9779 -0.1271
    3MOL   H196  720   3.565   1.282   4.133 -0.1765 -1.0734 -1.0677
    3MOL   C197  721   3.693   1.291   3.963 -0.0254  0.1117  0.6420
    3MOL   C198  722   3.699   1.139   3.931 -0.4947  0.4697  0.3120
    3MOL   C199  723   3.739   1.043   4.016  0.1675  0.5496  0.5733
    3MOL   C200  724   3.736   0.907   3.961  0.1563  0.5865 -0.6649
    3MOL   C201  725   3.789   1.066   4.156 -0.7737 -0.6969 -0.7179
    3MOL   H202  726   3.788   1.320   4.008  0.2899 -0.6125  0.4413
    3MOL   H203  727   3.692   1.347   3.870 -0.2023 -1.8219 -0.5309
    3MOL   H204  728   3.677   1.110   3.829 -0.1711 -0.4897  0.5061
    3MOL   H205  729   3.700   0.907   3.858 -0.2699  1.7185 -0.5276
    3MOL   H206  730   3.680   0.844   4.030  1.4466  0.3799  0.2294
    3MOL   H207  731   3.837   0.867   3.956 -0.7854 -1.7017 -2.2884
    3MOL   H208  732   3.749   0.992   4.225  0.1819  0.1543  0.7580
    3MOL   H209  733   3.770   1.168   4.190  0.6047  0.9214 -4.5255
    3MOL   C210  734   3.939   1.040   4.166 -0.7852 -0.5775 -0.4417
    3MOL   C211  735   3.989   1.061   4.304 -0.0526  0.1742 -0.1034
    3MOL   C212  736   4.107   1.115   4.328 -0.4289  0.9316  0.5352
    3MOL   C213  737   4.144   1.150   4.470 -0.1602  0.0299  1.0493
    3MOL   C214  738   4.217   1.130   4.224  0.3734 -0.0891 -0.4871
    3MOL   H215  739   3.994   1.103   4.097  1.9063  0.4870  2.5876
    3MOL   H216  740   3.955   0.936   4.138  1.5458  0.2940 -2.5774
    3MOL   H217  741   3.915   1.054   4.383  0.2122 -0.0213  0.1299
    3MOL   H218  742   4.058   1.138   4.535 -0.6707  2.0715  0.7931
    3MOL   H219  743   4.174   1.255   4.462  0.2789 -0.2662 -2.2383
    3MOL   H220  744   4.228   1.086   4.498 -0.3323 -0.5706  0.2244
    3MOL   H221  745   4.198   1.058   4.144 -0.7538  0.1226 -0.4194
    3MOL   H222  746   4.313   1.111   4.271  0.8894 -0.3160 -1.6025
    3MOL   C223  747   4.218   1.282   4.176 -0.7588 -0.2002 -0.4126
    3MOL   C224  748   4.331   1.320   4.082  0.5764 -0.4963 -0.0661
    3MOL   C225  749   4.321   1.356   3.951  0.2594  0.3423 -0.3161
    3MOL   C226  750   4.450   1.405   3.880 -0.0510 -0.6025  0.0139
    3MOL   C227  751   4.197   1.368   3.866 -0.8592  0.0559  0.2227
    3MOL   H228  752   4.238   1.336   4.268 -1.0079 -1.6548  0.5192
    3MOL   H229  753   4.116   1.302   4.143 -1.3431  0.8744  1.9685
    3MOL   H230  754   4.428   1.310   4.127  0.9117 -0.1840 -0.7240
    3MOL   H231  755   4.471   1.347   3.790 -0.1243  1.3645 -1.3196
    3MOL   H232  756   4.535   1.392   3.947 -1.2238 -3.7180  1.0088
    3MOL   H233  757   4.440   1.510   3.851 -0.1223 -0.7040 -0.3375
    3MOL   H234  758   4.196   1.474   3.843 -0.4842 -0.2978 -1.5070
    3MOL   H235  759   4.103   1.361   3.922 -0.4453  1.4457  1.1122
    3MOL   C236  760   4.189   1.277   3.738  0.2122  0.3329  0.4589
    3MOL   C237  761   4.052   1.271   3.679 -0.2700 -0.0267 -0.0021
    3MOL   C238  762   3.992   1.340   3.585  0.1399  0.3532 -0.2119
    3MOL   C239  763   3.848   1.315   3.549 -0.0061 -0.3761 -0.0762
    3MOL   C240  764   4.054   1.453   3.503 -0.2384 -0.4461 -0.1068
    3MOL   H241  765   4.199   1.175   3.773  1.1012 -0.3081 -1.5654
    3MOL   H242  766   4.257   1.301   3.656  0.2617 -0.1814  0.3520
    3MOL   H243  767   3.999   1.186   3.718  1.2996  0.0034  2.3142
    3MOL   H244  768   3.796   1.397   3.598 -0.5347 -0.9147  0.2701
    3MOL   H245  769   3.809   1.221   3.588  1.1451 -0.6636  0.4049
    3MOL   H246  770   3.829   1.319   3.442  0.3254 -2.6936 -0.2526
    3MOL   H247  771   4.031   1.440   3.398  0.0316  0.3890 -0.2773
    3MOL   H248  772   4.161   1.438   3.518 -0.2840 -1.4447 -0.7694
    3MOL   C249  773   4.016   1.589   3.561 -0.5113 -0.1402  0.4307
    3MOL   C250  774   4.045   1.706   3.471 -0.7198 -0.2363  0.2546
    3MOL   C251  775   4.012   1.833   3.498  0.3235  0.1234 -0.0044
    3MOL   C252  776   4.048   1.945   3.400 -0.0498 -0.1586  0.1540
    3MOL   C253  777   3.966   1.885   3.635  0.2130 -0.1340 -0.0327
    3MOL   H254  778   4.065   1.606   3.657 -0.8570  0.2216  0.5433
    3MOL   H255  779   3.910   1.586   3.582 -0.3698  0.2008  1.1960
    3MOL   H256  780   4.093   1.673   3.380 -1.6318  1.9752 -1.0794
    3MOL   H257  781   3.970   2.020   3.411 -1.0598 -1.3082  0.9927
    3MOL   H258  782   4.044   1.906   3.298 -2.5883 -0.5658  0.3790
    3MOL   H259  783   4.142   1.997   3.420 -0.6511  0.6066  1.0037
    3MOL   H260  784   3.972   1.807   3.712 -0.2787 -0.9790 -0.8445
    3MOL   H261  785   3.861   1.914   3.633  0.1010 -0.3859  1.3363
    3MOL   H262  786   4.021   1.968   3.679 -0.3859 -0.4087  1.2910
    4MOL     C1  787   1.155   4.152   3.754 -0.0665 -0.2138 -0.4767
    4MOL     C2  788   1.069   4.258   3.694  0.0041  0.2835 -0.2729
    4MOL     C3  789   0.969   4.229   3.608 -0.7468 -0.8074 -0.7804
    4MOL     C4  790   0.878   4.342   3.562  0.1232  0.6171  0.3813
    4MOL     C5  791   0.942   4.090   3.555  0.6934  1.0572 -0.3316
    4MOL     H6  792   1.225   4.216   3.809 -0.2516 -1.3852  1.1696
    4MOL     H7  793   1.106   4.087   3.827 -1.7299  1.7875  0.2447
    4MOL     H8  794   1.100   4.357   3.723  0.7005 -0.1833  0.6154
    4MOL     H9  795   0.783   4.298   3.532  0.7831 -0.6850  0.1496
    4MOL    H10  796   0.920   4.384   3.471 -0.4433  3.8775  1.5529
    4MOL    H11  797   0.875   4.421   3.637  1.3183 -0.0567  1.1709
    4MOL    H12  798   0.836   4.064   3.552  0.4474  1.9679  0.2248
    4MOL    H13  799   0.984   4.016   3.623  1.9673 -0.1199 -2.3428
    4MOL    H14  800   1.200   4.087   3.679 -0.7355  0.3244 -1.3531
    4MOL    C15  801   1.017   4.071   3.424 -0.3013 -0.4908 -0.0352
    4MOL    C16  802   0.948   3.969   3.324 -0.5275  0.3558  0.1398
    4MOL    C17  803   0.882   3.991   3.210 -0.3866 -0.4168 -0.4797
    4MOL    C18  804   0.782   3.891   3.144  0.4976  0.2990 -0.6195
    4MOL    C19  805   0.912   4.116   3.124 -0.1257  0.2311  0.4705
    4MOL    H20  806   1.117   4.035   3.449  0.2583  0.6743 -0.5513
    4MOL    H21  807   1.041   4.165   3.375 -1.3292  0.6398  1.5995
    4MOL    H22  808   0.929   3.869   3.361 -0.3884 -0.4340 -1.8795
    4MOL    H23  809   0.719   3.849   3.222  0.6254  2.5629  0.7492
    4MOL    H24  810   0.831   3.813   3.086  1.1938  0.7243 -0.6058
    4MOL    H25  811   0.715   3.949   3.080 -1.3169  0.2174  1.1565
    4MOL    H26  812   0.964   4.199   3.171  1.1876  0.3403 -1.1416
    4MOL    H27  813   0.818   4.157   3.087 -0.4034 -2.2648 -1.7625
    4MOL    C28  814   0.989   4.080   2.998 -0.2207  0.3204 -0.4495
    4MOL    C29  815   1.132   4.051   3.018 -0.0087  0.1945 -0.3151
    4MOL    C30  816   1.228   4.099   2.936 -0.2278 -0.1296 -0.0944
    4MOL    C31  817   1.375   4.073   2.966  0.4771 -0.4209  0.1719
    4MOL    C32  818   1.212   4.183   2.808 -1.4101 -0.6964  0.0039
    4MOL    H33  819   0.983   4.165   2.931  1.0321 -1.0058 -2.3328
    4MOL    H34  820   0.935   3.993   2.960  1.6053 -1.7599  1.5565
    4MOL    H35  821   1.152   3.991   3.105 -0.3681  2.6724  1.5211
    4MOL    H36  822   1.390   4.034   3.067 -0.4189  1.0049  0.8571
    4MOL    H37  823   1.426   4.168   2.952  0.3624 -0.1205  1.6987
    4MOL    H38  824   1.416   4.000   2.896  0.3471 -0.4505  0.1250
    4MOL    H39  825   1.111   4.192   2.769 -1.2744  1.3033  0.0861
    4MOL    H40  826   1.251   4.118   2.729  0.7355 -0.5631  0.9130
    4MOL    C41  827   1.260   4.329   2.816 -0.4224 -0.4568  0.4038
    4MOL    C42  828   1.201   4.402   2.695 -0.0184 -0.2889 -0.4124
    4MOL    C43  829   1.259   4.470   2.597  0.1957  0.3711  0.2109
    4MOL    C44  830   1.183   4.539   2.484  0.5407 -0.6128 -0.2645
    4MOL    C45  831   1.408   4.483   2.578  0.4832  0.1610 -0.0825
    4MOL    H46  832   1.369   4.335   2.809 -0.0885 -2.7000  2.7794
    4MOL    H47  833   1.223   4.377   2.906  3.1298  1.1091  1.1250
    4MOL    H48  834   1.094   4.412   2.695  0.0239  0.2243 -1.6722
    4MOL    H49  835   1.188   4.647   2.479  0.0767 -0.6440 -1.5524
    4MOL    H50  836   1.077   4.516   2.496  0.6585  0.0062  2.2589
    4MOL    H51  837   1.222   4.504   2.389  1.6690  1.6748 -0.6761
    4MOL    H52  838   1.428   4.491   2.471  0.6137 -3.7197 -0.4010
    4MOL    H53  839   1.442   4.386   2.612  1.1831  0.7805  1.0050
    4MOL    C54  840   1.473   4.597   2.651 -0.4208  0.7710 -0.3776
    4MOL    C55  841   1.431   4.730   2.600 -0.1451 -0.5782 -0.0556
    4MOL    C56  842   1.495   4.820   2.527  0.1089  0.0377  0.1234
    4MOL    C57  843   1.431   4.960   2.532  0.1943  0.1001  0.3058
    4MOL    C58  844   1.625   4.802   2.449  0.2386 -0.2042 -0.3878
    4MOL    H59  845   1.581   4.585   2.656 -0.7783 -2.1402  1.4742
    4MOL    H60  846   1.443   4.594   2.756  0.1934 -1.0450 -0.2417
    4MOL    H61  847   1.339   4.751   2.653  0.0313 -1.8783  0.7877
    4MOL    H62  848   1.327   4.961   2.563 -0.0363 -0.8189 -0.3846
    4MOL    H63  849   1.426   5.004   2.432 -0.4292  1.0190  0.7476
    4MOL    H64  850   1.491   5.034   2.584  0.7864 -1.2539  1.6036
    4MOL    H65  851   1.666   4.702   2.463  0.2285 -0.2692 -0.8065
    4MOL    H66  852   1.696   4.877   2.484  0.0457  1.1873 -2.9069
    4MOL    C67  853   1.592   4.817   2.296  0.1199  0.1205 -1.2912
    4MOL    C68  854   1.506   4.704   2.251  0.3233 -0.1825 -0.0488
    4MOL    C69  855   1.411   4.708   2.150  0.0585  0.4641 -0.5001
    4MOL    C70  856   1.334   4.582   2.122  0.4265  0.5774 -0.1507
    4MOL    C71  857   1.379   4.835   2.071  0.1411  0.5418 -0.2509
    4MOL    H72  858   1.680   4.806   2.234  0.4232  0.3259 -0.8960
    4MOL    H73  859   1.545   4.913   2.277  0.3027  0.4678 -0.0818
    4MOL    H74  860   1.524   4.603   2.285 -0.9021  0.1787  1.7931
    4MOL    H75  861   1.377   4.495   2.171 -1.8603  1.4400  3.5660
    4MOL    H76  862   1.333   4.572   2.014  2.0866 -0.0919 -0.1306
    4MOL    H77  863   1.230   4.584   2.153 -0.2715 -1.6163 -2.1837
    4MOL    H78  864   1.363   4.802   1.969 -1.2601 -0.7584  0.3665
    4MOL    H79  865   1.475   4.886   2.065 -0.6180  2.0418  0.0559
    4MOL    C80  866   1.283   4.922   2.151 -0.5908 -0.8444 -1.0532
    4MOL    C81  867   1.283   5.059   2.087 -0.8602 -0.2071  0.5316
    4MOL    C82  868   1.256   5.181   2.140  0.0793  0.7096  0.2727
    4MOL    C83  869   1.226   5.198   2.285 -0.4433 -0.7206 -0.1835
    4MOL    C84  870   1.236   5.306   2.052 -0.6150 -0.0188  0.1789
    4MOL    H85  871   1.305   4.925   2.258 -2.7451  1.3006 -0.6223
    4MOL    H86  872   1.184   4.892   2.118  0.2377 -4.3431 -0.5116
    4MOL    H87  873   1.312   5.059   1.983 -1.6600  0.4022  0.2968
    4MOL    H88  874   1.245   5.107   2.343 -0.3613 -1.5884 -1.5352
    4MOL    H89  875   1.121   5.223   2.299 -0.9276 -0.6180 -3.6044
    4MOL    H90  876   1.288   5.276   2.329  0.1074 -2.3169  1.9908
    4MOL    H91  877   1.150   5.365   2.084  0.4016  0.6214  1.8142
    4MOL    H92  878   1.213   5.279   1.949 -4.1057 -0.7027  1.0798
    4MOL    C93  879   1.356   5.399   2.051 -0.3340  0.6043 -0.3739
    4MOL    C94  880   1.301   5.539   2.030  0.1636  0.0161 -0.3177
    4MOL    C95  881   1.241   5.623   2.120  0.8087  0.5885 -0.9794
    4MOL    C96  882   1.171   5.751   2.092  0.3293 -0.2924  1.3511
    4MOL    C97  883   1.238   5.600   2.277 -0.2090 -0.2198  0.0195
    4MOL    H98  884   1.416   5.377   1.963  1.7285  0.5524  1.0005
    4MOL    H99  885   1.417   5.399   2.142 -0.8459  2.0150 -0.0162
    4MOL   H100  886   1.309   5.571   1.927 -3.4979 -0.7373 -0.9182
    4MOL   H101  887   1.064   5.757   2.112 -0.2302 -1.0400 -1.2731
    4MOL   H102  888   1.195   5.835   2.157  0.8320 -0.1274  0.9570
    4MOL   H103  889   1.194   5.779   1.989 -0.4180 -2.4497  0.5648
    4MOL   H104  890   1.299   5.679   2.320  0.9455 -0.6517 -0.7799
    4MOL   H105  891   1.284   5.504   2.299  0.2370 -0.5322 -2.1592
    4MOL   C106  892   1.105   5.598   2.351  0.7481 -0.2413  0.0805
    4MOL   C107  893   1.141   5.543   2.490  0.2944  0.4736  0.3493
    4MOL   C108  894   1.149   5.618   2.604 -0.3513 -0.4442  0.1986
    4MOL   C109  895   1.130   5.761   2.608 -0.6636 -0.0720 -0.1680
    4MOL   C110  896   1.182   5.556   2.741  0.2526 -0.0740 -0.0006
    4MOL   H111  897   1.029   5.534   2.305  0.4429  0.9868 -1.1730
    4MOL   H112  898   1.054   5.695   2.357  1.2101 -0.0932  1.6917
    4MOL   H113  899   1.162   5.437   2.488 -0.6022  0.2799  0.9733
    4MOL   H114  900   1.029   5.794   2.628 -0.2262  0.0725  1.9649
    4MOL   H115  901   1.202   5.789   2.686  0.5193  1.6993 -1.8571
    4MOL   H116  902   1.170   5.809   2.519  1.7198  1.2710  1.5563
    4MOL   H117  903   1.277   5.600   2.771  0.9512 -1.8733  0.4275
    4MOL   H118  904   1.188   5.448   2.734 -0.3399 -0.0573 -0.8191
    4MOL   C119  905   1.072   5.583   2.848 -0.1529  0.3151  0.0068
    4MOL   C120  906   1.111   5.534   2.979 -0.4270  0.2216 -0.6098
    4MOL   C121  907   1.121   5.605   3.091 -0.3687 -0.7764 -0.4352
    4MOL   C122  908   1.167   5.537   3.220 -0.1421  0.1165 -0.6381
    4MOL   C123  909   1.108   5.758   3.106  0.3245  0.0645  0.1513
    4MOL   H124  910   0.980   5.532   2.820 -0.7634  0.3383  1.9229
    4MOL   H125  911   1.049   5.690   2.855 -1.5440 -0.0233  0.7888
    4MOL   H126  912   1.132   5.428   2.981 -2.8304 -0.2792 -0.5618
    4MOL   H127  913   1.156   5.428   3.226  2.0994 -0.1474 -1.0829
    4MOL   H128  914   1.105   5.590   3.292 -0.4288  1.6150 -1.9624
    4MOL   H129  915   1.270   5.566   3.242 -0.8054  1.8697  0.2382
    4MOL   H130  916   1.073   5.786   3.206 -0.1299 -1.0280  0.3019
    4MOL   H131  917   1.034   5.797   3.036  0.4395 -0.7523 -0.4263
    4MOL   C132  918   1.249   5.824   3.087  0.5230  0.1558  0.5973
    4MOL   C133  919   1.261   5.975   3.068 -0.2069  0.0934 -0.0361
    4MOL   C134  920   1.355   6.061   3.118 -0.5054 -0.1107 -0.3865
    4MOL   C135  921   1.327   6.214   3.105 -0.0710 -0.0943 -0.0002
    4MOL   C136  922   1.469   6.019   3.202  0.2011 -0.6499  0.4695
    4MOL   H137  923   1.285   5.770   3.000  0.2049  0.2832  0.3844
    4MOL   H138  924   1.315   5.791   3.167  0.2993 -1.5313  0.1038
    4MOL   H139  925   1.178   6.020   3.016  0.2597  0.6471 -0.3153
    4MOL   H140  926   1.226   6.234   3.070  0.6030 -0.5996 -2.3604
    4MOL   H141  927   1.411   6.260   3.053 -0.8205  1.5237  0.2118
    4MOL   H142  928   1.335   6.246   3.209 -1.8664  1.6447 -0.3666
    4MOL   H143  929   1.502   5.915   3.208  1.5046 -0.1242  3.2371
    4MOL   H144  930   1.455   6.053   3.304  0.5856  0.9780 -0.0048
    4MOL   C145  931   1.589   6.089   3.159  0.0370 -0.0745  0.0663
    4MOL   C146  932   1.709   6.036   3.241 -0.6510  0.5239 -0.0332
    4MOL   C147  933   1.833   6.011   3.207 -0.2909 -0.3440 -0.2915
    4MOL   C148  934   1.944   5.976   3.309 -0.2733 -0.2932  0.2693
    4MOL   C149  935   1.888   6.041   3.068  0.0607 -0.1714  0.4792
    4MOL   H150  936   1.580   6.197   3.173 -0.2566 -0.0333 -0.4551
    4MOL   H151  937   1.611   6.075   3.053 -0.0991 -0.5884  0.1046
    4MOL   H152  938   1.686   6.020   3.345  2.6048  0.1444  0.6645
    4MOL   H153  939   2.010   6.059   3.333  0.5799 -0.4570 -1.4002
    4MOL   H154  940   2.007   5.894   3.274  3.3752  2.2129  0.7134
    4MOL   H155  941   1.903   5.936   3.401  0.2331 -1.7003 -0.1033
    4MOL   H156  942   1.981   6.093   3.089  0.5760 -0.8120 -0.2037
    4MOL   H157  943   1.819   6.107   3.015  0.5280  0.9134  1.1913
    4MOL   C158  944   1.927   5.917   2.982  0.3769 -0.7828  0.4848
    4MOL   C159  945   1.808   5.838   2.948 -0.1344  0.6061 -0.0527
    4MOL   C160  946   1.790   5.704   2.960 -0.5526 -0.4946  0.1013
    4MOL   C161  947   1.888   5.614   3.038 -0.0351  0.3576 -0.0164
    4MOL   C162  948   1.665   5.639   2.904  0.4438 -0.2318 -1.0296
    4MOL   H163  949   2.001   5.845   3.018  1.0085 -0.0920  0.5848
    4MOL   H164  950   1.977   5.950   2.891  1.4349 -0.9434  1.0011
    4MOL   H165  951   1.727   5.896   2.905 -0.6307  0.0324  0.1021
    4MOL   H166  952   1.822   5.542   3.086 -0.5957  1.1270  0.3695
    4MOL   H167  953   1.955   5.664   3.109  0.2776  0.9190 -0.7004
    4MOL   H168  954   1.954   5.555   2.973  0.9583 -0.0002  1.2867
    4MOL   H169  955   1.689   5.541   2.863 -2.3315 -1.9076  1.1215
    4MOL   H170  956   1.633   5.690   2.814 -0.7606  0.3095 -0.3086
    4MOL   C171  957   1.552   5.643   3.016 -0.2095 -0.4741  0.1102
    4MOL   C172  958   1.585   5.537   3.124  0.0815 -0.4319  0.0815
    4MOL   C173  959   1.531   5.415   3.132 -0.2715 -0.6064  0.0172
    4MOL   C174  960   1.439   5.360   3.022 -0.1635 -0.2782 -0.5335
    4MOL   C175  961   1.552   5.299   3.235 -0.2523  0.2210 -0.3268
    4MOL   H176  962   1.449   5.633   2.982  0.9113 -0.0099 -3.6863
    4MOL   H177  963   1.544   5.739   3.068 -1.2127  1.5365 -3.6047
    4MOL   H178  964   1.639   5.577   3.209 -0.8002  0.5237  0.2006
    4MOL   H179  965   1.491   5.269   2.989  1.0897  0.6269 -1.0956
    4MOL   H180  966   1.427   5.433   2.942  0.7280  2.4996  1.8318
    4MOL   H181  967   1.339   5.337   3.059 -1.4987  1.3166 -3.0266
    4MOL   H182  968   1.581   5.205   3.189 -1.4445 -0.1703 -0.2890
    4MOL   H183  969   1.455   5.286   3.283  0.2120  0.9101  0.8228
    4MOL   C184  970   1.660   5.332   3.342  0.4025 -0.4156 -0.5931
    4MOL   C185  971   1.664   5.225   3.456  0.3697 -0.6357 -0.2263
    4MOL   C186  972   1.777   5.204   3.530  0.4412  0.4508 -0.1111
    4MOL   C187  973   1.769   5.110   3.647 -0.5747 -0.0460  0.6260
    4MOL   C188  974   1.906   5.266   3.500 -1.0590  0.1449 -0.3984
    4MOL   H189  975   1.635   5.423   3.398  1.7145  0.2016 -1.0018
    4MOL   H190  976   1.751   5.367   3.293 -0.3457  0.6824 -1.2487
    4MOL   H191  977   1.569   5.186   3.489  0.0480  0.8239  0.5799
    4MOL   H192  978   1.794   5.154   3.744 -0.2151  0.0172  0.5034
    4MOL   H193  979   1.835   5.024   3.636  1.6000  1.6480  0.0259
    4MOL   H194  980   1.667   5.073   3.657 -0.3631 -0.8917 -0.2247
    4MOL   H195  981   1.960   5.256   3.594 -1.9629  3.0688  0.4740
    4MOL   H196  982   1.906   5.373   3.478  0.6146  0.4322  0.9392
    4MOL   C197  983   1.978   5.170   3.392 -0.5833 -0.2295  0.5033
    4MOL   C198  984   2.122   5.214   3.380 -0.0751  0.1435 -0.2362
    4MOL   C199  985   2.233   5.134   3.381  0.2545 -0.1065 -0.1637
    4MOL   C200  986   2.367   5.193   3.360 -0.4229 -0.1577 -0.5369
    4MOL   C201  987   2.223   4.985   3.380  0.3143 -0.3922 -0.7244
    4MOL   H202  988   1.927   5.171   3.296  0.1606 -0.6790  0.0979
    4MOL   H203  989   1.970   5.074   3.442 -1.4130 -0.0800  0.6687
    4MOL   H204  990   2.138   5.320   3.367  2.5831 -0.0437  1.1186
    4MOL   H205  991   2.434   5.152   3.436 -1.4238  0.3590  0.6290
    4MOL   H206  992   2.362   5.301   3.367 -0.7277 -0.1942 -0.2016
    4MOL   H207  993   2.386   5.166   3.256 -2.6795  0.2472 -1.0647
    4MOL   H208  994   2.315   4.960   3.327 -0.1820  0.7018 -2.1416
    4MOL   H209  995   2.142   4.947   3.317  0.1136 -0.8255 -0.2106
    4MOL   C210  996   2.227   4.912   3.516  0.4617 -0.0275  0.1936
    4MOL   C211  997   2.239   4.759   3.490 -0.4293  0.1961  0.1685
    4MOL   C212  998   2.282   4.659   3.572  0.1289  0.0838 -0.8102
    4MOL   C213  999   2.279   4.508   3.549  0.2014 -0.2317 -0.5539
    4MOL   C214 1000   2.313   4.689   3.718  0.2184 -0.4569  0.0201
    4MOL   H215 1001   2.129   4.929   3.560  0.6221  2.8089 -0.4635
    4MOL   H216 1002   2.307   4.946   3.581  0.0024  0.8613  0.2967
    4MOL   H217 1003   2.209   4.736   3.389  3.3405  0.7166 -1.1201
    4MOL   H218 1004   2.378   4.461   3.549  0.8774  1.0786  1.9371
    4MOL   H219 1005   2.233   4.488   3.453 -0.9431 -1.0710  0.1583
    4MOL   H220 1006   2.215   4.452   3.617  0.6109  0.7339  0.6414
    4MOL   H221 1007   2.274   4.609   3.782  0.9795 -1.9476 -1.3317
    4MOL   H222 1008   2.267   4.782   3.750 -1.7531 -1.6415  0.7416
    4MOL   C223 1009   2.467   4.702   3.736  0.4657 -0.4362 -0.5880
    4MOL   C224 1010   2.501   4.678   3.881  0.3122 -0.7199 -0.9488
    4MOL   C225 1011   2.566   4.760   3.961  0.4814 -0.5809 -0.4468
    4MOL   C226 1012   2.603   4.711   4.102 -0.1984  0.6571 -0.0848
    4MOL   C227 1013   2.610   4.904   3.927 -0.1413 -0.2801 -0.0512
    4MOL   H228 1014   2.496   4.794   3.686 -1.0027  0.1803 -0.3372
    4MOL   H229 1015   2.516   4.622   3.681 -0.2746 -0.7850 -0.7511
    4MOL   H230 1016   2.472   4.579   3.914 -1.9857 -1.1008 -3.8971
    4MOL   H231 1017   2.710   4.691   4.098 -0.1951  1.0042 -4.3024
    4MOL   H232 1018   2.570   4.613   4.138 -0.1213  1.2390  1.6086
    4MOL   H233 1019   2.573   4.782   4.180  1.2516  2.2757 -0.9798
    4MOL   H234 1020   2.558   4.975   3.991 -0.7104 -0.7160 -0.0273
    4MOL   H235 1021   2.587   4.921   3.822 -0.3435  0.9826  0.1940
    4MOL   C236 1022   2.758   4.929   3.951  0.0106 -0.0810  0.3021
    4MOL   C237 1023   2.802   5.057   3.896 -0.3163 -0.0335 -0.4788
    4MOL   C238 1024   2.856   5.160   3.967 -0.8425 -0.0363  0.6328
    4MOL   C239 1025   2.903   5.281   3.889  0.1445 -0.0626  0.8931
    4MOL   C240 1026   2.892   5.163   4.117  0.2179  0.5268  0.0226
    4MOL   H241 1027   2.817   4.851   3.903 -0.2764 -0.1034 -0.0185
    4MOL   H242 1028   2.780   4.932   4.057 -0.9219  0.6065  0.4821
    4MOL   H243 1029   2.800   5.067   3.789 -1.6860  0.5660 -0.4092
    4MOL   H244 1030   3.010   5.276   3.869 -0.1519  1.3618 -1.1446
    4MOL   H245 1031   2.881   5.367   3.953  0.6588  1.2748 -0.6943
    4MOL   H246 1032   2.849   5.284   3.795  1.5339 -3.5926 -0.0920
    4MOL   H247 1033   2.803   5.125   4.168 -0.9742  2.0086 -0.9131
    4MOL   H248 1034   2.897   5.267   4.149  2.2566 -0.1888  2.1844
    4MOL   C249 1035   3.028   5.098   4.133  0.3913 -0.6192  0.4591
    4MOL   C250 1036   3.049   5.073   4.274 -0.3053 -0.4760 -1.0849
    4MOL   C251 1037   3.146   5.115   4.360 -0.2566 -0.3706  0.3621
    4MOL   C252 1038   3.153   5.068   4.502  0.8474 -0.1564  0.2343
    4MOL   C253 1039   3.265   5.207   4.326 -0.0220  0.4928 -0.1619
    4MOL   H254 1040   3.102   5.170   4.097 -1.8350  3.1250  2.9994
    4MOL   H255 1041   3.047   5.012   4.069  1.0111  0.4052 -0.7609
    4MOL   H256 1042   2.976   5.001   4.306  1.5819 -2.1346 -0.3803
    4MOL   H257 1043   3.235   4.996   4.503 -0.4419 -1.7108 -2.0117
    4MOL   H258 1044   3.061   5.017   4.530 -0.1470  1.8817  0.7609
    4MOL   H259 1045   3.177   5.147   4.573 -0.6901  0.5514 -0.0127
    4MOL   H260 1046   3.268   5.303   4.378 -0.5690 -0.6289  1.9668
    4MOL   H261 1047   3.277   5.228   4.220  0.3253  2.2144  0.1997
    4MOL   H262 1048   3.359   5.154   4.343  0.0070  1.0339  1.4484
    5MOL     C1 1049   5.069   1.123   3.779 -0.0912  0.0801  0.5451
    5MOL     C2 1050   4.924   1.151   3.733  0.3921  0.0604 -0.2902
    5MOL     C3 1051   4.836   1.072   3.666 -0.4758  0.0948  0.6795
    5MOL     C4 1052   4.694   1.122   3.638 -0.1553  0.2124 -0.5770
    5MOL     C5 1053   4.856   0.924   3.637 -0.0400 -0.0376  0.1229
    5MOL     H6 1054   5.101   1.031   3.731  0.3304  0.5605 -0.0882
    5MOL     H7 1055   5.140   1.199   3.746  1.6289 -1.9931 -0.6048
    5MOL     H8 1056   4.884   1.250   3.748  0.3775 -0.0401  0.3211
    5MOL     H9 1057   4.637   1.095   3.727  2.3682 -2.1791  0.4058
    5MOL    H10 1058   4.642   1.097   3.546 -1.6793  1.1527  0.0174
    5MOL    H11 1059   4.698   1.231   3.637 -2.0712  0.3000 -0.2772
    5MOL    H12 1060   4.804   0.870   3.716  0.2857 -0.8841 -0.2387
    5MOL    H13 1061   4.964   0.913   3.642  0.2261  1.1808 -2.2418
    5MOL    H14 1062   5.069   1.116   3.888 -2.5967 -2.3422  0.4375
    5MOL    C15 1063   4.816   0.872   3.502  0.2765 -0.3284 -0.6900
    5MOL    C16 1064   4.863   0.731   3.483  0.0689  0.0945  0.0589
    5MOL    C17 1065   4.946   0.677   3.395  0.2075 -0.9611 -0.2898
    5MOL    C18 1066   4.955   0.528   3.376  0.4679  0.3130 -0.7421
    5MOL    C19 1067   5.014   0.757   3.289  0.2934 -0.1219  0.3354
    5MOL    H20 1068   4.849   0.942   3.425 -0.9544 -0.1813 -1.0876
    5MOL    H21 1069   4.707   0.871   3.507  0.2492  1.2038 -0.8349
    5MOL    H22 1070   4.820   0.650   3.540  0.3880  1.2415  1.9775
    5MOL    H23 1071   4.991   0.493   3.280  0.0544 -0.1967 -0.7167
    5MOL    H24 1072   4.848   0.504   3.374  0.3979  0.7547 -2.7579
    5MOL    H25 1073   5.003   0.476   3.459 -0.7769  0.8413  0.3321
    5MOL    H26 1074   4.995   0.865   3.291 -1.6337 -0.4429  0.1141
    5MOL    H27 1075   4.986   0.712   3.194  0.8706  0.7812 -0.2781
    5MOL    C28 1076   5.166   0.738   3.289 -0.3743  0.4966 -0.2745
    5MOL    C29 1077   5.223   0.780   3.154  0.5507  0.6114 -0.7705
    5MOL    C30 1078   5.260   0.707   3.047 -0.1096 -0.5005 -0.4588
    5MOL    C31 1079   5.316   0.771   2.919 -0.3064 -0.0743 -0.1895
    5MOL    C32 1080   5.265   0.556   3.050  0.0758  0.2326  0.2220
    5MOL    H33 1081   5.197   0.635   3.308  0.5781  1.1919  2.1075
    5MOL    H34 1082   5.206   0.797   3.371 -1.0067 -0.1585  0.5135
    5MOL    H35 1083   5.237   0.886   3.136  0.9808  0.7757  0.4747
    5MOL    H36 1084   5.284   0.875   2.915  0.1310  0.0569 -0.2247
    5MOL    H37 1085   5.262   0.710   2.846 -0.3961  1.0138 -1.0464
    5MOL    H38 1086   5.421   0.744   2.913 -0.7774 -1.8669 -0.8260
    5MOL    H39 1087   5.197   0.531   2.968  0.8183  1.9548 -0.9696
    5MOL    H40 1088   5.228   0.519   3.145  3.5008  0.7009  1.8242
    5MOL    C41 1089   5.404   0.497   3.026  0.9626  0.3167 -0.0269
    5MOL    C42 1090   5.414   0.357   3.083 -0.1568 -0.3463 -0.3660
    5MOL    C43 1091   5.368   0.241   3.040 -0.4128  0.0211  0.1376
    5MOL    C44 1092   5.405   0.113   3.109 -0.3386 -0.2935  0.1274
    5MOL    C45 1093   5.294   0.229   2.904  0.0888  0.7204  0.5871
    5MOL    H46 1094   5.472   0.548   3.094  0.6244 -0.8196  1.1773
    5MOL    H47 1095   5.427   0.503   2.919  0.0310 -2.1874 -0.4143
    5MOL    H48 1096   5.470   0.363   3.175 -0.0524  0.2677 -0.4685
    5MOL    H49 1097   5.491   0.065   3.064  0.5393  1.4808 -0.1291
    5MOL    H50 1098   5.324   0.049   3.146 -2.3589  0.1606 -3.2944
    5MOL    H51 1099   5.453   0.139   3.203  1.7505  0.5622 -1.1570
    5MOL    H52 1100   5.267   0.325   2.860 -1.9997 -0.5406 -0.9969
    5MOL    H53 1101   5.208   0.168   2.933  0.5913 -0.7405 -0.9385
    5MOL    C54 1102   5.378   0.137   2.804  0.0849 -0.5676 -0.5073
    5MOL    C55 1103   5.332   0.157   2.659 -0.3678  0.1887  0.1011
    5MOL    C56 1104   5.269   0.067   2.586  0.4268  0.0427 -0.0009
    5MOL    C57 1105   5.229   0.089   2.444 -0.5294  0.2188  0.8697
    5MOL    C58 1106   5.240   7.808   2.645 -0.2780 -0.0969  0.0121
    5MOL    H59 1107   5.354   0.039   2.846 -0.3391  0.0219  0.6238
    5MOL    H60 1108   5.483   0.157   2.823 -0.3352 -0.2576  1.5550
    5MOL    H61 1109   5.364   0.247   2.609  3.2935 -1.1125 -0.1002
    5MOL    H62 1110   5.312   0.056   2.382 -0.6148  0.9882  0.3453
    5MOL    H63 1111   5.211   0.196   2.434 -1.2133  0.1888  1.6684
    5MOL    H64 1112   5.145   0.023   2.423 -1.4033  0.8376  2.3164
    5MOL    H65 1113   5.137   7.780   2.622 -0.9084 -0.1683  2.7438
    5MOL    H66 1114   5.217   7.812   2.752 -3.6411  0.8479 -0.6740
    5MOL    C67 1115   5.323   7.691   2.606 -0.1315  0.0331 -0.5801
    5MOL    C68 1116   5.275   7.555   2.669  0.2335 -0.6021 -0.1602
    5MOL    C69 1117   5.190   7.460   2.616  0.4071  0.0840 -0.0890
    5MOL    C70 1118   5.166   7.327   2.693  0.2762 -0.4789  0.1967
    5MOL    C71 1119   5.124   7.471   2.484  0.7431  0.0125 -0.0789
    5MOL    H72 1120   5.426   7.711   2.635 -0.1904 -0.9809  0.3692
    5MOL    H73 1121   5.313   7.683   2.498  2.1490  1.9953 -0.9728
    5MOL    H74 1122   5.320   7.534   2.765  0.3274  1.0330  0.1686
    5MOL    H75 1123   5.188   7.233   2.642  0.2149 -1.2313  1.5357
    5MOL    H76 1124   5.060   7.319   2.717 -0.1629  2.4401 -0.5506
    5MOL    H77 1125   5.215   7.336   2.790  1.1090 -1.0799 -0.1544
    5MOL    H78 1126   5.101   7.575   2.463 -0.1484 -0.4797 -1.5921
    5MOL    H79 1127   5.027   7.421   2.477  1.9780 -2.6438  0.8839
    5MOL    C80 1128   5.215   7.431   2.364  0.0180  1.0395 -0.5301
    5MOL    C81 1129   5.220   7.284   2.339  0.2866 -1.2164 -0.4239
    5MOL    C82 1130   5.217   7.216   2.221 -0.7723 -0.1257  0.5145
    5MOL    C83 1131   5.238   7.285   2.083 -0.6154 -0.0876  0.2029
    5MOL    C84 1132   5.213   7.066   2.215  0.2486  0.4730 -0.0694
    5MOL    H85 1133   5.317   7.453   2.395 -0.3480 -0.3835  1.8460
    5MOL    H86 1134   5.188   7.495   2.280  1.1724 -2.6168 -3.8173
    5MOL    H87 1135   5.211   7.220   2.426  0.1611 -2.2750 -1.2005
    5MOL    H88 1136   5.233   7.394   2.092  0.4828  0.0724 -0.9912
    5MOL    H89 1137   5.159   7.255   2.014  0.5622 -0.8599 -0.8155
    5MOL    H90 1138   5.325   7.254   2.026 -2.5709  0.8090 -3.4103
    5MOL    H91 1139   5.206   7.017   2.312 -1.4562 -2.1370 -1.4362
    5MOL    H92 1140   5.310   7.030   2.180  0.5917  0.2011  1.1222
    5MOL    C93 1141   5.102   7.003   2.128 -0.5036 -0.6772 -0.1424
    5MOL    C94 1142   5.088   6.852   2.141  0.2456 -0.1663  0.4730
    5MOL    C95 1143   4.976   6.779   2.132  0.5490  0.5818 -0.4807
    5MOL    C96 1144   4.970   6.622   2.145  0.2008  0.4416 -0.6099
    5MOL    C97 1145   4.838   6.845   2.122 -0.0186 -0.2094 -0.4054
    5MOL    H98 1146   5.113   7.031   2.023  0.4616 -0.1498  0.0922
    5MOL    H99 1147   5.014   7.057   2.164 -0.6851  0.2788 -1.9682
    5MOL   H100 1148   5.182   6.799   2.151 -0.4355 -1.3506  0.6382
    5MOL   H101 1149   4.963   6.601   2.252  0.4656  1.3130 -0.4117
    5MOL   H102 1150   4.890   6.572   2.091  1.3098 -0.8248 -1.1289
    5MOL   H103 1151   5.062   6.576   2.109  0.1983  0.5722 -0.7847
    5MOL   H104 1152   4.771   6.801   2.047 -0.8953 -1.2311  0.9593
    5MOL   H105 1153   4.840   6.942   2.072 -2.0481 -0.3670 -0.8384
    5MOL   C106 1154   4.768   6.851   2.256  0.5241  1.3679  0.6143
    5MOL   C107 1155   4.829   6.961   2.347 -0.6831 -0.6502  0.0441
    5MOL   C108 1156   4.860   6.949   2.479 -0.4799  0.0042  0.4644
    5MOL   C109 1157   4.829   6.829   2.557 -0.3889  0.8040 -0.4011
    5MOL   C110 1158   4.904   7.077   2.555  0.4848 -0.3133 -0.4160
    5MOL   H111 1159   4.755   6.757   2.310  1.9925  0.1072 -1.1935
    5MOL   H112 1160   4.666   6.887   2.251 -0.7697 -1.8910  1.9299
    5MOL   H113 1161   4.843   7.058   2.301 -0.1424  0.0190  1.6164
    5MOL   H114 1162   4.736   6.842   2.613  0.0426  1.3045  0.2037
    5MOL   H115 1163   4.823   6.729   2.515 -0.6770  0.4287  0.5046
    5MOL   H116 1164   4.907   6.823   2.633 -0.3382  2.6018 -0.2787
    5MOL   H117 1165   4.976   7.130   2.492  0.4129 -0.5402 -0.6899
    5MOL   H118 1166   4.974   7.053   2.635  2.7891  2.1601 -1.5941
    5MOL   C119 1167   4.780   7.170   2.600  0.1867  0.2557 -0.5284
    5MOL   C120 1168   4.710   7.121   2.727 -0.4428  0.6289  0.4665
    5MOL   C121 1169   4.714   7.179   2.844  0.4888 -0.2962 -0.1457
    5MOL   C122 1170   4.627   7.133   2.963 -0.1088  0.4068 -0.2526
    5MOL   C123 1171   4.798   7.298   2.883 -0.1519  0.3878 -0.2067
    5MOL   H124 1172   4.701   7.164   2.525 -0.6853  1.9870  0.2031
    5MOL   H125 1173   4.791   7.278   2.592  0.2000  0.4128  1.2811
    5MOL   H126 1174   4.648   7.034   2.712  1.5390 -1.1209  2.0064
    5MOL   H127 1175   4.689   7.096   3.045 -1.7865 -1.5833  0.1685
    5MOL   H128 1176   4.556   7.053   2.944 -0.2078  0.1220  1.1922
    5MOL   H129 1177   4.568   7.221   2.987  0.7096  0.9997 -0.3835
    5MOL   H130 1178   4.887   7.296   2.820  1.4082 -2.5461  1.8925
    5MOL   H131 1179   4.839   7.285   2.984 -2.0700 -1.5365  0.3763
    5MOL   C132 1180   4.734   7.435   2.878  0.6878 -0.1045 -0.7399
    5MOL   C133 1181   4.838   7.546   2.864 -0.2094  0.0753 -0.4018
    5MOL   C134 1182   4.889   7.624   2.960  0.4147 -0.3843  0.2479
    5MOL   C135 1183   4.984   7.738   2.924  0.1593 -0.1301  0.1412
    5MOL   C136 1184   4.868   7.607   3.111 -0.8626 -0.0823  0.9872
    5MOL   H137 1185   4.664   7.462   2.957 -0.0869 -0.6133 -1.2432
    5MOL   H138 1186   4.676   7.446   2.786 -0.4636 -5.1529 -0.7532
    5MOL   H139 1187   4.878   7.557   2.764  1.8399  1.2734  0.5078
    5MOL   H140 1188   5.086   7.701   2.913  0.9913  2.0748  0.2920
    5MOL   H141 1189   4.982   7.825   2.989 -1.1171  0.8646 -1.1729
    5MOL   H142 1190   4.974   7.780   2.823  0.6697  0.0530  0.1642
    5MOL   H143 1191   4.962   7.614   3.165  0.0784 -1.7204 -0.3810
    5MOL   H144 1192   4.829   7.514   3.154  1.8468 -2.0170 -0.5655
    5MOL   C145 1193   4.775   7.722   3.162 -1.0013 -0.0902 -0.1404
    5MOL   C146 1194   4.751   7.717   3.312 -0.4958  0.1211 -0.0416
    5MOL   C147 1195   4.643   7.666   3.368 -0.2004 -0.1355 -0.3128
    5MOL   C148 1196   4.626   7.645   3.520  0.6605 -0.1617  0.2744
    5MOL   C149 1197   4.516   7.619   3.293  0.1639  0.5066 -0.3565
    5MOL   H150 1198   4.691   7.711   3.094 -1.0915  2.1207 -0.4280
    5MOL   H151 1199   4.816   7.822   3.144  1.4620 -1.3062 -1.4411
    5MOL   H152 1200   4.835   7.749   3.372  1.5134  0.8969 -3.1349
    5MOL   H153 1201   4.624   7.538   3.542  1.1302 -0.6143 -1.7223
    5MOL   H154 1202   4.538   7.701   3.549  1.1438  0.2082  1.0480
    5MOL   H155 1203   4.714   7.665   3.582  1.9213 -1.4792 -1.0392
    5MOL   H156 1204   4.511   7.664   3.194 -3.9253 -2.0884 -1.4306
    5MOL   H157 1205   4.428   7.645   3.352 -0.9636 -1.2438 -1.2038
    5MOL   C158 1206   4.531   7.467   3.280  0.0479 -0.0166  0.6101
    5MOL   C159 1207   4.404   7.399   3.233  0.1494  0.7624 -1.3573
    5MOL   C160 1208   4.369   7.269   3.252  0.3041 -0.3708  0.3244
    5MOL   C161 1209   4.450   7.178   3.347 -0.2996 -0.3223  0.1146
    5MOL   C162 1210   4.261   7.206   3.166  0.2059 -0.8512 -0.3422
    5MOL   H163 1211   4.572   7.422   3.370  2.5282 -0.3850 -0.6772
    5MOL   H164 1212   4.607   7.441   3.206 -1.6752 -2.4076 -0.3903
    5MOL   H165 1213   4.353   7.451   3.153 -3.4684 -0.8272 -0.1629
    5MOL   H166 1214   4.513   7.227   3.422  0.5050  1.0143 -1.4156
    5MOL   H167 1215   4.518   7.119   3.286 -0.0613 -1.6025  1.5887
    5MOL   H168 1216   4.391   7.108   3.406 -0.6186 -1.1137 -1.1366
    5MOL   H169 1217   4.313   7.127   3.112  0.5770 -0.9563  0.1628
    5MOL   H170 1218   4.216   7.282   3.102 -0.1332 -0.3977  0.4326
    5MOL   C171 1219   4.140   7.146   3.242 -0.1347  0.4738  0.2152
    5MOL   C172 1220   4.062   7.058   3.146  0.1713  0.2723  0.4179
    5MOL   C173 1221   4.103   6.946   3.089  0.1681 -0.2224 -0.6248
    5MOL   C174 1222   4.222   6.860   3.128  0.2446  0.2345 -0.2145
    5MOL   C175 1223   4.017   6.876   2.982  0.8230  0.2409  0.3701
    5MOL   H176 1224   4.071   7.224   3.273 -0.9964 -0.1863 -0.0040
    5MOL   H177 1225   4.174   7.085   3.326  0.8572  0.5776 -0.1018
    5MOL   H178 1226   3.967   7.093   3.107 -0.1004  0.2513  1.0505
    5MOL   H179 1227   4.277   6.810   3.047 -1.9014 -0.0057 -1.5660
    5MOL   H180 1228   4.192   6.770   3.181 -0.8825 -2.1550 -4.5844
    5MOL   H181 1229   4.284   6.915   3.198  1.6226 -0.9805 -0.4522
    5MOL   H182 1230   4.068   6.869   2.886 -1.4903  0.5635 -0.9394
    5MOL   H183 1231   3.929   6.939   2.966  2.6987  2.7989 -0.2483
    5MOL   C184 1232   3.974   6.737   3.024 -0.1843 -0.0060  0.1734
    5MOL   C185 1233   3.844   6.696   2.946 -0.1463 -1.0949  0.0635
    5MOL   C186 1234   3.718   6.711   2.988  0.0955  0.2711  0.3554
    5MOL   C187 1235   3.610   6.671   2.889 -0.1711  0.1785  0.0232
    5MOL   C188 1236   3.667   6.795   3.106  0.2976  0.2239  0.9040
    5MOL   H189 1237   3.960   6.723   3.131 -0.1550  0.7174  0.2715
    5MOL   H190 1238   4.057   6.672   2.998  0.1050  1.2458 -2.2327
    5MOL   H191 1239   3.864   6.655   2.848 -1.0088 -1.7686  0.1702
    5MOL   H192 1240   3.641   6.640   2.789  0.4220 -0.5141  0.4140
    5MOL   H193 1241   3.531   6.743   2.868  1.5774  1.8910 -0.8522
    5MOL   H194 1242   3.542   6.605   2.943 -1.8198  0.2131 -1.9772
    5MOL   H195 1243   3.642   6.891   3.060 -1.9711 -0.7387  0.0938
    5MOL   H196 1244   3.751   6.824   3.170  1.0140 -3.2078  1.6045
    5MOL   C197 1245   3.552   6.728   3.193 -0.4797 -0.9384 -0.2160
    5MOL   C198 1246   3.511   6.808   3.317  0.3561 -0.2004  0.3087
    5MOL   C199 1247   3.534   6.785   3.447  0.4184 -0.3810 -0.1788
    5MOL   C200 1248   3.458   6.864   3.563  0.4116  0.0274  0.5752
    5MOL   C201 1249   3.618   6.670   3.499 -0.4675  0.4129  0.1426
    5MOL   H202 1250   3.570   6.624   3.220 -0.4607 -0.8722  0.0270
    5MOL   H203 1251   3.467   6.726   3.126 -1.1520  0.7363  0.5618
    5MOL   H204 1252   3.454   6.898   3.301  0.7693  0.3045  1.6180
    5MOL   H205 1253   3.366   6.815   3.597 -0.2627  0.1856 -0.9880
    5MOL   H206 1254   3.422   6.962   3.530 -2.3029 -1.7962 -2.1857
    5MOL   H207 1255   3.524   6.872   3.649  2.8490  3.4029 -1.4733
    5MOL   H208 1256   3.684   6.718   3.572 -0.4117  1.1555 -0.3855
    5MOL   H209 1257   3.681   6.633   3.419  0.1992 -2.3900  1.9229
    5MOL   C210 1258   3.547   6.550   3.568  0.9628  0.7061 -1.0361
    5MOL   C211 1259   3.464   6.466   3.467  0.5599 -0.1929 -0.2593
    5MOL   C212 1260   3.397   6.355   3.491 -0.1737  0.5052  0.8515
    5MOL   C213 1261   3.297   6.296   3.386  0.4643  0.5584 -0.2435
    5MOL   C214 1262   3.402   6.285   3.626  0.1872  0.9543  0.1997
    5MOL   H215 1263   3.473   6.590   3.636  1.4782 -1.2792  0.7085
    5MOL   H216 1264   3.607   6.480   3.625 -1.0143 -1.0722 -1.1146
    5MOL   H217 1265   3.443   6.514   3.373 -1.1859  0.2117  0.3084
    5MOL   H218 1266   3.317   6.354   3.296  1.5238 -1.3455 -1.2496
    5MOL   H219 1267   3.197   6.308   3.427  0.6604 -0.0647  0.4377
    5MOL   H220 1268   3.324   6.194   3.361 -1.5144  0.4792 -2.2636
    5MOL   H221 1269   3.389   6.354   3.710 -0.8359  0.0815  0.7736
    5MOL   H222 1270   3.500   6.237   3.633  0.3564  0.9300 -2.0854
    5MOL   C223 1271   3.299   6.175   3.659  0.1002  0.0029  0.3794
    5MOL   C224 1272   3.333   6.104   3.787  0.5459 -0.1850  0.1072
    5MOL   C225 1273   3.252   6.049   3.877  0.8159  0.5598 -0.3572
    5MOL   C226 1274   3.311   5.978   3.993  0.3518  0.3270  1.0436
    5MOL   C227 1275   3.097   6.038   3.861 -0.2849 -0.1956 -0.5932
    5MOL   H228 1276   3.292   6.102   3.578  0.6104  0.5455 -0.1630
    5MOL   H229 1277   3.197   6.215   3.660  0.9600  2.3570 -1.0587
    5MOL   H230 1278   3.438   6.093   3.810  0.6984 -0.3886 -0.6742
    5MOL   H231 1279   3.319   5.876   3.954 -2.9970  0.2012  0.5613
    5MOL   H232 1280   3.246   5.990   4.080  1.7525  0.3102  2.1107
    5MOL   H233 1281   3.410   6.020   4.011 -0.4443  1.8692  1.8716
    5MOL   H234 1282   3.078   5.932   3.879  0.0600  0.0013  1.0198
    5MOL   H235 1283   3.068   6.054   3.758 -0.7968 -0.3338 -0.4747
    5MOL   C236 1284   3.009   6.122   3.948 -0.2080  0.2870  0.3041
    5MOL   C237 1285   2.866   6.148   3.893 -0.5165  0.0342  0.6339
    5MOL   C238 1286   2.751   6.104   3.949  0.2788  0.4459 -0.5102
    5MOL   C239 1287   2.624   6.104   3.870 -0.2207 -0.1072 -0.0804
    5MOL   C240 1288   2.735   6.059   4.096  0.0313 -0.4178  1.3411
    5MOL   H241 1289   3.053   6.222   3.953  2.2243 -0.7099 -0.7511
    5MOL   H242 1290   3.010   6.083   4.050  2.3356 -0.7281 -0.0873
    5MOL   H243 1291   2.859   6.194   3.795 -0.5758  0.1957  0.7129
    5MOL   H244 1292   2.572   6.008   3.877 -0.0966 -0.1721 -0.0400
    5MOL   H245 1293   2.638   6.142   3.769  3.9307 -0.1705  0.3740
    5MOL   H246 1294   2.562   6.175   3.925 -1.4777 -0.6010 -0.8399
    5MOL   H247 1295   2.647   6.114   4.129  0.3198  1.2873 -0.6643
    5MOL   H248 1296   2.827   6.087   4.148  1.2046  0.5226 -1.1616
    5MOL   C249 1297   2.723   5.906   4.117 -0.1722 -0.0002 -0.0200
    5MOL   C250 1298   2.721   5.871   4.263  0.2008  0.1817  0.6857
    5MOL   C251 1299   2.622   5.814   4.335 -0.0024  0.1537  0.9097
    5MOL   C252 1300   2.642   5.777   4.481 -0.0241 -0.0267 -0.0158
    5MOL   C253 1301   2.488   5.768   4.281  0.5305 -0.7005  0.0533
    5MOL   H254 1302   2.810   5.852   4.079 -1.5185 -0.2289 -2.9437
    5MOL   H255 1303   2.636   5.862   4.069  0.0847 -0.5729  0.0305
    5MOL   H256 1304   2.819   5.881   4.306  0.7272  0.7529 -0.6108
    5MOL   H257 1305   2.623   5.671   4.497  0.2412  0.0002  0.4885
    5MOL   H258 1306   2.554   5.825   4.523  0.4102  0.8848 -0.1263
    5MOL   H259 1307   2.737   5.815   4.519  0.3653  0.0921 -1.0859
    5MOL   H260 1308   2.406   5.820   4.332  1.5511  1.2491 -0.2614
    5MOL   H261 1309   2.460   5.667   4.311  0.5688 -0.2390  1.6991
    5MOL   H262 1310   2.477   5.773   4.173 -2.5865 -1.2054  0.2820
    6MOL     C1 1311   6.235   4.171   6.066 -0.4168 -0.2749 -0.4107
    6MOL     C2 1312   6.222   4.021   6.071  0.4273  0.1439  0.4712
    6MOL     C3 1313   6.305   3.931   6.134 -0.5076  0.3884 -0.1758
    6MOL     C4 1314   6.273   3.780   6.127 -0.2640 -0.0304  0.1587
    6MOL     C5 1315   6.425   3.974   6.224  0.1375  0.3289 -0.1546
    6MOL     H6 1316   6.325   4.199   6.121 -0.3236 -0.4714 -0.4639
    6MOL     H7 1317   6.226   4.202   5.962 -1.7258  1.4933  0.2079
    6MOL     H8 1318   6.141   3.978   6.014 -1.2208  1.4476  1.7582
    6MOL     H9 1319   6.217   3.741   6.212  1.7849 -0.7131  1.2531
    6MOL    H10 1320   6.367   3.725   6.113 -0.1663 -0.1959  1.3875
    6MOL    H11 1321   6.201   3.766   6.046  1.0836  0.6294 -1.1767
    6MOL    H12 1322   6.458   4.075   6.200  0.1603 -0.0627 -1.8220
    6MOL    H13 1323   6.509   3.907   6.209 -0.7684 -0.4326 -1.9425
    6MOL    H14 1324   6.156   4.215   6.126 -0.7823 -0.2255 -0.9221
    6MOL    C15 1325   6.401   3.961   6.374 -0.0317 -0.4112  0.2900
    6MOL    C16 1326   6.521   3.998   6.458 -0.5596 -0.3753 -0.2140
    6MOL    C17 1327   6.587   4.117   6.472  0.2180 -0.2832  0.6736
    6MOL    C18 1328   6.720   4.121   6.542  0.0638 -0.0752  0.3374
    6MOL    C19 1329   6.539   4.247   6.410  0.2444  1.0282 -0.2271
    6MOL    H20 1330   6.353   3.866   6.401 -0.2549 -0.4570 -0.2621
    6MOL    H21 1331   6.326   4.035   6.402 -0.6447 -1.0877  0.4776
    6MOL    H22 1332   6.574   3.916   6.503  0.0151 -1.3314 -2.5473
    6MOL    H23 1333   6.708   4.055   6.628  4.2162 -0.6634  0.5360
    6MOL    H24 1334   6.757   4.221   6.561  1.4867  0.0758 -2.8596
    6MOL    H25 1335   6.800   4.071   6.488  0.3100  2.9526 -2.2695
    6MOL    H26 1336   6.550   4.331   6.479  3.2428  0.7238 -0.2740
    6MOL    H27 1337   6.431   4.236   6.397  0.4445  0.0839 -1.0712
    6MOL    C28 1338   6.620   4.281   6.287  0.1853 -0.2476 -0.5972
    6MOL    C29 1339   6.556   4.387   6.206  0.3620 -0.0864  0.1003
    6MOL    C30 1340   6.602   4.495   6.135 -0.1761  0.2969 -0.8844
    6MOL    C31 1341   6.502   4.580   6.061 -0.2521  0.4550 -0.0971
    6MOL    C32 1342   6.740   4.544   6.126  0.1768 -0.0284 -0.1726
    6MOL    H33 1343   6.628   4.189   6.230  1.4289 -0.9136  0.6106
    6MOL    H34 1344   6.724   4.311   6.302 -0.5269  2.9848 -1.6982
    6MOL    H35 1345   6.450   4.371   6.197  0.3527  0.7746 -1.5870
    6MOL    H36 1346   6.511   4.688   6.066  0.8491  0.3856 -0.5127
    6MOL    H37 1347   6.401   4.560   6.097  0.7588 -0.8825  2.0925
    6MOL    H38 1348   6.508   4.551   5.956  1.5861  0.0517  0.1124
    6MOL    H39 1349   6.765   4.567   6.022  0.3385  0.4185 -0.0348
    6MOL    H40 1350   6.813   4.464   6.141 -1.1209 -0.8601  1.9798
    6MOL    C41 1351   6.776   4.650   6.230  0.1139  0.0445 -0.4035
    6MOL    C42 1352   6.916   4.709   6.209 -0.4420  0.3981 -0.1070
    6MOL    C43 1353   6.959   4.834   6.237  0.6449  0.7583  0.0511
    6MOL    C44 1354   7.102   4.872   6.209  0.0664  0.4447  0.0906
    6MOL    C45 1355   6.862   4.940   6.297 -0.3991  0.2313  0.1706
    6MOL    H46 1356   6.764   4.607   6.329 -1.3004  1.9045  0.2672
    6MOL    H47 1357   6.704   4.730   6.215 -0.0819  0.2170  1.3858
    6MOL    H48 1358   6.984   4.632   6.176 -0.0165  0.4262  0.6924
    6MOL    H49 1359   7.107   4.948   6.131  0.5857 -1.4287 -1.7159
    6MOL    H50 1360   7.154   4.784   6.172 -0.8024 -0.1698  0.3174
    6MOL    H51 1361   7.155   4.897   6.301 -0.4254  2.5154 -0.1606
    6MOL    H52 1362   6.909   4.974   6.390 -2.3843  2.8218  0.2806
    6MOL    H53 1363   6.765   4.893   6.314  0.1481 -0.6929  0.7982
    6MOL    C54 1364   6.847   5.056   6.202  0.2367 -0.1181  0.0928
    6MOL    C55 1365   6.755   5.021   6.088  0.5780 -0.2512 -0.0793
    6MOL    C56 1366   6.633   5.072   6.062  0.3226  0.5718 -0.6333
    6MOL    C57 1367   6.538   5.017   5.957  0.4380  0.3419 -0.2503
    6MOL    C58 1368   6.576   5.193   6.132 -0.2342  0.0314  0.1077
    6MOL    H59 1369   6.944   5.088   6.163 -0.0149  1.0499  0.4094
    6MOL    H60 1370   6.808   5.138   6.262  1.2198  0.0037  0.5637
    6MOL    H61 1371   6.796   4.939   6.030  2.3040  0.2614  0.3900
    6MOL    H62 1372   6.594   4.965   5.879 -0.9217 -2.1889  0.3875
    6MOL    H63 1373   6.477   5.091   5.905  0.9313  1.0200  0.1328
    6MOL    H64 1374   6.459   4.949   5.990  1.6536  0.0134  2.0502
    6MOL    H65 1375   6.609   5.199   6.236 -2.7188 -1.2304  1.0323
    6MOL    H66 1376   6.468   5.180   6.140  0.1113 -1.5852  2.5947
    6MOL    C67 1377   6.613   5.315   6.048 -0.0481 -0.0277  0.3365
    6MOL    C68 1378   6.528   5.438   6.094  0.1242 -0.3602  0.3563
    6MOL    C69 1379   6.440   5.504   6.024 -0.3791  0.9297  0.3629
    6MOL    C70 1380   6.353   5.607   6.088  0.1519  0.0261 -0.6756
    6MOL    C71 1381   6.411   5.477   5.876 -1.0337  0.1513 -0.0952
    6MOL    H72 1382   6.600   5.306   5.941  0.2451 -0.2530  0.3192
    6MOL    H73 1383   6.719   5.334   6.069  0.1810 -4.1382  3.5059
    6MOL    H74 1384   6.537   5.469   6.197  0.1439  3.1086 -0.5982
    6MOL    H75 1385   6.355   5.618   6.197 -1.6801 -1.8474 -0.4202
    6MOL    H76 1386   6.250   5.584   6.061 -0.3953 -2.6481  3.2293
    6MOL    H77 1387   6.369   5.704   6.041 -2.2700  0.6086 -0.4166
    6MOL    H78 1388   6.499   5.473   5.812 -0.2899  1.4580  0.8225
    6MOL    H79 1389   6.356   5.562   5.837 -1.2621 -0.8620 -2.0364
    6MOL    C80 1390   6.322   5.358   5.860 -0.3412  0.5461 -0.6106
    6MOL    C81 1391   6.290   5.324   5.718  1.1730  0.4140 -0.0846
    6MOL    C82 1392   6.236   5.209   5.678 -0.1582  0.6759 -0.1624
    6MOL    C83 1393   6.196   5.099   5.770  0.1005  0.8179  0.5353
    6MOL    C84 1394   6.202   5.187   5.535 -0.0964  0.1361  0.0383
    6MOL    H85 1395   6.224   5.374   5.905 -0.7022 -0.4356 -1.0396
    6MOL    H86 1396   6.371   5.272   5.907 -1.3506  0.8886  1.1218
    6MOL    H87 1397   6.319   5.408   5.658  2.5915  0.9871  1.3519
    6MOL    H88 1398   6.286   5.037   5.764 -0.4220  0.0709  0.4765
    6MOL    H89 1399   6.108   5.045   5.737  0.5727  0.3307  0.0671
    6MOL    H90 1400   6.175   5.138   5.869 -0.1962 -0.6759  1.0714
    6MOL    H91 1401   6.229   5.276   5.478 -0.4476  0.6589  0.6741
    6MOL    H92 1402   6.095   5.173   5.520 -0.3507  2.2611 -0.3366
    6MOL    C93 1403   6.280   5.065   5.481  0.0350 -0.2655 -0.0891
    6MOL    C94 1404   6.264   5.037   5.332 -0.3028 -0.3189  0.7235
    6MOL    C95 1405   6.364   5.033   5.241 -0.7027  0.2615  0.4287
    6MOL    C96 1406   6.335   5.022   5.090  0.0923  0.2369  0.1277
    6MOL    C97 1407   6.515   5.039   5.274  0.1130 -0.6223  0.0573
    6MOL    H98 1408   6.231   4.978   5.525 -0.3053 -0.1771 -0.3000
    6MOL    H99 1409   6.384   5.054   5.513 -0.3421  1.1432  1.6786
    6MOL   H100 1410   6.160   5.037   5.304 -0.1261  0.8987  0.0170
    6MOL   H101 1411   6.416   5.068   5.032 -1.5542  0.3881 -2.1115
    6MOL   H102 1412   6.344   4.914   5.074  0.9311  0.6340 -2.4635
    6MOL   H103 1413   6.237   5.057   5.058  0.7648  2.2367  0.2259
    6MOL   H104 1414   6.530   5.022   5.381 -4.0426 -2.2719  0.4655
    6MOL   H105 1415   6.556   5.136   5.246  0.0560  0.1837  2.5884
    6MOL   C106 1416   6.585   4.924   5.203 -0.2315  0.4205  0.1138
    6MOL   C107 1417   6.735   4.918   5.243 -0.2517 -0.0705  0.2720
    6MOL   C108 1418   6.788   4.834   5.337 -0.0770  0.1891  0.7799
    6MOL   C109 1419   6.705   4.727   5.404  0.1385 -0.0382  1.1188
    6MOL   C110 1420   6.934   4.826   5.378 -0.4650 -0.0793 -0.5210
    6MOL   H111 1421   6.585   4.938   5.095  1.2649 -2.5224 -0.3396
    6MOL   H112 1422   6.529   4.832   5.219  0.3273 -0.2507 -1.5964
    6MOL   H113 1423   6.800   4.984   5.187 -1.4913 -0.1101 -1.2691
    6MOL   H114 1424   6.600   4.754   5.416 -0.3795  0.2338 -3.2140
    6MOL   H115 1425   6.704   4.632   5.350 -0.1624  1.8274 -2.2770
    6MOL   H116 1426   6.749   4.713   5.503 -0.6484 -0.4470  1.4217
    6MOL   H117 1427   6.938   4.853   5.483  2.2041  0.4486 -0.7134
    6MOL   H118 1428   6.985   4.907   5.325 -0.7702 -0.1469 -0.9218
    6MOL   C119 1429   6.998   4.687   5.361 -0.5255 -0.3588  0.8697
    6MOL   C120 1430   7.136   4.675   5.423  0.1975 -0.5282  1.0659
    6MOL   C121 1431   7.195   4.566   5.484 -0.1791 -0.2068  0.3448
    6MOL   C122 1432   7.337   4.570   5.541 -0.3907 -0.8355  0.3126
    6MOL   C123 1433   7.121   4.437   5.507 -0.2449 -0.2628  0.2413
    6MOL   H124 1434   7.003   4.655   5.257 -2.0359 -0.4223  0.8024
    6MOL   H125 1435   6.938   4.616   5.419 -0.2759 -0.5200  0.9311
    6MOL   H126 1436   7.207   4.757   5.422 -0.7270  0.2711 -0.1732
    6MOL   H127 1437   7.327   4.525   5.640  0.3444  1.1326  1.3119
    6MOL   H128 1438   7.380   4.669   5.531  0.0414 -0.9673  0.8716
    6MOL   H129 1439   7.404   4.502   5.488 -0.8468 -1.6405  0.7594
    6MOL   H130 1440   7.193   4.356   5.517 -0.3970 -0.8311 -2.9500
    6MOL   H131 1441   7.048   4.419   5.429 -0.6001  1.1878  0.2190
    6MOL   C132 1442   7.047   4.432   5.644 -0.5650  0.1318 -0.5852
    6MOL   C133 1443   6.992   4.293   5.666 -0.0331  1.0928 -0.3130
    6MOL   C134 1444   7.024   4.214   5.773 -0.1746 -0.7680  0.9454
    6MOL   C135 1445   6.984   4.070   5.778 -1.0306 -0.3577 -0.5123
    6MOL   C136 1446   7.110   4.265   5.891  0.3425  0.5465  0.4174
    6MOL   H137 1447   6.965   4.504   5.650 -0.1986  0.4708  0.4459
    6MOL   H138 1448   7.118   4.457   5.723 -0.3939 -0.6433 -0.4941
    6MOL   H139 1449   6.922   4.259   5.591  0.3222  1.7905 -0.9701
    6MOL   H140 1450   7.066   4.001   5.762 -0.9184 -0.4259  0.3417
    6MOL   H141 1451   6.902   4.057   5.708 -0.8189  0.4317 -0.9168
    6MOL   H142 1452   6.934   4.058   5.875 -0.5889  2.4390  0.1321
    6MOL   H143 1453   7.208   4.300   5.858  0.1399 -1.2076 -2.2122
    6MOL   H144 1454   7.127   4.174   5.949 -2.5448 -0.3504 -0.0900
    6MOL   C145 1455   7.047   4.373   5.980 -0.0119 -0.0637  0.3820
    6MOL   C146 1456   7.134   4.419   6.093 -0.2076  0.2397 -0.1796
    6MOL   C147 1457   7.136   4.384   6.221 -0.8812  0.2660  1.0172
    6MOL   C148 1458   7.240   4.446   6.319  0.1876 -0.2243 -0.2903
    6MOL   C149 1459   7.046   4.278   6.290  0.2242 -0.2096 -0.4913
    6MOL   H150 1460   6.951   4.337   6.015 -0.2833  0.2387 -0.0455
    6MOL   H151 1461   7.015   4.466   5.932 -1.6887 -0.6996  0.2546
    6MOL   H152 1462   7.205   4.499   6.080  0.0546  0.0550  0.1224
    6MOL   H153 1463   7.267   4.543   6.277 -2.4314  1.6625  2.1685
    6MOL   H154 1464   7.335   4.398   6.338 -0.6179 -1.3884  0.8713
    6MOL   H155 1465   7.192   4.456   6.416 -1.0300 -0.2545 -0.8799
    6MOL   H156 1466   6.955   4.267   6.231  0.6030 -1.1145 -0.9156
    6MOL   H157 1467   7.003   4.318   6.381  0.2554 -0.5061 -0.3477
    6MOL   C158 1468   7.108   4.144   6.332  1.0996 -0.4986 -0.4276
    6MOL   C159 1469   7.154   4.057   6.215 -0.4731 -0.0784  0.2150
    6MOL   C160 1470   7.088   3.961   6.157  0.5221 -0.1120  1.1836
    6MOL   C161 1471   6.948   3.933   6.188 -0.1039  0.3448  0.2414
    6MOL   C162 1472   7.148   3.873   6.046  0.2037  0.6251 -0.1214
    6MOL   H163 1473   7.034   4.097   6.396  0.9239 -2.3598 -1.9789
    6MOL   H164 1474   7.190   4.155   6.403  0.1880  0.6976  0.4595
    6MOL   H165 1475   7.256   4.071   6.183 -0.0355  1.4439  2.2103
    6MOL   H166 1476   6.944   3.850   6.258  0.1453 -0.8476 -1.1327
    6MOL   H167 1477   6.899   3.886   6.103 -1.0475 -0.4056  1.1916
    6MOL   H168 1478   6.888   4.014   6.229 -0.3566 -0.3894  1.3362
    6MOL   H169 1479   7.236   3.929   6.012  1.1667  0.3121  1.7534
    6MOL   H170 1480   7.075   3.881   5.966  0.6290  0.4638 -0.5315
    6MOL   C171 1481   7.201   3.731   6.085 -0.0952  0.2926  0.6215
    6MOL   C172 1482   7.077   3.643   6.084  0.2420 -0.2032 -0.3369
    6MOL   C173 1483   7.077   3.515   6.121  0.5276 -0.5726 -0.2065
    6MOL   C174 1484   7.191   3.443   6.185  0.9443 -0.2949  0.3494
    6MOL   C175 1485   6.950   3.432   6.114  0.4288 -0.6209  0.6646
    6MOL   H176 1486   7.264   3.742   6.174  0.9289  1.9307 -0.2785
    6MOL   H177 1487   7.266   3.701   6.003 -0.9066  3.1527 -1.1488
    6MOL   H178 1488   6.999   3.666   6.012  0.6706  0.3428 -0.6291
    6MOL   H179 1489   7.283   3.502   6.193  0.5318  0.6294 -1.5581
    6MOL   H180 1490   7.218   3.364   6.114 -0.9765  0.5505 -1.3671
    6MOL   H181 1491   7.151   3.405   6.279  0.3470 -0.9487 -0.1622
    6MOL   H182 1492   6.981   3.333   6.081  0.7942 -0.5379  0.7649
    6MOL   H183 1493   6.879   3.477   6.044  1.1952 -2.3575 -1.2963
    6MOL   C184 1494   6.883   3.413   6.250 -0.1666 -0.0552 -0.4114
    6MOL   C185 1495   6.778   3.520   6.284  0.2735  0.3660  0.5105
    6MOL   C186 1496   6.648   3.501   6.330  1.2555  0.0333 -0.0761
    6MOL   C187 1497   6.558   3.622   6.350  0.4814  0.1852  0.2603
    6MOL   C188 1498   6.584   3.367   6.365  0.1313 -0.9055  0.3473
    6MOL   H189 1499   6.957   3.419   6.330 -0.2245  2.2697 -0.4866
    6MOL   H190 1500   6.843   3.312   6.256 -0.4261  0.1432  2.1105
    6MOL   H191 1501   6.794   3.621   6.250 -1.9716  0.9133  0.9671
    6MOL   H192 1502   6.538   3.650   6.454 -1.0110 -1.4008  0.4181
    6MOL   H193 1503   6.458   3.598   6.315  0.0980 -1.9054  2.6365
    6MOL   H194 1504   6.589   3.705   6.286  0.1031 -1.2882 -1.8465
    6MOL   H195 1505   6.532   3.400   6.455 -0.7479  1.2705 -0.9284
    6MOL   H196 1506   6.650   3.282   6.386  0.9485 -0.9893 -2.4275
    6MOL   C197 1507   6.480   3.327   6.261 -0.5721  0.3082 -0.5786
    6MOL   C198 1508   6.386   3.216   6.300 -0.7583 -0.1490  0.5054
    6MOL   C199 1509   6.254   3.205   6.277  0.2829  0.2944  0.4370
    6MOL   C200 1510   6.190   3.079   6.330  0.0107 -0.2721 -0.3637
    6MOL   C201 1511   6.174   3.303   6.192  0.0559 -0.2678 -0.6652
    6MOL   H202 1512   6.552   3.290   6.188  1.5462  1.1562  1.0208
    6MOL   H203 1513   6.429   3.411   6.215 -0.0742  1.0177  0.1558
    6MOL   H204 1514   6.446   3.141   6.349  0.3914 -0.3801 -1.1938
    6MOL   H205 1515   6.253   3.043   6.411 -0.6991 -2.2432 -0.6451
    6MOL   H206 1516   6.198   2.991   6.266  0.4485 -1.2638  1.0372
    6MOL   H207 1517   6.087   3.104   6.351  0.5611  2.0730 -0.2884
    6MOL   H208 1518   6.112   3.243   6.125  0.5677 -0.1269 -1.2694
    6MOL   H209 1519   6.229   3.376   6.133  0.1475 -0.4609 -0.8201
    6MOL   C210 1520   6.076   3.392   6.267  0.0400  0.7213 -0.0597
    6MOL   C211 1521   6.148   3.490   6.353 -0.2369  0.1608  0.9192
    6MOL   C212 1522   6.097   3.553   6.463  0.3339 -0.4281  0.3149
    6MOL   C213 1523   6.172   3.661   6.539  0.2342 -0.1154  0.0162
    6MOL   C214 1524   5.968   3.517   6.534 -0.3355 -0.0382  0.2347
    6MOL   H215 1525   5.988   3.343   6.308 -1.0701  0.7637 -2.2884
    6MOL   H216 1526   6.024   3.444   6.186 -2.4551 -0.7819  0.5058
    6MOL   H217 1527   6.239   3.519   6.303  0.1749 -0.9095  1.0366
    6MOL   H218 1528   6.198   3.624   6.639  0.4279 -0.1584 -0.0506
    6MOL   H219 1529   6.114   3.751   6.557 -0.1435 -0.5608  1.1356
    6MOL   H220 1530   6.264   3.695   6.491  0.2602 -1.0143 -0.5898
    6MOL   H221 1531   5.915   3.448   6.469 -0.1798 -0.7690  0.8820
    6MOL   H222 1532   5.911   3.610   6.539  0.3231  0.2864  1.9592
    6MOL   C223 1533   6.001   3.457   6.674 -0.5408 -0.4619  0.0762
    6MOL   C224 1534   5.899   3.355   6.726  0.2495  0.0344  0.0845
    6MOL   C225 1535   5.792   3.386   6.802  0.3770  0.3413  0.8166
    6MOL   C226 1536   5.703   3.274   6.859  0.1080 -0.2904  0.2423
    6MOL   C227 1537   5.747   3.525   6.828  0.1650 -0.2501 -0.0322
    6MOL   H228 1538   6.007   3.533   6.752 -1.7795  0.2045 -0.4746
    6MOL   H229 1539   6.096   3.403   6.675  0.2621  0.9194 -0.0731
    6MOL   H230 1540   5.938   3.254   6.718  1.7322  0.7247 -1.8989
    6MOL   H231 1541   5.725   3.270   6.966  0.4590 -0.7984  0.1522
    6MOL   H232 1542   5.723   3.178   6.810  1.0302 -0.2636  0.5433
    6MOL   H233 1543   5.598   3.298   6.845 -0.0804  0.7670  3.1130
    6MOL   H234 1544   5.639   3.532   6.823  0.2680  0.4820 -1.3382
    6MOL   H235 1545   5.780   3.594   6.751  0.3261  1.2015  1.3141
    6MOL   C236 1546   5.790   3.576   6.968 -0.5151  0.5515  0.5923
    6MOL   C237 1547   5.734   3.715   7.011 -0.3890 -0.4205 -0.3037
    6MOL   C238 1548   5.790   3.837   6.986  0.2822  0.3622 -0.2198
    6MOL   C239 1549   5.732   3.960   7.040  0.5257  0.1833  0.4422
    6MOL   C240 1550   5.904   3.857   6.892 -0.3485 -0.6003 -0.6647
    6MOL   H241 1551   5.899   3.577   6.970 -0.4970  0.3185 -0.1203
    6MOL   H242 1552   5.764   3.518   7.057 -0.0372  0.8836  0.9523
    6MOL   H243 1553   5.651   3.714   7.080 -0.2101  1.6480 -0.0307
    6MOL   H244 1554   5.797   4.013   7.109  0.1764  1.8401 -0.4678
    6MOL   H245 1555   5.646   3.920   7.093  0.7017 -2.0556 -0.9089
    6MOL   H246 1556   5.710   4.033   6.962  0.5596  2.3183  2.3586
    6MOL   H247 1557   5.884   3.939   6.823 -1.0857  0.2898  0.6063
    6MOL   H248 1558   5.925   3.766   6.837  0.1361 -0.5751 -0.5313
    6MOL   C249 1559   6.037   3.882   6.948  0.5628 -0.2472 -0.4653
    6MOL   C250 1560   6.140   3.878   6.838  0.3887 -0.2715  0.5974
    6MOL   C251 1561   6.271   3.857   6.856  0.6147  0.0155  0.1106
    6MOL   C252 1562   6.378   3.855   6.744 -0.3565  0.5804 -0.3077
    6MOL   C253 1563   6.328   3.837   6.993  0.6527  0.9020 -0.2958
    6MOL   H254 1564   6.062   3.811   7.027  0.4129  0.2451  0.0263
    6MOL   H255 1565   6.045   3.981   6.992  0.0505  0.3533 -1.6852
    6MOL   H256 1566   6.112   3.900   6.736  0.9836 -1.9615  0.0420
    6MOL   H257 1567   6.441   3.941   6.766  1.1853 -1.2296  2.6554
    6MOL   H258 1568   6.335   3.858   6.644 -3.3686  2.1227  0.9815
    6MOL   H259 1569   6.433   3.763   6.763 -1.9438 -0.4067 -0.3825
    6MOL   H260 1570   6.325   3.730   7.014  0.6270  1.3381  2.1216
    6MOL   H261 1571   6.271   3.889   7.071 -0.4003 -0.2223 -0.3077
    6MOL   H262 1572   6.434   3.862   6.997  0.6870  0.6890  0.1680
    7MOL     C1 1573   6.297   4.813   7.755  0.5890 -1.3811 -1.0629
    7MOL     C2 1574   6.279   4.962   7.741 -0.2739 -0.2797 -0.2610
    7MOL     C3 1575   6.303   5.040   7.632  0.1659 -0.0634 -0.4793
    7MOL     C4 1576   6.252   5.188   7.630  0.2284 -1.1741 -0.1696
    7MOL     C5 1577   6.347   4.987   7.497  0.1318 -0.2670  0.0213
    7MOL     H6 1578   6.351   4.784   7.666  3.6309  1.6950 -0.3381
    7MOL     H7 1579   6.353   4.785   7.844 -0.9205 -0.3254  0.2678
    7MOL     H8 1580   6.235   5.013   7.826  2.7414 -1.3100  1.9870
    7MOL     H9 1581   6.345   5.246   7.630 -0.1781 -0.5112  0.6097
    7MOL    H10 1582   6.200   5.214   7.723  1.5459  0.7525  0.0795
    7MOL    H11 1583   6.207   5.215   7.535  0.6289  0.4965  0.0838
    7MOL    H12 1584   6.419   4.907   7.514  2.1107  0.5891 -3.7776
    7MOL    H13 1585   6.411   5.056   7.441  0.3784 -2.2750 -2.2391
    7MOL    H14 1586   6.193   4.781   7.761 -0.4286  2.0409  2.4817
    7MOL    C15 1587   6.227   4.923   7.417  0.4423 -0.2941  0.1282
    7MOL    C16 1588   6.277   4.836   7.298  0.1910 -0.4230 -0.5820
    7MOL    C17 1589   6.253   4.857   7.168 -0.1220 -0.5080  0.2350
    7MOL    C18 1590   6.308   4.765   7.057 -0.3048  0.7120 -0.1106
    7MOL    C19 1591   6.180   4.976   7.113 -0.4844  0.0835 -0.2840
    7MOL    H20 1592   6.162   5.003   7.383 -0.7040 -0.0715  2.7412
    7MOL    H21 1593   6.169   4.851   7.474 -0.9446  0.9342  0.2829
    7MOL    H22 1594   6.329   4.743   7.316 -1.5109 -1.4516 -0.8841
    7MOL    H23 1595   6.234   4.716   6.993 -1.6611  1.4949  0.8505
    7MOL    H24 1596   6.368   4.686   7.103 -0.1883  0.5992 -0.4503
    7MOL    H25 1597   6.355   4.822   6.977 -1.4543  1.6027 -0.1568
    7MOL    H26 1598   6.250   5.035   7.055 -0.0986 -0.7444 -0.6539
    7MOL    H27 1599   6.154   5.043   7.195  1.2009 -0.8670  1.0438
    7MOL    C28 1600   6.052   4.936   7.031  0.3086 -0.1224  0.0784
    7MOL    C29 1601   5.956   5.055   7.009  0.3977 -0.1585  0.5475
    7MOL    C30 1602   5.947   5.128   6.894 -0.5642  0.6979 -0.0423
    7MOL    C31 1603   5.861   5.251   6.890  0.1077  0.2081 -0.3662
    7MOL    C32 1604   6.023   5.083   6.765 -0.1919 -0.5207  0.3439
    7MOL    H33 1605   5.996   4.868   7.095  0.3623  0.0457  0.3040
    7MOL    H34 1606   6.090   4.878   6.947  0.4953 -1.1927  0.8923
    7MOL    H35 1607   5.910   5.091   7.100 -1.8718  0.7444 -0.9323
    7MOL    H36 1608   5.939   5.327   6.892 -0.0469  0.3985 -1.5278
    7MOL    H37 1609   5.805   5.270   6.981 -0.0204  0.6603 -0.5423
    7MOL    H38 1610   5.793   5.260   6.806  0.9122  1.7392 -0.8657
    7MOL    H39 1611   5.945   5.037   6.705  1.1150  0.8720 -2.4764
    7MOL    H40 1612   6.098   5.005   6.781 -0.2219 -0.4516  0.8294
    7MOL    C41 1613   6.094   5.191   6.686 -0.4382  0.1496  0.1099
    7MOL    C42 1614   6.159   5.139   6.559  0.4321  0.2608 -0.5211
    7MOL    C43 1615   6.151   5.191   6.430 -0.1887  0.0333 -0.5531
    7MOL    C44 1616   6.231   5.128   6.323  0.2026 -0.1566 -0.2584
    7MOL    C45 1617   6.071   5.318   6.399  0.6138  0.1301  0.0758
    7MOL    H46 1618   6.160   5.246   6.754 -1.1868 -0.4704  1.3665
    7MOL    H47 1619   6.013   5.262   6.668 -0.2935  0.6634  1.4005
    7MOL    H48 1620   6.213   5.047   6.574  0.1151  0.1874  0.1836
    7MOL    H49 1621   6.307   5.203   6.299  0.8108 -0.2866  1.2152
    7MOL    H50 1622   6.180   5.111   6.229  3.7056 -0.3264 -2.2290
    7MOL    H51 1623   6.285   5.036   6.346 -1.0279 -0.0962  3.0757
    7MOL    H52 1624   5.982   5.332   6.461  1.1852 -1.3455  1.2603
    7MOL    H53 1625   6.027   5.299   6.300 -0.1554 -2.8366  0.9248
    7MOL    C54 1626   6.154   5.442   6.400 -0.1839 -0.2408  0.5989
    7MOL    C55 1627   6.067   5.566   6.427  0.3381  0.1357 -0.1763
    7MOL    C56 1628   6.047   5.624   6.545 -0.7732 -0.5571  0.2677
    7MOL    C57 1629   5.963   5.759   6.560 -0.4108 -0.2717  0.3090
    7MOL    C58 1630   6.126   5.594   6.674 -0.7004 -0.1885 -0.3693
    7MOL    H59 1631   6.195   5.449   6.300 -1.2655 -0.1163  0.1496
    7MOL    H60 1632   6.225   5.436   6.482  0.4616 -1.0342 -0.0036
    7MOL    H61 1633   6.008   5.605   6.346  1.1486 -0.4437 -1.0476
    7MOL    H62 1634   5.929   5.772   6.663 -0.7861  0.4027  0.0980
    7MOL    H63 1635   5.880   5.747   6.490  1.8484 -0.3655 -2.4376
    7MOL    H64 1636   6.030   5.840   6.534  0.8824 -1.7884 -1.1906
    7MOL    H65 1637   6.172   5.496   6.677  1.2008  0.7039 -0.0163
    7MOL    H66 1638   6.056   5.603   6.757  0.0998 -1.6579  0.4655
    7MOL    C67 1639   6.235   5.701   6.700  0.4205 -0.3297 -0.3493
    7MOL    C68 1640   6.355   5.669   6.609  0.5637 -0.2631  0.5783
    7MOL    C69 1641   6.400   5.748   6.508  0.2268  0.3291  0.0687
    7MOL    C70 1642   6.528   5.706   6.440  0.0878  0.5277 -0.6884
    7MOL    C71 1643   6.324   5.872   6.464 -0.3515 -0.7334  0.2263
    7MOL    H72 1644   6.262   5.700   6.806  0.2713  0.1997 -0.3058
    7MOL    H73 1645   6.201   5.805   6.698  2.0898  0.2526  0.8237
    7MOL    H74 1646   6.404   5.575   6.628 -1.3927 -1.1976  1.0961
    7MOL    H75 1647   6.495   5.688   6.337 -1.5299 -1.6653  0.1858
    7MOL    H76 1648   6.570   5.615   6.482  1.6034  2.1232  1.3535
    7MOL    H77 1649   6.601   5.787   6.435  1.8226 -0.9734  0.0105
    7MOL    H78 1650   6.399   5.951   6.454 -0.1910 -0.6980  1.7101
    7MOL    H79 1651   6.238   5.894   6.526 -0.2857 -0.2681  0.1500
    7MOL    C80 1652   6.262   5.859   6.322  0.3014  0.3829 -0.8055
    7MOL    C81 1653   6.160   5.967   6.301 -0.3848 -0.1134 -0.0919
    7MOL    C82 1654   6.045   5.971   6.228 -1.1514  0.2754 -0.9731
    7MOL    C83 1655   6.002   5.859   6.139  0.0976 -0.7879 -0.0904
    7MOL    C84 1656   5.959   6.092   6.213  0.6002 -0.4865 -0.1343
    7MOL    H85 1657   6.212   5.763   6.309 -1.3096  1.1980 -0.7833
    7MOL    H86 1658   6.345   5.875   6.253  0.5405 -2.1735 -1.1766
    7MOL    H87 1659   6.190   6.059   6.350  0.2706 -0.1525 -0.4137
    7MOL    H88 1660   5.905   5.816   6.162 -0.6943  0.3005 -1.3802
    7MOL    H89 1661   6.064   5.769   6.147 -1.7447 -2.2768 -2.1386
    7MOL    H90 1662   6.004   5.885   6.033 -1.3999 -3.2095 -0.7539
    7MOL    H91 1663   5.940   6.120   6.110  5.1062  3.3585 -0.0689
    7MOL    H92 1664   6.015   6.173   6.261  0.7482 -2.2482  2.8202
    7MOL    C93 1665   5.823   6.092   6.291  0.1871 -0.0557 -0.1358
    7MOL    C94 1666   5.760   6.228   6.290  0.0869 -0.5651  0.1746
    7MOL    C95 1667   5.743   6.303   6.399  0.0317 -0.0757  0.0299
    7MOL    C96 1668   5.689   6.447   6.389  0.2076 -0.5580  0.4911
    7MOL    C97 1669   5.778   6.264   6.543  0.2996  0.7703  0.4606
    7MOL    H98 1670   5.839   6.064   6.394  1.5852  0.5753 -0.1799
    7MOL    H99 1671   5.751   6.019   6.252  0.0141  1.0884 -2.0171
    7MOL   H100 1672   5.743   6.273   6.194 -2.2610 -1.7393 -0.0098
    7MOL   H101 1673   5.767   6.514   6.426  1.2696 -0.8808 -1.1154
    7MOL   H102 1674   5.669   6.470   6.285 -1.2563  0.7888  1.0537
    7MOL   H103 1675   5.596   6.463   6.444  0.4290  2.9282 -0.0064
    7MOL   H104 1676   5.766   6.160   6.571  0.1338  0.1628 -1.7915
    7MOL   H105 1677   5.711   6.314   6.613 -0.1913 -2.1315  2.1389
    7MOL   C106 1678   5.921   6.304   6.578 -0.3546  0.5534 -0.3175
    7MOL   C107 1679   5.942   6.299   6.729 -0.5246  0.1718  0.0293
    7MOL   C108 1680   6.014   6.201   6.796  0.0500  0.1704 -0.1308
    7MOL   C109 1681   6.084   6.087   6.731  0.1945  0.3371  0.6275
    7MOL   C110 1682   6.035   6.214   6.942  0.7138 -0.5093  0.9675
    7MOL   H111 1683   5.933   6.409   6.552 -0.8937  0.5784 -0.4740
    7MOL   H112 1684   5.992   6.246   6.520 -1.1485 -1.0660  0.2986
    7MOL   H113 1685   5.892   6.386   6.769 -2.4668 -0.6958 -0.4262
    7MOL   H114 1686   6.102   6.012   6.808 -2.5954 -0.3831  0.6261
    7MOL   H115 1687   6.023   6.038   6.655  0.1230  0.4995  0.5825
    7MOL   H116 1688   6.178   6.122   6.688  0.9890 -0.6453  1.5179
    7MOL   H117 1689   5.999   6.121   6.986  3.3580 -2.8950 -1.6804
    7MOL   H118 1690   5.967   6.292   6.977  1.8419  0.9678 -0.0678
    7MOL   C119 1691   6.184   6.256   6.968  0.5015 -0.0404 -0.1047
    7MOL   C120 1692   6.201   6.277   7.116 -0.4297  0.3821  0.1596
    7MOL   C121 1693   6.238   6.385   7.187 -0.2769  0.0127 -1.4052
    7MOL   C122 1694   6.248   6.371   7.333 -0.4291 -0.6570  0.2281
    7MOL   C123 1695   6.256   6.529   7.136  0.1025  0.0140  0.5589
    7MOL   H124 1696   6.200   6.352   6.918 -0.8455 -0.8001 -2.0623
    7MOL   H125 1697   6.251   6.178   6.932  0.5569 -0.6192  1.2276
    7MOL   H126 1698   6.183   6.184   7.168 -1.2959  1.2759  1.4755
    7MOL   H127 1699   6.159   6.417   7.376 -1.6885 -3.3337  0.5639
    7MOL   H128 1700   6.326   6.433   7.378  0.8221 -0.4412 -2.1612
    7MOL   H129 1701   6.253   6.268   7.369  1.6810 -0.4019  0.7555
    7MOL   H130 1702   6.256   6.509   7.029 -1.6274  2.7884 -0.0203
    7MOL   H131 1703   6.344   6.590   7.155 -0.0569  0.3332  0.2872
    7MOL   C132 1704   6.131   6.612   7.174  0.2616  1.1348 -0.0481
    7MOL   C133 1705   6.118   6.749   7.103  0.2288 -0.2656 -0.2313
    7MOL   C134 1706   6.161   6.866   7.158  0.0509  0.3238 -0.1384
    7MOL   C135 1707   6.149   6.998   7.088 -0.5351  0.2951  0.1382
    7MOL   C136 1708   6.220   6.875   7.301  0.0722  0.9078  0.5921
    7MOL   H137 1709   6.121   6.626   7.282 -1.5456 -0.6388  0.0513
    7MOL   H138 1710   6.042   6.559   7.139  2.0251 -0.2058 -2.6878
    7MOL   H139 1711   6.095   6.743   6.997 -1.3437 -1.0278  0.1401
    7MOL   H140 1712   6.066   6.987   7.018 -0.8546 -2.0705  0.8544
    7MOL   H141 1713   6.237   7.031   7.032 -0.3453 -2.1368 -1.0915
    7MOL   H142 1714   6.104   7.066   7.160 -1.4387  0.3482 -0.4748
    7MOL   H143 1715   6.280   6.965   7.309  0.4973  0.5335  1.9246
    7MOL   H144 1716   6.275   6.780   7.310 -1.6826 -0.2238 -0.3811
    7MOL   C145 1717   6.110   6.876   7.414 -0.1708  0.1592 -0.0985
    7MOL   C146 1718   6.166   6.825   7.545  0.5477 -0.2219  0.3429
    7MOL   C147 1719   6.111   6.757   7.648 -0.0678 -0.3798 -0.7495
    7MOL   C148 1720   6.202   6.702   7.762  0.2701 -0.2668  0.4294
    7MOL   C149 1721   5.964   6.704   7.636  0.5939  0.2782  0.3181
    7MOL   H150 1722   6.033   6.805   7.385  1.7272 -2.4193  0.9575
    7MOL   H151 1723   6.077   6.979   7.429 -1.2064 -0.6458  3.7372
    7MOL   H152 1724   6.271   6.847   7.555  0.7668 -1.0826  0.0456
    7MOL   H153 1725   6.141   6.634   7.820 -1.0087  0.4626 -0.0495
    7MOL   H154 1726   6.238   6.789   7.818  0.4324  0.2527 -0.4674
    7MOL   H155 1727   6.281   6.651   7.707 -1.2810 -0.0685 -2.0392
    7MOL   H156 1728   5.973   6.595   7.633  1.1864  0.3754 -2.6809
    7MOL   H157 1729   5.908   6.740   7.550 -0.3096  0.3757  0.9427
    7MOL   C158 1730   5.877   6.729   7.764  0.4811  0.7495  0.1230
    7MOL   C159 1731   5.751   6.643   7.762 -0.4584  0.2477 -0.0392
    7MOL   C160 1732   5.632   6.664   7.709  0.4881 -0.3507  0.7378
    7MOL   C161 1733   5.604   6.796   7.639  0.4205  0.1862  0.4285
    7MOL   C162 1734   5.515   6.569   7.720 -0.3931 -0.2019  0.0965
    7MOL   H163 1735   5.839   6.831   7.774 -0.7506  0.3946 -0.8638
    7MOL   H164 1736   5.923   6.707   7.860 -0.5084  1.9901  0.9026
    7MOL   H165 1737   5.775   6.549   7.809 -1.5341 -1.2529 -2.3914
    7MOL   H166 1738   5.558   6.774   7.543  2.3570 -0.7402 -0.3237
    7MOL   H167 1739   5.699   6.844   7.615  1.1616 -0.6093  1.6828
    7MOL   H168 1740   5.528   6.851   7.694 -0.4425  0.0948 -0.6632
    7MOL   H169 1741   5.463   6.575   7.624  2.7969 -1.4661 -1.7944
    7MOL   H170 1742   5.450   6.624   7.788  0.3897  2.2660 -1.0968
    7MOL   C171 1743   5.544   6.419   7.754 -0.5464  0.1242 -0.1956
    7MOL   C172 1744   5.614   6.331   7.645  0.2273 -0.5900  0.0401
    7MOL   C173 1745   5.680   6.211   7.656 -0.5938  0.2113  0.2818
    7MOL   C174 1746   5.709   6.141   7.783  0.2089  0.0194 -0.4330
    7MOL   C175 1747   5.736   6.151   7.530  0.9154  0.0825  0.5755
    7MOL   H176 1748   5.442   6.381   7.767 -1.2173  2.1472  0.7343
    7MOL   H177 1749   5.587   6.406   7.854  0.9238 -0.5614 -0.9034
    7MOL   H178 1750   5.593   6.373   7.548  1.0676  0.1215  0.1606
    7MOL   H179 1751   5.818   6.136   7.781  0.3070  1.6444  0.1969
    7MOL   H180 1752   5.667   6.041   7.779  1.9658 -0.6732 -2.8514
    7MOL   H181 1753   5.691   6.187   0.001 -0.3267  0.2403 -0.6377
    7MOL   H182 1754   5.668   6.185   7.453 -0.8929 -1.1544  1.5996
    7MOL   H183 1755   5.714   6.044   7.532 -0.6782  0.4240  2.1267
    7MOL   C184 1756   5.889   6.163   7.503 -0.1961 -0.3653  0.3681
    7MOL   C185 1757   5.935   6.084   7.382  0.7442  0.0582  0.7336
    7MOL   C186 1758   6.037   5.999   7.366 -0.0621  0.5523  0.0455
    7MOL   C187 1759   6.077   5.930   7.234  0.6797  0.1636 -0.4063
    7MOL   C188 1760   6.145   5.980   7.470 -0.1708 -0.0790 -0.8076
    7MOL   H189 1761   5.945   6.133   7.592  1.2549  2.0782  0.3353
    7MOL   H190 1762   5.920   6.268   7.497  2.5783 -1.2308 -0.7500
    7MOL   H191 1763   5.872   6.094   7.295  0.4141 -0.9649  0.8468
    7MOL   H192 1764   6.183   5.930   7.208  0.9373 -1.2536  0.6049
    7MOL   H193 1765   6.028   5.979   7.150  4.1986  1.3092 -1.8666
    7MOL   H194 1766   6.040   5.828   7.239 -0.4837  0.6026  0.1129
    7MOL   H195 1767   6.179   6.074   7.515 -0.9064 -0.1334 -0.1200
    7MOL   H196 1768   6.241   5.950   7.427  1.9865  3.8195  0.9701
    7MOL   C197 1769   6.100   5.887   7.589  0.5786  0.4225 -0.4373
    7MOL   C198 1770   6.073   5.748   7.531  0.9376  0.0267 -0.2451
    7MOL   C199 1771   6.158   5.648   7.532 -0.4056  0.4668  0.0235
    7MOL   C200 1772   6.117   5.512   7.480  0.3311 -0.4354 -0.2746
    7MOL   C201 1773   6.300   5.651   7.588 -0.7518 -0.5467 -0.1043
    7MOL   H202 1774   6.009   5.928   7.633 -0.4778 -0.3720 -1.8597
    7MOL   H203 1775   6.168   5.881   7.674  0.2231 -0.7423 -0.2200
    7MOL   H204 1776   5.977   5.734   7.483  0.7365  2.3597 -0.5843
    7MOL   H205 1777   6.184   5.487   7.398  0.5832 -1.4221  0.2148
    7MOL   H206 1778   6.013   5.501   7.451  0.0409  0.6791  0.2968
    7MOL   H207 1779   6.134   5.435   7.556 -1.5768 -0.7540 -0.1519
    7MOL   H208 1780   6.333   5.754   7.599  2.2946 -1.7530  2.5143
    7MOL   H209 1781   6.364   5.604   7.513 -1.4470 -3.0928  0.8294
    7MOL   C210 1782   6.306   5.573   7.721 -0.5804 -0.1729 -0.3795
    7MOL   C211 1783   6.449   5.534   7.759 -0.6077 -0.9854 -0.2290
    7MOL   C212 1784   6.498   5.576   7.878  0.4347 -0.0646  0.5133
    7MOL   C213 1785   6.634   5.527   0.037  0.2520  0.3059 -0.1942
    7MOL   C214 1786   6.438   5.674   0.102  0.3521 -0.0878 -0.5976
    7MOL   H215 1787   6.258   5.476   7.706  2.1675 -1.7601  0.7407
    7MOL   H216 1788   6.242   5.616   7.798 -2.4519 -0.7226 -1.6015
    7MOL   H217 1789   6.513   5.468   7.702 -1.7286  0.2496 -3.0028
    7MOL   H218 1790   6.703   5.611   0.038 -0.0354  0.5666 -1.5677
    7MOL   H219 1791   6.674   5.446   7.854 -0.4540 -0.5618  0.4699
    7MOL   H220 1792   6.630   5.502   0.143 -1.7212  1.9761  0.1475
    7MOL   H221 1793   6.375   5.741   0.043  0.7919  1.2006  0.3870
    7MOL   H222 1794   6.517   5.733   0.147  0.8864 -1.2527  0.0013
    7MOL   C223 1795   6.351   5.613   0.209 -0.0694  0.5650 -0.0309
    7MOL   C224 1796   6.298   5.727   0.288  0.0720  0.1313 -0.3330
    7MOL   C225 1797   6.176   5.781   0.289 -0.4379  0.9288 -0.5654
    7MOL   C226 1798   6.125   5.894   0.378  0.3962 -0.2616  0.2162
    7MOL   C227 1799   6.058   5.715   0.218  0.0778 -0.3677  0.4774
    7MOL   H228 1800   6.402   5.539   0.270  0.1354  1.1166  0.4669
    7MOL   H229 1801   6.273   5.557   0.158  0.1938 -0.5522  0.7750
    7MOL   H230 1802   6.372   5.776   0.351  2.0494  0.6232 -2.9645
    7MOL   H231 1803   6.197   5.910   0.459 -0.8552  2.2171  0.9136
    7MOL   H232 1804   6.019   5.878   0.401  0.2943  0.2095  0.0952
    7MOL   H233 1805   6.131   5.986   0.319  1.0740 -0.4225  0.0368
    7MOL   H234 1806   5.971   5.679   0.274 -1.8336 -1.6909 -3.1937
    7MOL   H235 1807   6.090   5.623   0.170 -1.9767 -0.1541 -1.3656
    7MOL   C236 1808   6.001   5.804   0.109  0.1134 -0.4579 -0.9530
    7MOL   C237 1809   5.905   5.718   0.030  0.6017  1.0321 -0.6315
    7MOL   C238 1810   5.768   5.702   0.036  0.1416 -0.4074 -0.3199
    7MOL   C239 1811   5.698   5.595   7.832 -0.3853 -0.3613  0.4922
    7MOL   C240 1812   5.683   5.789   0.125 -0.7120  0.6065  0.4902
    7MOL   H241 1813   6.072   5.840   0.035 -0.5923  0.2493 -1.2975
    7MOL   H242 1814   5.957   5.896   0.146 -1.7933 -2.1420  1.1442
    7MOL   H243 1815   5.957   5.650   7.843 -0.5586 -0.3841 -0.1199
    7MOL   H244 1816   5.771   5.535   7.777  0.3112  1.4952 -0.6641
    7MOL   H245 1817   5.622   5.632   7.762  0.5187  3.1995  1.3087
    7MOL   H246 1818   5.652   5.515   0.011  1.3619 -1.2694  0.6378
    7MOL   H247 1819   5.645   5.868   0.061  0.6173 -0.2692 -1.4535
    7MOL   H248 1820   5.746   5.830   0.204  0.2734 -0.5910  0.3548
    7MOL   C249 1821   5.585   5.704   0.216  0.2133 -0.0730 -0.1004
    7MOL   C250 1822   5.665   5.603   0.300 -0.3869 -0.8744 -0.0363
    7MOL   C251 1823   5.732   5.630   0.416  0.4029  0.1245 -0.1067
    7MOL   C252 1824   5.808   5.510   0.479 -0.8130 -0.4204 -0.1313
    7MOL   C253 1825   5.736   5.756   0.496 -0.0998  0.1162  0.2837
    7MOL   H254 1826   5.510   5.655   0.153 -0.2427  0.6644 -0.1358
    7MOL   H255 1827   5.523   5.773   0.274 -0.6424  1.1809 -2.4106
    7MOL   H256 1828   5.659   5.503   0.259  1.1285 -0.1607 -2.0408
    7MOL   H257 1829   5.822   5.416   0.426  2.2400 -0.0944  0.0562
    7MOL   H258 1830   5.770   5.501   0.581 -1.2073  0.8240 -0.1590
    7MOL   H259 1831   5.912   5.541   0.481 -0.8363 -0.3623  0.4293
    7MOL   H260 1832   5.716   5.840   0.429  1.5742  0.4868  0.2239
    7MOL   H261 1833   5.839   5.764   0.531  0.5688 -1.4184 -1.2830
    7MOL   H262 1834   5.681   5.766   0.590 -1.5329  0.4132 -0.5678
    8MOL     C1 1835   7.116   3.309   7.054 -0.2042 -0.9401 -0.2368
    8MOL     C2 1836   7.057   3.173   7.070 -0.3590  0.2263 -0.4006
    8MOL     C3 1837   6.940   3.146   7.132  0.7046 -0.2701 -0.3160
    8MOL     C4 1838   6.888   3.007   7.122  0.3181 -0.1231  0.5072
    8MOL     C5 1839   6.862   3.257   7.206  0.0569 -0.0501 -0.1879
    8MOL     H6 1840   7.072   3.390   7.113  0.3273 -0.9659  0.1981
    8MOL     H7 1841   7.224   3.311   7.068 -0.0746  1.5601 -1.3435
    8MOL     H8 1842   7.108   3.088   7.027 -3.0282 -1.4467 -0.4243
    8MOL     H9 1843   6.899   2.984   7.017 -2.4142  2.1615 -0.3515
    8MOL    H10 1844   6.783   3.002   7.151  0.2974 -2.1149  0.1439
    8MOL    H11 1845   6.942   2.937   7.186  1.6982 -0.7743 -1.3351
    8MOL    H12 1846   6.929   3.329   7.252  2.3936 -2.4200  0.2525
    8MOL    H13 1847   6.822   3.203   7.292  1.8625 -0.3773  0.4703
    8MOL    H14 1848   7.107   3.337   6.949 -2.0571 -0.0258  0.1324
    8MOL    C15 1849   6.755   3.306   7.114  0.3763  0.1728  0.2528
    8MOL    C16 1850   6.663   3.404   7.178 -1.0182  0.3710 -0.4676
    8MOL    C17 1851   6.614   3.523   7.133 -0.1075 -0.0554 -0.6523
    8MOL    C18 1852   6.521   3.612   7.213 -0.0664 -0.4138 -0.5868
    8MOL    C19 1853   6.643   3.578   6.994  0.3188 -0.3479 -0.1637
    8MOL    H20 1854   6.696   3.222   7.078  0.8475  0.1524 -0.4961
    8MOL    H21 1855   6.805   3.349   7.027  1.9021 -1.3298  0.3592
    8MOL    H22 1856   6.636   3.373   7.278 -0.2108 -1.5884 -0.8409
    8MOL    H23 1857   6.429   3.616   7.156  0.5818  1.6944 -1.5293
    8MOL    H24 1858   6.561   3.712   7.231  0.0945 -0.5365 -0.2471
    8MOL    H25 1859   6.497   3.569   7.311 -1.7740  0.3663 -0.6512
    8MOL    H26 1860   6.549   3.596   6.942  0.9510 -2.2133 -2.0222
    8MOL    H27 1861   6.691   3.498   6.938 -0.3982 -0.2816 -0.8738
    8MOL    C28 1862   6.728   3.705   6.987 -0.0901 -0.3612 -0.0008
    8MOL    C29 1863   6.753   3.740   6.842  0.2134  0.3192 -0.2872
    8MOL    C30 1864   6.865   3.721   6.775 -0.1605  0.7404 -0.1379
    8MOL    C31 1865   6.868   3.767   6.632 -0.1969 -0.2608  0.2550
    8MOL    C32 1866   6.990   3.649   6.836 -0.5493  0.0283  0.2345
    8MOL    H33 1867   6.821   3.710   7.045 -0.7928 -0.6610  1.1626
    8MOL    H34 1868   6.667   3.791   7.014  1.1543  0.9984 -1.4071
    8MOL    H35 1869   6.667   3.779   6.790 -0.3265 -2.4445 -1.5608
    8MOL    H36 1870   6.770   3.801   6.597 -0.7197 -1.2428  0.7465
    8MOL    H37 1871   6.896   3.677   6.576  0.1371 -1.2288  1.9476
    8MOL    H38 1872   6.937   3.849   6.613  0.9868 -1.6380 -1.5574
    8MOL    H39 1873   7.036   3.572   6.774  0.3805  0.1133  0.8141
    8MOL    H40 1874   6.956   3.582   6.914 -1.4428 -0.5327 -0.6122
    8MOL    C41 1875   7.101   3.726   6.896 -0.0184  0.2139  0.0250
    8MOL    C42 1876   7.219   3.642   6.935  0.4964 -0.1697 -0.5372
    8MOL    C43 1877   7.294   3.658   7.044 -0.4554  0.6252 -0.4872
    8MOL    C44 1878   7.403   3.560   7.069 -0.0681  0.5656 -0.1036
    8MOL    C45 1879   7.283   3.770   7.140  0.7421 -0.0513 -0.8427
    8MOL    H46 1880   7.058   3.792   6.972 -0.9754 -0.7437  0.3216
    8MOL    H47 1881   7.145   3.790   6.819  2.6293 -1.6518 -0.0594
    8MOL    H48 1882   7.251   3.567   6.864  2.1311  0.4325 -0.4708
    8MOL    H49 1883   7.496   3.611   7.045  0.5020 -1.6581 -2.8079
    8MOL    H50 1884   7.401   3.466   7.014  0.6257  1.3607 -1.5059
    8MOL    H51 1885   7.399   3.520   7.170  1.7035 -2.2015 -1.0756
    8MOL    H52 1886   7.229   3.856   7.100  1.3252 -0.0629 -1.6818
    8MOL    H53 1887   7.381   3.814   7.158 -0.8574  2.9965  0.9012
    8MOL    C54 1888   7.219   3.732   7.276 -0.2080 -0.2951  0.1463
    8MOL    C55 1889   7.071   3.697   7.274  0.4839 -0.2057  0.2088
    8MOL    C56 1890   6.985   3.708   7.375 -0.2260 -0.0810  0.2731
    8MOL    C57 1891   6.843   3.649   7.367 -0.2343  0.0252 -0.5035
    8MOL    C58 1892   7.015   3.770   7.514 -0.3389 -0.2897 -0.0141
    8MOL    H59 1893   7.231   3.822   7.337 -2.3023  1.3499 -1.7532
    8MOL    H60 1894   7.281   3.654   7.318 -0.0432 -0.7865 -0.9878
    8MOL    H61 1895   7.042   3.641   7.186  0.7250 -1.4295  0.8949
    8MOL    H62 1896   6.836   3.587   7.456  0.1170 -0.4265 -0.7909
    8MOL    H63 1897   6.836   3.596   7.272  2.0733 -0.5197 -0.4003
    8MOL    H64 1898   6.773   3.733   7.361  0.3913  0.8213  2.3265
    8MOL    H65 1899   6.920   3.791   7.564 -3.2661 -1.4460 -4.8039
    8MOL    H66 1900   7.057   3.868   7.491  1.7347 -1.6925 -2.4268
    8MOL    C67 1901   7.102   3.681   7.606 -0.4386 -0.7213  0.4338
    8MOL    C68 1902   7.120   3.742   7.743  0.7952 -0.2752  0.0512
    8MOL    C69 1903   7.152   3.676   7.856 -0.8374 -0.9711 -0.7032
    8MOL    C70 1904   7.200   3.758   0.098 -0.7055 -0.0924 -0.5218
    8MOL    C71 1905   7.168   3.527   7.865 -0.2127  0.5541  0.1929
    8MOL    H72 1906   7.196   3.657   7.557 -1.2051 -0.6657 -1.0642
    8MOL    H73 1907   7.047   3.588   7.615 -0.4904 -0.9030 -1.6833
    8MOL    H74 1908   7.123   3.850   7.741  0.0974 -0.2430  1.0656
    8MOL    H75 1909   7.307   3.746   0.113 -0.3442  0.2865 -2.6515
    8MOL    H76 1910   7.137   3.723   0.180  1.2850 -2.0504  0.2280
    8MOL    H77 1911   7.159   3.859   0.097 -2.2827 -0.7170 -0.5461
    8MOL    H78 1912   7.082   3.473   7.825  0.9757 -1.3550  0.1332
    8MOL    H79 1913   7.170   3.508   0.094  0.4593  1.9167  0.4335
    8MOL    C80 1914   7.304   3.480   7.806  0.2521  0.7677  0.3734
    8MOL    C81 1915   7.325   3.336   7.855  0.2139  0.4635 -0.2750
    8MOL    C82 1916   7.386   3.298   0.093  0.2212  0.1787  0.0697
    8MOL    C83 1917   7.420   3.399   0.200  0.4430  0.1179  0.4961
    8MOL    C84 1918   7.428   3.152   0.126 -0.1901  0.8786  0.0053
    8MOL    H85 1919   7.389   3.533   7.849  1.8437  0.1478 -1.9335
    8MOL    H86 1920   7.313   3.484   7.698 -1.4696  1.0934  0.2239
    8MOL    H87 1921   7.298   3.255   7.790  0.4004 -1.6006  2.1531
    8MOL    H88 1922   7.394   3.501   0.170  0.3232  0.5408  2.0083
    8MOL    H89 1923   7.526   3.393   0.223  1.0240  0.5616 -1.9336
    8MOL    H90 1924   7.375   3.367   0.294 -1.5125  1.2877  0.0011
    8MOL    H91 1925   7.536   3.155   0.126 -0.1471  0.0005  1.7608
    8MOL    H92 1926   7.396   3.091   0.041 -2.7549 -0.4118  1.8219
    8MOL    C93 1927   7.375   3.097   0.251  0.3651  0.2652  0.0348
    8MOL    C94 1928   7.414   2.952   0.271  0.0878 -0.4535 -0.2444
    8MOL    C95 1929   7.521   2.910   0.340 -0.8035 -0.0959 -0.4968
    8MOL    C96 1930   7.556   2.765   0.365  0.1638  0.2625  0.2351
    8MOL    C97 1931   7.619   3.003   0.408 -0.9169 -0.1099  0.2964
    8MOL    H98 1932   7.267   3.106   0.256  0.3026  0.4894 -1.4354
    8MOL    H99 1933   7.415   3.151   0.337  0.6949  1.1409 -0.6668
    8MOL   H100 1934   7.344   2.882   0.228  0.5562 -0.6689 -0.6638
    8MOL   H101 1935   7.502   2.687   0.311 -0.9884 -0.2451  2.0323
    8MOL   H102 1936   7.659   2.761   0.333 -0.9429 -1.3554 -3.3190
    8MOL   H103 1937   7.561   2.742   0.472  0.0903  0.8560  0.3661
    8MOL   H104 1938   7.632   3.095   0.350  0.0079 -0.5419 -0.1842
    8MOL   H105 1939   7.723   2.972   0.401 -0.8579  0.0825  0.3111
    8MOL   C106 1940   7.563   3.065   0.542 -0.1084  0.0430  0.1707
    8MOL   C107 1941   7.659   3.159   0.622 -0.8351  0.0141  0.6443
    8MOL   C108 1942   7.654   3.293   0.628 -0.2615  0.4924  0.0623
    8MOL   C109 1943   7.556   3.377   0.544 -0.3834  0.2699  0.3527
    8MOL   C110 1944   7.749   3.375   0.712  0.0292  0.1132  0.1209
    8MOL   H111 1945   7.535   2.989   0.615  1.2666 -1.1951 -0.5522
    8MOL   H112 1946   7.470   3.121   0.543 -0.3030 -0.2604 -0.8104
    8MOL   H113 1947   7.741   3.111   0.672  1.1899  1.4994 -1.1536
    8MOL   H114 1948   7.552   3.342   0.441 -2.2287  2.2246 -0.2699
    8MOL   H115 1949   7.455   3.382   0.585 -0.9548  0.6685 -1.0841
    8MOL   H116 1950   7.595   3.479   0.543 -0.1979  0.2705  2.8911
    8MOL   H117 1951   7.827   3.417   0.649  1.1802  1.7816  2.5638
    8MOL   H118 1952   7.801   3.299   0.771 -1.2284 -0.1898  0.8565
    8MOL   C119 1953   7.679   3.477   0.813 -0.4129  0.0742 -0.3737
    8MOL   C120 1954   7.557   3.424   0.887 -0.0629 -0.2803  0.2669
    8MOL   C121 1955   7.514   3.451   1.009 -0.0528  0.0365 -0.4763
    8MOL   C122 1956   7.397   3.392   1.073  0.0034  0.0878  0.1158
    8MOL   C123 1957   7.593   3.547   1.102 -0.3249 -0.4248 -0.3957
    8MOL   H124 1958   7.655   3.571   0.763  3.2217  1.8796  1.1284
    8MOL   H125 1959   7.750   3.495   0.893  0.9781  2.4593 -2.0772
    8MOL   H126 1960   7.500   3.355   0.828 -0.7010 -0.4531  1.0792
    8MOL   H127 1961   7.379   3.296   1.024 -1.1566  0.9960 -1.2700
    8MOL   H128 1962   7.319   3.464   1.095 -1.9057 -1.3989 -1.5868
    8MOL   H129 1963   7.431   3.364   1.173 -1.1562  2.9775  1.3621
    8MOL   H130 1964   7.675   3.595   1.048 -2.0441  1.2139 -1.5932
    8MOL   H131 1965   7.645   3.487   1.177  3.1325  1.5535 -1.0789
    8MOL   C132 1966   7.502   3.649   1.172 -0.2646 -0.9034  0.2191
    8MOL   C133 1967   7.573   3.770   1.230  0.2126 -0.1993 -0.7159
    8MOL   C134 1968   7.593   3.895   1.182  0.0217  0.4872  0.4245
    8MOL   C135 1969   7.677   4.001   1.256  0.3283  0.3902  0.1109
    8MOL   C136 1970   7.538   3.939   1.043  0.1240 -0.6201 -0.0230
    8MOL   H137 1971   7.435   3.598   1.241 -1.0554 -2.6633 -1.7726
    8MOL   H138 1972   7.443   3.694   1.091  0.1024 -0.8708 -0.0315
    8MOL   H139 1973   7.613   3.749   1.328 -0.5193 -0.2580 -0.4247
    8MOL   H140 1974   7.758   4.032   1.190 -1.2286  1.1314 -1.4758
    8MOL   H141 1975   7.718   3.962   1.349 -2.8430 -2.6410  0.3543
    8MOL   H142 1976   7.617   4.091   1.266 -1.4735 -1.0366  2.9033
    8MOL   H143 1977   7.479   4.029   1.057  1.4677  0.1491  0.8992
    8MOL   H144 1978   7.456   3.878   1.008 -0.2408 -1.2587  1.9439
    8MOL   C145 1979   7.644   3.960   0.928  0.9437 -0.1922  0.5802
    8MOL   C146 1980   7.567   3.985   0.796 -0.2845  0.1687 -0.2418
    8MOL   C147 1981   7.623   4.041   0.685  0.4684  0.2170  0.0975
    8MOL   C148 1982   7.536   4.048   0.552 -0.5537  0.5130  0.2215
    8MOL   C149 1983   7.767   4.091   0.675 -0.4594  0.2735  0.0582
    8MOL   H150 1984   7.704   3.874   0.899 -1.0548 -1.4203 -0.0675
    8MOL   H151 1985   7.720   4.035   0.949  0.3783  1.6571 -3.5205
    8MOL   H152 1986   7.465   3.954   0.785  0.1538 -1.3418 -0.2172
    8MOL   H153 1987   7.545   3.951   0.504  1.4925  1.5940 -1.7046
    8MOL   H154 1988   7.585   4.116   0.482  0.9663 -1.0162 -0.2171
    8MOL   H155 1989   7.431   4.071   0.572 -0.1407  1.4885  1.4071
    8MOL   H156 1990   7.805   4.052   0.581 -3.4653  1.6056 -1.7706
    8MOL   H157 1991   7.845   4.047   0.737  0.9223  0.7833 -1.3030
    8MOL   C158 1992   7.777   4.250   0.671 -0.0203  0.1316  0.4564
    8MOL   C159 1993   0.048   4.278   0.663  0.3468 -0.1532  0.0024
    8MOL   C160 1994   0.110   4.387   0.699 -0.6281 -0.7339 -0.0740
    8MOL   C161 1995   0.043   4.503   0.776  1.2946 -0.1481 -0.0692
    8MOL   C162 1996   0.256   4.401   0.674  0.6189 -0.4509 -0.0541
    8MOL   H163 1997   7.727   4.295   0.757 -0.0094  2.6346 -0.7908
    8MOL   H164 1998   7.739   4.301   0.582 -0.0658 -0.9799 -0.1669
    8MOL   H165 1999   0.115   4.205   0.621  0.5221 -0.5080  0.8880
    8MOL   H166 2000   7.813   4.496   0.779  1.3056 -0.2323  0.1648
    8MOL   H167 2001   0.064   4.594   0.720  0.5444  1.3003  1.9415
    8MOL   H168 2002   0.075   4.510   0.880 -0.7178 -1.4252  0.6701
    8MOL   H169 2003   0.279   4.501   0.637 -0.3025  0.2548  1.2348
    8MOL   H170 2004   0.282   4.334   0.592  2.2652  0.0998 -0.0104
    8MOL   C171 2005   0.340   4.361   0.793  0.2092 -0.3551 -0.0571
    8MOL   C172 2006   0.490   4.367   0.771  0.0983  0.0711 -0.3001
    8MOL   C173 2007   0.571   4.265   0.807 -0.3144  0.2002  0.2288
    8MOL   C174 2008   0.535   4.134   0.881 -0.3875  0.2512 -0.6963
    8MOL   C175 2009   0.720   4.288   0.796 -0.1856  0.5163  0.8590
    8MOL   H176 2010   0.308   4.263   0.830  1.2560 -0.0108  1.8430
    8MOL   H177 2011   0.313   4.432   0.871  2.5379  0.3750  0.1367
    8MOL   H178 2012   0.530   4.456   0.726 -0.8935  0.3331 -0.6624
    8MOL   H179 2013   0.527   4.165   0.986  0.8791  0.7069 -0.7200
    8MOL   H180 2014   0.616   4.061   0.870 -0.3842  0.3818 -1.5447
    8MOL   H181 2015   0.442   4.090   0.845 -0.3508  1.5129 -2.3927
    8MOL   H182 2016   0.743   4.367   0.726 -2.4844  2.7808  2.5658
    8MOL   H183 2017   0.760   4.197   0.750 -1.4821 -0.3162  1.3334
    8MOL   C184 2018   0.804   4.308   0.925  0.0183 -0.5390  0.2980
    8MOL   C185 2019   0.952   4.326   0.899  0.1303  0.0202 -0.0864
    8MOL   C186 2020   1.013   4.430   0.844  0.2001 -0.7049 -0.3431
    8MOL   C187 2021   1.157   4.441   0.840 -0.6247  0.5234  0.1548
    8MOL   C188 2022   0.947   4.569   0.814  0.0989  0.7267 -0.0575
    8MOL   H189 2023   0.803   4.207   0.967  0.8478 -0.0012  1.6455
    8MOL   H190 2024   0.768   4.375   1.003 -0.4846 -0.9675  0.4370
    8MOL   H191 2025   1.031   4.255   0.916  0.9961  1.8631  4.2171
    8MOL   H192 2026   1.198   4.343   0.813 -2.6596 -0.7405  1.5206
    8MOL   H193 2027   1.189   4.472   0.939  0.3781 -0.5756  0.1804
    8MOL   H194 2028   1.191   4.517   0.769  1.2768  0.2175  0.7044
    8MOL   H195 2029   0.992   4.646   0.876 -0.7564  0.5693  0.7656
    8MOL   H196 2030   0.842   4.556   0.838 -0.0305 -2.1121 -1.8231
    8MOL   C197 2031   0.966   4.612   0.669 -0.5557 -0.7835 -0.1480
    8MOL   C198 2032   0.863   4.727   0.627 -0.4890 -0.1639 -0.3977
    8MOL   C199 2033   0.766   4.716   0.539  0.1875  0.4203 -0.6322
    8MOL   C200 2034   0.663   4.831   0.512  0.0972  0.2469  0.3701
    8MOL   C201 2035   0.733   4.586   0.471 -0.3420 -0.3118  0.2050
    8MOL   H202 2036   0.956   4.533   0.595  1.8614 -0.4626 -0.8329
    8MOL   H203 2037   1.061   4.661   0.650 -0.9656 -0.7112 -2.0647
    8MOL   H204 2038   0.881   4.824   0.671 -1.3113 -0.1106 -0.1733
    8MOL   H205 2039   0.688   4.916   0.575 -1.7818  1.4037 -0.4005
    8MOL   H206 2040   0.562   4.793   0.531 -0.1935  2.5532  3.8206
    8MOL   H207 2041   0.668   4.865   0.408 -3.5018 -2.0264 -0.6363
    8MOL   H208 2042   0.626   4.567   0.479  0.2707 -3.5813  1.1187
    8MOL   H209 2043   0.772   4.500   0.525  0.6558  1.4096  2.2979
    8MOL   C210 2044   0.764   4.594   0.319  0.5196  0.7503  0.3307
    8MOL   C211 2045   0.701   4.477   0.243  0.3799  0.4589  0.4345
    8MOL   C212 2046   0.748   4.404   0.145  0.2688  0.4684  0.3553
    8MOL   C213 2047   0.665   4.300   0.069  0.0728 -0.3103 -0.3790
    8MOL   C214 2048   0.884   4.431   0.087 -0.4927 -0.1497 -0.1428
    8MOL   H215 2049   0.871   4.610   0.304  0.6257  0.2754  0.5469
    8MOL   H216 2050   0.728   4.686   0.274 -0.3980 -0.3401 -1.1950
    8MOL   H217 2051   0.597   4.463   0.267  0.8539 -0.9296  1.7289
    8MOL   H218 2052   0.731   4.215   0.053  0.6766 -0.1337  1.0804
    8MOL   H219 2053   0.647   4.333   7.846 -0.2204 -4.2392 -1.6776
    8MOL   H220 2054   0.579   4.252   0.116  0.0477  0.0785 -0.0210
    8MOL   H221 2055   0.920   4.348   0.027 -1.4814  0.8973 -2.2454
    8MOL   H222 2056   0.955   4.449   0.168  0.0071 -2.0708 -0.1466
    8MOL   C223 2057   0.893   4.555   7.870  0.0576  0.0598 -0.1397
    8MOL   C224 2058   0.822   4.549   7.735 -0.1138  0.5854  0.0764
    8MOL   C225 2059   0.881   4.516   7.616 -0.1193  0.4236 -0.2860
    8MOL   C226 2060   0.797   4.511   7.489 -0.0083  0.5767 -0.0185
    8MOL   C227 2061   1.026   4.469   7.604  0.3930  0.1267 -0.4371
    8MOL   H228 2062   0.999   4.572   7.858  0.7274 -4.3354 -1.2770
    8MOL   H229 2063   0.849   4.645   0.035 -2.7696 -1.5306  0.4687
    8MOL   H230 2064   0.718   4.576   7.733  0.0223  1.0434 -1.2157
    8MOL   H231 2065   0.841   4.537   7.393 -0.3835 -2.0152 -0.9188
    8MOL   H232 2066   0.709   4.575   7.499  0.4882  1.6076 -2.0459
    8MOL   H233 2067   0.767   4.406   7.486 -0.5478  0.6986  0.8106
    8MOL   H234 2068   1.032   4.380   7.540  0.8877  0.3614 -0.7158
    8MOL   H235 2069   1.064   4.432   7.700  1.7895 -0.3128 -1.1423
    8MOL   C236 2070   1.126   4.576   7.555  0.6173  0.3560 -0.6863
    8MOL   C237 2071   1.264   4.520   7.533 -0.4237  0.7354  0.0342
    8MOL   C238 2072   1.364   4.506   7.622  0.4564 -0.0628  0.4371
    8MOL   C239 2073   1.504   4.458   7.577 -1.1615  0.3578  0.0678
    8MOL   C240 2074   1.356   4.550   7.767  0.3125  0.4090 -0.1119
    8MOL   H241 2075   1.128   4.654   7.632  2.8127 -0.7552  0.4356
    8MOL   H242 2076   1.097   4.609   7.455 -3.2719 -1.8972 -0.3830
    8MOL   H243 2077   1.279   4.467   7.440  0.5652  1.9472 -0.5181
    8MOL   H244 2078   1.499   4.397   7.487  0.8477 -0.3817  0.4570
    8MOL   H245 2079   1.558   4.382   7.633 -2.8559 -0.2852  0.8789
    8MOL   H246 2080   1.571   4.541   7.557  1.7764 -2.3332 -1.5673
    8MOL   H247 2081   1.364   4.462   7.831  1.8188  0.9489  0.4642
    8MOL   H248 2082   1.259   4.599   7.779  0.2603  0.9140 -2.3719
    8MOL   C249 2083   1.459   4.651   7.811 -0.2215  0.5585 -0.4948
    8MOL   C250 2084   1.436   4.794   7.751  0.1948 -0.7163 -0.0742
    8MOL   C251 2085   1.520   4.899   7.770  0.6047 -0.4167  0.4820
    8MOL   C252 2086   1.482   5.037   7.708  0.0787  0.6527  0.7917
    8MOL   C253 2087   1.655   4.895   7.829  0.5438  0.0111 -0.3222
    8MOL   H254 2088   1.553   4.602   7.784 -1.0201 -1.3155 -0.0148
    8MOL   H255 2089   1.442   4.659   0.040 -1.3986  1.5464 -0.7453
    8MOL   H256 2090   1.338   4.810   7.709  0.6090  0.7290 -0.5536
    8MOL   H257 2091   1.445   5.109   7.781 -0.4435  1.0463  0.1480
    8MOL   H258 2092   1.404   5.025   7.633  1.7164 -0.9944 -0.6780
    8MOL   H259 2093   1.564   5.075   7.647 -0.0388 -0.5121 -0.0918
    8MOL   H260 2094   1.707   4.805   7.796 -0.2036 -1.4252  2.2770
    8MOL   H261 2095   1.646   4.902   0.059  1.0385  1.3534 -0.3590
    8MOL   H262 2096   1.707   4.987   7.803 -1.2778  1.7891  2.0616
    9MOL     C1 2097   2.186   0.610   3.764 -0.6388  0.4199 -0.3760
    9MOL     C2 2098   2.309   0.545   3.826  0.0264  0.3003 -0.5954
    9MOL     C3 2099   2.314   0.429   3.893  0.0943 -0.1649  0.3531
    9MOL     C4 2100   2.444   0.383   3.955  0.3721 -0.7647 -0.4271
    9MOL     C5 2101   2.195   0.340   3.907 -0.3194  0.1751  0.2468
    9MOL     H6 2102   2.126   0.531   3.720 -1.0180  0.5010 -0.0080
    9MOL     H7 2103   2.126   0.670   3.833  1.0331 -1.8565  3.2298
    9MOL     H8 2104   2.391   0.614   3.841 -1.4664  1.5991  1.8788
    9MOL     H9 2105   2.518   0.461   3.969  0.4707 -1.1787  1.5539
    9MOL    H10 2106   2.473   0.298   3.892  1.7931 -0.8199  0.2830
    9MOL    H11 2107   2.429   0.341   4.055  1.2558 -1.0412 -0.4082
    9MOL    H12 2108   2.227   0.241   3.939  0.4997  0.4248  0.2015
    9MOL    H13 2109   2.143   0.315   3.814  1.6374 -0.1346 -0.7965
    9MOL    H14 2110   2.201   0.676   3.678  1.7261 -0.1286 -0.4279
    9MOL    C15 2111   2.087   0.399   4.004  0.5592  0.1928  0.4239
    9MOL    C16 2112   1.986   0.290   4.051  0.3543  0.0699  0.5369
    9MOL    C17 2113   1.856   0.291   4.017 -0.2316  0.3647  0.4346
    9MOL    C18 2114   1.757   0.184   4.040 -0.0640  0.5055  0.4364
    9MOL    C19 2115   1.786   0.409   3.937 -0.0868  0.0248  0.7976
    9MOL    H20 2116   2.045   0.490   3.961 -0.3314 -0.0866  0.6734
    9MOL    H21 2117   2.145   0.411   4.095 -1.7668 -3.4906  2.5366
    9MOL    H22 2118   2.032   0.202   4.093  0.3053 -0.2477 -0.0700
    9MOL    H23 2119   1.720   0.147   3.944 -1.7125  1.1184  0.8280
    9MOL    H24 2120   1.684   0.211   4.116 -2.5251 -0.3028 -1.5609
    9MOL    H25 2121   1.807   0.105   4.096 -0.0105  0.9960  1.0828
    9MOL    H26 2122   1.832   0.502   3.971  0.6987 -0.0951  0.0864
    9MOL    H27 2123   1.679   0.406   3.959 -0.0663 -0.2989  0.8555
    9MOL    C28 2124   1.807   0.386   3.785 -0.4492 -0.2572  0.0030
    9MOL    C29 2125   1.683   0.324   3.711 -0.0598  0.0404  0.1080
    9MOL    C30 2126   1.685   0.220   3.622 -0.3032  0.7316  0.4353
    9MOL    C31 2127   1.554   0.157   3.572  0.5775  0.9260  0.1672
    9MOL    C32 2128   1.815   0.159   3.563 -0.2480 -0.4364 -0.0040
    9MOL    H33 2129   1.888   0.317   3.766 -0.4923 -0.4869  0.6436
    9MOL    H34 2130   1.823   0.480   3.732 -2.2646  0.6205  0.9391
    9MOL    H35 2131   1.592   0.368   3.750 -0.7155 -0.0323 -1.2767
    9MOL    H36 2132   1.476   0.231   3.589  4.2902  4.2329  3.5894
    9MOL    H37 2133   1.541   0.065   3.629  0.4739  0.0001 -1.3186
    9MOL    H38 2134   1.562   0.129   3.467  0.6414 -0.3542  0.4998
    9MOL    H39 2135   1.904   0.216   3.592 -0.3363  0.6810 -1.8827
    9MOL    H40 2136   1.819   0.171   3.455  1.4740  0.6688  0.1512
    9MOL    C41 2137   1.828   0.017   3.608 -0.7872  1.2237 -0.0269
    9MOL    C42 2138   1.956   7.830   3.563 -0.0052  0.1382  0.0718
    9MOL    C43 2139   1.987   7.699   3.550 -1.1133  0.2227 -0.0762
    9MOL    C44 2140   2.117   7.653   3.483  0.2279  0.0176 -0.0126
    9MOL    C45 2141   1.904   7.589   3.597  0.0984 -0.1718 -0.7057
    9MOL    H46 2142   1.742   7.842   3.568  0.7138 -1.3003  0.0397
    9MOL    H47 2143   1.819   0.006   3.716 -0.8740 -1.0712 -0.2345
    9MOL    H48 2144   2.031   0.024   3.536  0.5069  0.5007  2.3691
    9MOL    H49 2145   2.190   7.734   3.476  0.1768  0.1105  0.5151
    9MOL    H50 2146   2.104   7.604   3.386 -0.9202  0.1257  0.0761
    9MOL    H51 2147   2.155   7.582   3.557 -2.1129 -2.0424 -0.7393
    9MOL    H52 2148   1.822   7.645   3.641  0.5332 -0.5679  0.6235
    9MOL    H53 2149   1.958   7.541   3.678 -1.4354 -0.6629  0.0369
    9MOL    C54 2150   1.859   7.488   3.492 -0.3246 -0.2159 -0.0400
    9MOL    C55 2151   1.785   7.550   3.378 -0.2823 -0.7338  0.7462
    9MOL    C56 2152   1.808   7.517   3.248  0.1259 -0.0874  0.1270
    9MOL    C57 2153   1.744   7.599   3.131 -0.6796  0.1694  0.2237
    9MOL    C58 2154   1.882   7.389   3.192  0.0100  0.5600  0.2257
    9MOL    H59 2155   1.775   7.442   3.544 -1.1436 -0.9425 -1.9543
    9MOL    H60 2156   1.928   7.408   3.467  0.8494  0.9552 -0.6639
    9MOL    H61 2157   1.723   7.635   3.401  0.4842  0.0244  0.0184
    9MOL    H62 2158   1.716   7.701   3.157  1.3763  0.9409 -0.4356
    9MOL    H63 2159   1.653   7.545   3.105 -0.5085 -0.4694  0.9370
    9MOL    H64 2160   1.815   7.606   3.048  1.2997  0.7734  1.9343
    9MOL    H65 2161   1.842   7.352   3.097 -0.6614  0.4591  0.5501
    9MOL    H66 2162   1.889   7.312   3.269 -0.4328  0.5054  0.2116
    9MOL    C67 2163   2.033   7.436   3.174 -0.4539 -1.0968  0.0049
    9MOL    C68 2164   2.107   7.378   3.057  0.1148 -0.1556  0.2611
    9MOL    C69 2165   2.240   7.407   3.041 -0.0308 -0.3233  0.5930
    9MOL    C70 2166   2.312   7.361   2.909  0.2700  0.1570 -0.2726
    9MOL    C71 2167   2.334   7.495   3.123 -0.2578 -0.3312 -0.5239
    9MOL    H72 2168   2.083   7.429   3.270  0.0622  1.2360 -0.0449
    9MOL    H73 2169   2.038   7.542   3.146  3.0467 -1.5377 -1.1514
    9MOL    H74 2170   2.052   7.321   2.983 -0.5082  0.6456  0.0940
    9MOL    H75 2171   2.278   7.273   2.855  2.0868 -0.0759 -1.0872
    9MOL    H76 2172   2.421   7.357   2.917  0.0987  2.5129  4.6462
    9MOL    H77 2173   2.309   7.445   2.839  0.3133  0.8148  0.5120
    9MOL    H78 2174   2.288   7.568   3.190  1.1793  0.2486 -0.1474
    9MOL    H79 2175   2.381   7.563   3.052 -1.1941  0.8427 -0.0383
    9MOL    C80 2176   2.441   7.421   3.193 -0.2375  0.1740  0.2257
    9MOL    C81 2177   2.529   7.512   3.266  0.3667  0.2079 -0.6439
    9MOL    C82 2178   2.554   7.532   3.398  0.2129  0.3862  0.5309
    9MOL    C83 2179   2.467   7.467   3.499  0.0688  0.0356  0.0253
    9MOL    C84 2180   2.656   7.632   3.451 -0.1161 -0.0090  0.1690
    9MOL    H85 2181   2.503   7.365   3.124 -1.4537 -0.9864  0.0444
    9MOL    H86 2182   2.394   7.345   3.256  1.5103 -0.8679  0.2949
    9MOL    H87 2183   2.597   7.569   3.203 -0.1401  2.0733  0.4635
    9MOL    H88 2184   2.535   7.411   3.564 -0.0726  0.0430  0.1788
    9MOL    H89 2185   2.403   7.391   3.454 -0.0494  1.1957 -1.8058
    9MOL    H90 2186   2.403   7.533   3.558  0.3805  1.9969 -1.7727
    9MOL    H91 2187   2.713   7.683   3.373  2.3958 -1.0290  1.2713
    9MOL    H92 2188   2.722   7.557   3.494  0.3686 -0.1667 -0.8254
    9MOL    C93 2189   2.601   7.741   3.545  0.4694  0.7698  0.4806
    9MOL    C94 2190   2.710   7.831   3.603  0.0794  0.2383  0.2450
    9MOL    C95 2191   2.738   0.082   3.569 -0.4129 -0.0273 -0.7169
    9MOL    C96 2192   2.859   0.149   3.637 -0.0076 -0.3060  0.2233
    9MOL    C97 2193   2.666   0.175   3.476  0.4921 -0.0004 -0.0301
    9MOL    H98 2194   2.544   7.694   3.625 -2.2737 -0.6676 -2.2239
    9MOL    H99 2195   2.528   7.805   3.496 -0.9019 -0.1818  1.2555
    9MOL   H100 2196   2.759   7.779   3.683  2.0357  2.0304  0.2316
    9MOL   H101 2197   2.825   0.228   3.704 -0.1708  1.8170 -2.2429
    9MOL   H102 2198   2.917   0.080   3.696 -1.1665 -0.7438  0.8710
    9MOL   H103 2199   2.923   0.191   3.559  3.4570  0.6024  3.4391
    9MOL   H104 2200   2.582   0.127   3.426 -0.7716  1.7072  0.4001
    9MOL   H105 2201   2.733   0.218   3.401  0.6280  2.1761  1.3239
    9MOL   C106 2202   2.592   0.294   3.554 -0.4204  0.4002 -0.3206
    9MOL   C107 2203   2.485   0.369   3.484 -0.4565 -0.7464  0.6779
    9MOL   C108 2204   2.513   0.465   3.395 -0.0490 -0.0387 -0.3143
    9MOL   C109 2205   2.658   0.487   3.348  0.0277 -0.7047 -0.2782
    9MOL   C110 2206   2.410   0.540   3.316 -0.3752  0.0776  0.0887
    9MOL   H111 2207   2.656   0.367   3.603  0.1960  1.1067 -2.1191
    9MOL   H112 2208   2.544   0.235   3.631 -0.7860 -0.4198 -1.1591
    9MOL   H113 2209   2.381   0.357   3.514 -0.4670  1.2089  1.4823
    9MOL   H114 2210   2.729   0.491   3.431  0.9610 -0.4423 -1.0852
    9MOL   H115 2211   2.693   0.408   3.282  1.1952  1.2189 -2.0197
    9MOL   H116 2212   2.666   0.583   3.297 -0.6067 -0.1490  0.6441
    9MOL   H117 2213   2.417   0.505   3.213 -0.9677 -0.8978  0.3700
    9MOL   H118 2214   2.443   0.644   3.317 -0.2201  0.0157  1.3612
    9MOL   C119 2215   2.263   0.523   3.356  0.2985  0.0275  0.1290
    9MOL   C120 2216   2.182   0.604   3.257  0.1253 -0.4728 -0.0393
    9MOL   C121 2217   2.104   0.553   3.165  0.1439 -0.1671  0.3284
    9MOL   C122 2218   2.015   0.641   3.082  0.2674  0.3014  0.3438
    9MOL   C123 2219   2.097   0.401   3.122  0.2915  0.4662 -0.3272
    9MOL   H124 2220   2.243   0.568   3.453 -1.3771 -0.7210  0.1527
    9MOL   H125 2221   2.234   0.418   3.361 -0.3782  0.2669  1.5794
    9MOL   H126 2222   2.187   0.711   3.269  1.0388 -0.1537 -2.7510
    9MOL   H127 2223   2.020   0.749   3.093  1.0661  0.4183 -1.0937
    9MOL   H128 2224   1.909   0.618   3.070  0.1982  0.6390  0.3061
    9MOL   H129 2225   2.042   0.620   2.979  1.9610  0.7706  0.6813
    9MOL   H130 2226   2.198   0.358   3.119 -0.0629 -0.3175 -1.4415
    9MOL   H131 2227   2.078   0.396   3.015  1.1860  0.9431 -0.5210
    9MOL   C132 2228   1.992   0.321   3.197 -0.1447 -0.2559 -0.0228
    9MOL   C133 2229   1.851   0.379   3.193 -0.4607 -0.2310 -0.1371
    9MOL   C134 2230   1.791   0.466   3.271  0.1302 -0.5199 -0.1680
    9MOL   C135 2231   1.646   0.508   3.236  0.3024  0.5776 -0.2371
    9MOL   C136 2232   1.859   0.544   3.383 -0.0398 -0.0609 -0.3989
    9MOL   H137 2233   2.027   0.318   3.301 -2.3795  2.2779  0.8844
    9MOL   H138 2234   1.993   0.216   3.168  0.9590 -0.4655  0.7269
    9MOL   H139 2235   1.795   0.347   3.106 -1.3369 -0.1952  0.4133
    9MOL   H140 2236   1.620   0.494   3.131  1.9340  0.6643 -0.6591
    9MOL   H141 2237   1.627   0.614   3.254 -1.6653  0.3133 -0.5858
    9MOL   H142 2238   1.569   0.455   3.292 -0.1600  0.2121 -1.2204
    9MOL   H143 2239   1.967   0.528   3.392 -0.0028 -0.0406 -0.8000
    9MOL   H144 2240   1.828   0.513   3.483  2.5485 -1.5782 -0.0080
    9MOL   C145 2241   1.835   0.704   3.389 -0.0490  0.7247 -0.0625
    9MOL   C146 2242   1.905   0.762   3.515 -0.7300  0.0504  0.3929
    9MOL   C147 2243   1.976   0.876   3.533  0.6421 -0.5931  0.2909
    9MOL   C148 2244   1.997   0.936   3.670  0.2083 -0.3350  0.3473
    9MOL   C149 2245   2.039   0.961   3.416 -0.2481 -0.3967 -0.4701
    9MOL   H150 2246   1.732   0.739   3.390 -0.1146  0.5330  1.7805
    9MOL   H151 2247   1.879   0.756   3.304 -0.5435 -0.2150 -0.8837
    9MOL   H152 2248   1.873   0.719   3.609  0.3610  1.2030  1.3059
    9MOL   H153 2249   1.958   1.037   3.685 -1.0260 -0.3420 -2.5670
    9MOL   H154 2250   2.105   0.929   3.682  0.4159 -0.0001 -1.2328
    9MOL   H155 2251   1.942   0.877   3.744  1.3273  0.2751  1.6878
    9MOL   H156 2252   1.984   1.055   3.417 -0.1967 -0.3628 -1.0860
    9MOL   H157 2253   2.000   0.908   3.329 -0.5247 -1.1971  0.1263
    9MOL   C158 2254   2.193   0.985   3.410 -0.6551 -0.6827 -0.0248
    9MOL   C159 2255   2.248   1.082   3.520  0.1094 -0.4049  0.0798
    9MOL   C160 2256   2.326   1.063   3.625 -0.6851  0.1831  0.3337
    9MOL   C161 2257   2.401   0.940   3.648  0.1141 -0.4175 -0.0090
    9MOL   C162 2258   2.343   1.181   3.723  0.8376 -0.0493  0.1543
    9MOL   H163 2259   2.231   1.021   3.314  2.6070 -0.5811  1.2238
    9MOL   H164 2260   2.250   0.894   3.425  0.6906  0.2843  0.8763
    9MOL   H165 2261   2.195   1.176   3.526  0.3730 -0.2938  0.6939
    9MOL   H166 2262   2.370   0.860   3.581 -0.7620 -2.0291  2.2415
    9MOL   H167 2263   2.394   0.915   3.754 -0.1359 -0.5747 -0.0624
    9MOL   H168 2264   2.509   0.937   3.629  0.0831 -1.3092 -0.0773
    9MOL   H169 2265   2.318   1.136   3.819  3.8666 -2.3168 -0.0674
    9MOL   H170 2266   2.264   1.255   3.706  1.0172  0.5344  1.8183
    9MOL   C171 2267   2.477   1.260   3.716 -0.4173 -0.4165 -0.1236
    9MOL   C172 2268   2.484   1.368   3.818 -0.0012  0.2945 -0.2550
    9MOL   C173 2269   2.556   1.385   3.928 -0.1741  0.1830 -0.0178
    9MOL   C174 2270   2.668   1.281   3.966 -0.3309  0.0692  0.0562
    9MOL   C175 2271   2.551   1.522   4.002 -0.8007 -0.0582 -0.1757
    9MOL   H176 2272   2.486   1.307   3.618 -2.7218  1.9203  0.7234
    9MOL   H177 2273   2.563   1.193   3.718  1.4136  1.8146 -1.3585
    9MOL   H178 2274   2.421   1.453   3.795 -1.3900 -0.6754 -0.0806
    9MOL   H179 2275   2.645   1.192   3.907  3.8583 -0.2229 -1.2557
    9MOL   H180 2276   2.653   1.268   4.073  2.0935 -0.2443  0.3932
    9MOL   H181 2277   2.766   1.318   3.936  1.1046 -2.8549  0.8809
    9MOL   H182 2278   2.482   1.587   3.947  0.4481  0.2807 -1.3668
    9MOL   H183 2279   2.651   1.561   3.984 -0.8237 -0.2541 -0.7420
    9MOL   C184 2280   2.517   1.502   4.153 -0.1314 -0.1497  0.6567
    9MOL   C185 2281   2.524   1.628   4.235  0.3654  0.0251  0.5762
    9MOL   C186 2282   2.616   1.672   4.322  0.7234  0.1198  0.4170
    9MOL   C187 2283   2.605   1.808   4.382  1.1437 -0.0963  0.0321
    9MOL   C188 2284   2.737   1.588   4.358 -0.8533  0.1145  0.3040
    9MOL   H189 2285   2.582   1.427   4.196 -0.7753 -0.9679  0.2062
    9MOL   H190 2286   2.418   1.455   4.158  0.1186 -0.8237 -0.6339
    9MOL   H191 2287   2.448   1.702   4.211 -0.5026 -1.3597 -1.0354
    9MOL   H192 2288   2.539   1.862   4.314  0.5525  0.5943  1.1428
    9MOL   H193 2289   2.702   1.857   4.373  1.0684 -0.0694 -0.5939
    9MOL   H194 2290   2.565   1.802   4.483 -3.0933 -3.0059 -1.6748
    9MOL   H195 2291   2.820   1.652   4.386  0.6149 -1.0111 -1.3924
    9MOL   H196 2292   2.766   1.549   4.260 -2.1012  0.7758 -0.3400
    9MOL   C197 2293   2.709   1.480   4.462  0.3336 -0.0435  0.5538
    9MOL   C198 2294   2.824   1.391   4.479  0.1770  0.2421  0.1388
    9MOL   C199 2295   2.889   1.338   4.587  0.1848  0.4806 -0.3529
    9MOL   C200 2296   3.018   1.258   4.571 -0.5797 -0.0327 -0.7877
    9MOL   C201 2297   2.847   1.349   4.732 -0.1666 -0.3488 -0.8145
    9MOL   H202 2298   2.635   1.409   4.425 -0.1416  1.6933 -1.9846
    9MOL   H203 2299   2.682   1.507   4.565 -0.9831 -0.4810  0.3372
    9MOL   H204 2300   2.883   1.376   4.389 -1.2622 -2.6740 -0.3510
    9MOL   H205 2301   3.007   1.164   4.625  0.9997  0.7905  1.0376
    9MOL   H206 2302   3.098   1.309   4.625  0.2988 -1.0070 -1.1249
    9MOL   H207 2303   3.045   1.245   4.466  1.4589  0.4940 -0.3558
    9MOL   H208 2304   2.851   1.254   4.784 -2.3237 -0.5509 -0.9791
    9MOL   H209 2305   2.742   1.377   4.737 -0.3858 -1.5760  2.9412
    9MOL   C210 2306   2.932   1.445   4.813 -0.4771  0.2679 -0.0189
    9MOL   C211 2307   2.889   1.479   4.957 -0.4068  0.4730 -0.8123
    9MOL   C212 2308   2.790   1.560   5.000  0.6964  0.3692 -0.2283
    9MOL   C213 2309   2.769   1.582   5.149 -0.5004 -0.7836 -0.3200
    9MOL   C214 2310   2.702   1.641   4.911 -0.0404  0.0437 -1.0396
    9MOL   H215 2311   2.924   1.544   4.767  0.1530 -0.1836 -1.1140
    9MOL   H216 2312   3.034   1.407   4.811  0.1239  1.7402 -4.6874
    9MOL   H217 2313   2.935   1.425   5.038 -0.5970 -0.1693 -1.1280
    9MOL   H218 2314   2.827   1.515   5.213  1.0814  0.1540 -0.7289
    9MOL   H219 2315   2.664   1.562   5.166 -0.6618  0.7141  0.5835
    9MOL   H220 2316   2.783   1.687   5.175 -0.4155 -1.0194  0.6122
    9MOL   H221 2317   2.718   1.630   4.803 -0.0832 -0.2441 -1.0186
    9MOL   H222 2318   2.730   1.744   4.932  0.0701 -0.1156 -0.4089
    9MOL   C223 2319   2.544   1.614   4.930 -0.1869 -0.3183  0.3268
    9MOL   C224 2320   2.445   1.643   4.811  0.4339  0.2869 -0.4223
    9MOL   C225 2321   2.349   1.739   4.797  0.3450 -0.0968 -0.9522
    9MOL   C226 2322   2.263   1.763   4.674  0.3164 -0.6126  0.2983
    9MOL   C227 2323   2.327   1.844   4.903 -1.2686 -0.9493  1.1870
    9MOL   H228 2324   2.508   1.649   5.027 -1.8164  2.0852 -1.0720
    9MOL   H229 2325   2.535   1.506   4.940  0.6681 -0.3884  0.3670
    9MOL   H230 2326   2.466   1.582   4.725  2.1797  1.1165 -0.6176
    9MOL   H231 2327   2.239   1.870   4.668 -1.6460 -1.0221  0.4483
    9MOL   H232 2328   2.163   1.721   4.686 -0.0776 -0.2644 -1.6999
    9MOL   H233 2329   2.315   1.718   4.590 -0.3625 -2.6235  0.9287
    9MOL   H234 2330   2.373   1.819   4.999 -2.0550 -0.7024  1.6389
    9MOL   H235 2331   2.219   1.844   4.920 -1.6987  0.0233 -1.2980
    9MOL   C236 2332   2.384   1.985   4.860 -0.0406 -0.3804  0.5281
    9MOL   C237 2333   2.374   2.094   4.970  0.4457 -0.4328  0.1140
    9MOL   C238 2334   2.462   2.117   5.072  0.7097 -0.1419 -0.8252
    9MOL   C239 2335   2.443   2.216   5.181 -0.1059  0.3191 -0.1777
    9MOL   C240 2336   2.584   2.033   5.093 -0.4572  0.2566 -0.3428
    9MOL   H241 2337   2.333   2.032   4.777 -1.5332  2.6823  3.0880
    9MOL   H242 2338   2.489   1.975   4.830  0.5631  2.5857  1.5153
    9MOL   H243 2339   2.290   2.161   4.965  2.4050  2.0851 -0.6343
    9MOL   H244 2340   2.355   2.277   5.161 -0.8611 -0.4822  0.5907
    9MOL   H245 2341   2.520   2.291   5.197  0.1026  0.0691  0.0135
    9MOL   H246 2342   2.447   2.166   5.278  1.9488  0.0846 -0.3712
    9MOL   H247 2343   2.566   1.936   5.045  1.8038  0.2369 -1.1929
    9MOL   H248 2344   2.591   2.005   5.199 -2.8495  3.7099  0.8264
    9MOL   C249 2345   2.719   2.096   5.057  1.0292 -0.7436  0.8642
    9MOL   C250 2346   2.836   2.007   5.047 -0.2975  0.2096 -0.2361
    9MOL   C251 2347   2.929   1.979   5.140  0.7197  0.3855 -0.1310
    9MOL   C252 2348   3.045   1.886   5.117 -0.6169 -0.2579 -0.0525
    9MOL   C253 2349   2.935   2.038   5.278 -0.0156 -0.2074 -0.4405
    9MOL   H254 2350   2.736   2.167   5.138  1.1643 -0.7778  0.8662
    9MOL   H255 2351   2.708   2.164   4.972 -1.7523 -2.1721  0.0288
    9MOL   H256 2352   2.850   1.951   4.955  0.8148 -0.2903  0.2300
    9MOL   H257 2353   3.045   1.800   5.184 -0.3358  0.2054  0.5489
    9MOL   H258 2354   3.138   1.940   5.139 -0.9669 -0.3314  1.7084
    9MOL   H259 2355   3.054   1.860   5.012  1.2973  0.5679 -0.1196
    9MOL   H260 2356   2.861   2.113   5.305  0.4808 -0.6111  2.2326
    9MOL   H261 2357   3.026   2.082   5.319  1.2650 -0.3514 -3.0135
    9MOL   H262 2358   2.931   1.957   5.351 -0.5052  0.3774  0.1928
   10MOL     C1 2359   0.538   5.097   2.043  1.2762 -0.6737 -0.3147
   10MOL     C2 2360   0.667   5.163   2.020  0.6996 -0.6799 -0.6074
   10MOL     C3 2361   0.780   5.118   2.068 -0.4751  0.3336 -0.5488
   10MOL     C4 2362   0.908   5.187   2.033 -0.1602 -0.2365 -0.1876
   10MOL     C5 2363   0.797   4.994   2.160  0.3204  0.2702  0.4082
   10MOL     H6 2364   0.468   5.102   1.960  0.6839  1.9890  0.2908
   10MOL     H7 2365   0.560   4.995   2.075  1.3964 -0.5118  0.1142
   10MOL     H8 2366   0.665   5.253   1.960 -1.3085 -0.1971  0.1629
   10MOL     H9 2367   0.979   5.173   2.114 -0.3269  1.5560  0.3028
   10MOL    H10 2368   0.886   5.291   2.006  0.9801  0.3748  1.1867
   10MOL    H11 2369   0.962   5.141   1.951 -0.9796 -0.4586 -0.6121
   10MOL    H12 2370   0.702   4.973   2.210  1.5218 -1.3223  2.0685
   10MOL    H13 2371   0.865   5.027   2.238  0.3002  1.9056 -0.2472
   10MOL    H14 2372   0.485   5.149   2.122  1.5131  0.0173 -0.6013
   10MOL    C15 2373   0.855   4.874   2.081 -0.3479  0.0042  0.9544
   10MOL    C16 2374   0.886   4.758   2.169 -0.4114  0.1395  0.0195
   10MOL    C17 2375   0.813   4.648   2.190 -0.1021  0.9128 -0.4313
   10MOL    C18 2376   0.866   4.540   2.281 -0.4316 -0.7804 -0.3353
   10MOL    C19 2377   0.676   4.632   2.128  0.0525  0.4540  0.3814
   10MOL    H20 2378   0.957   4.903   2.055 -0.7499  1.7868  1.2921
   10MOL    H21 2379   0.808   4.838   1.990 -3.0293  4.7905  0.3008
   10MOL    H22 2380   0.979   4.776   2.221 -0.6723  1.8849 -0.1009
   10MOL    H23 2381   0.974   4.539   2.266 -0.7953  3.5933 -4.1949
   10MOL    H24 2382   0.820   4.445   2.255 -0.6542 -0.9792  0.7744
   10MOL    H25 2383   0.855   4.564   2.387 -0.3410  0.3324 -0.5666
   10MOL    H26 2384   0.696   4.552   2.056 -0.5622  0.1028  0.5951
   10MOL    H27 2385   0.648   4.723   2.074  2.1408  0.0833 -1.4143
   10MOL    C28 2386   0.563   4.593   2.219  0.1266 -0.0627 -0.1852
   10MOL    C29 2387   0.545   4.683   2.347  0.0149 -0.3691 -0.5539
   10MOL    C30 2388   0.452   4.782   2.363 -0.8698  0.1801  0.2205
   10MOL    C31 2389   0.433   4.854   2.499 -0.1021  0.2372  0.1466
   10MOL    C32 2390   0.352   4.825   2.257 -0.0051  1.2687  0.1376
   10MOL    H33 2391   0.561   4.490   2.256  1.5290 -1.0587 -2.7520
   10MOL    H34 2392   0.471   4.599   2.161  0.5801 -1.3564 -1.0705
   10MOL    H35 2393   0.619   4.669   2.425  0.0811 -0.6353 -0.6657
   10MOL    H36 2394   0.334   4.830   2.536 -0.1977 -2.7291 -1.8535
   10MOL    H37 2395   0.431   4.961   2.479  3.5137  0.1375 -1.0996
   10MOL    H38 2396   0.512   4.833   2.571  0.3899  3.4448  0.6016
   10MOL    H39 2397   0.392   4.801   2.159  0.6297 -0.8579  0.8970
   10MOL    H40 2398   0.339   4.934   2.260 -0.8411  1.1427  1.6134
   10MOL    C41 2399   0.223   4.755   2.292 -0.5309 -0.3280 -0.2494
   10MOL    C42 2400   0.130   4.760   2.172 -0.3895  0.3423  0.5726
   10MOL    C43 2401   0.112   4.663   2.085  0.2062  0.0895  0.6092
   10MOL    C44 2402   0.003   4.675   1.983 -0.2896 -0.2591  0.6828
   10MOL    C45 2403   0.195   4.533   2.077  0.2069  0.4891  0.1880
   10MOL    H46 2404   0.189   4.807   2.382 -1.5143 -0.1389 -0.7194
   10MOL    H47 2405   0.235   4.651   2.320 -0.9207 -0.3466 -0.1554
   10MOL    H48 2406   0.076   4.853   2.160  0.3356  0.5888 -0.7819
   10MOL    H49 2407   0.013   4.608   1.897 -0.2163 -1.2372  1.4409
   10MOL    H50 2408   7.857   4.772   1.939 -2.6506 -0.9726  0.3477
   10MOL    H51 2409   7.785   4.661   2.032  0.7770  4.0995  4.3125
   10MOL    H52 2410   0.271   4.524   2.155 -2.0996 -1.5749  2.2808
   10MOL    H53 2411   0.251   4.533   1.983  0.1255  0.1245  0.1417
   10MOL    C54 2412   0.100   4.411   2.085 -0.0450 -0.4086  0.1701
   10MOL    C55 2413   0.186   4.289   2.108  0.6773  0.0427 -0.8566
   10MOL    C56 2414   0.152   4.198   2.203 -0.5257 -0.2603 -0.1724
   10MOL    C57 2415   0.231   4.071   2.220 -0.2256 -0.3590 -0.1881
   10MOL    C58 2416   0.036   4.215   2.301 -0.7341  0.4157  0.0823
   10MOL    H59 2417   0.042   4.411   1.993 -1.5923  0.0816  1.1301
   10MOL    H60 2418   0.030   4.435   2.165  0.5230 -0.4892  0.6898
   10MOL    H61 2419   0.261   4.261   2.035 -0.0846  0.8602 -1.9735
   10MOL    H62 2420   0.282   4.038   2.129 -0.0030 -1.3721  0.3005
   10MOL    H63 2421   0.161   3.991   2.245 -1.3412  0.4390 -0.7288
   10MOL    H64 2422   0.304   4.081   2.300  0.2804 -1.7225 -0.4751
   10MOL    H65 2423   0.037   4.309   2.356  1.7620 -0.6579  1.9674
   10MOL    H66 2424   0.051   4.141   2.379 -0.2703  0.5636  0.1402
   10MOL    C67 2425   7.778   4.191   2.229  0.0343 -0.2820  0.2603
   10MOL    C68 2426   7.664   4.192   2.322  0.6232 -0.3080 -0.2194
   10MOL    C69 2427   7.574   4.094   2.340 -0.0513 -0.3811 -0.5105
   10MOL    C70 2428   7.461   4.119   2.440  0.2022  0.4202 -0.2711
   10MOL    C71 2429   7.561   3.957   2.284 -0.0955  0.0318  0.7307
   10MOL    H72 2430   7.788   4.093   2.182  1.2043 -1.8324  3.5595
   10MOL    H73 2431   7.758   4.243   2.135  1.4043 -1.8403 -0.9351
   10MOL    H74 2432   7.637   4.284   2.372 -0.7331 -1.2192  0.7776
   10MOL    H75 2433   7.475   4.201   2.510  0.3123 -1.8231  2.4132
   10MOL    H76 2434   7.456   4.028   2.500  0.7209  0.1992 -0.5585
   10MOL    H77 2435   7.369   4.133   2.383 -0.2176 -0.6999  0.1194
   10MOL    H78 2436   7.548   3.890   2.369 -0.6677 -0.6802  0.0931
   10MOL    H79 2437   7.649   3.929   2.226  0.0966 -0.0959  1.0888
   10MOL    C80 2438   7.438   3.939   2.187  0.6875 -0.6497 -0.1402
   10MOL    C81 2439   7.452   3.805   2.109 -0.4356 -0.1433  0.0298
   10MOL    C82 2440   7.468   3.804   1.972 -0.1572  0.1152 -0.3455
   10MOL    C83 2441   7.458   3.929   1.883 -0.3656  0.2237 -0.4845
   10MOL    C84 2442   7.483   3.669   1.900  0.2249  0.3305 -0.0524
   10MOL    H85 2443   7.429   4.026   2.123 -1.2550 -1.0568 -0.4434
   10MOL    H86 2444   7.344   3.929   2.242  0.5187  1.4770  0.0024
   10MOL    H87 2445   7.443   3.713   2.164 -1.4898  0.0835  0.2387
   10MOL    H88 2446   7.356   3.966   1.881 -0.1809  0.9676  1.9723
   10MOL    H89 2447   7.497   3.906   1.784 -2.7452  1.3796 -1.6960
   10MOL    H90 2448   7.513   4.011   1.929  0.1690 -0.7370  0.6185
   10MOL    H91 2449   7.506   3.584   1.964  0.0258  2.1617  2.5325
   10MOL    H92 2450   7.573   3.676   1.840  1.4520 -0.9371  1.6029
   10MOL    C93 2451   7.351   3.627   1.833 -0.1434 -0.5976 -0.2596
   10MOL    C94 2452   7.385   3.511   1.739  0.2507  0.4197 -0.5731
   10MOL    C95 2453   7.341   3.478   1.617  1.2081  0.3258  0.4563
   10MOL    C96 2454   7.393   3.361   1.531  0.1641  0.8363 -0.1753
   10MOL    C97 2455   7.241   3.565   1.538 -0.3486  0.8044  0.3450
   10MOL    H98 2456   7.307   3.709   1.777 -1.1256 -0.1013  1.1990
   10MOL    H99 2457   7.280   3.600   1.912  1.6264  1.6159  2.2087
   10MOL   H100 2458   7.459   3.443   1.778 -1.5781 -1.3133 -0.0262
   10MOL   H101 2459   7.430   3.275   1.588 -3.5430 -0.1413  0.9476
   10MOL   H102 2460   7.308   3.325   1.473  0.4102 -0.2246  0.1152
   10MOL   H103 2461   7.472   3.392   1.463  1.1559  1.3448  1.1916
   10MOL   H104 2462   7.298   3.610   1.457  1.0904 -1.8721 -0.1756
   10MOL   H105 2463   7.213   3.650   1.600 -0.7946  0.6728  0.3283
   10MOL   C106 2464   7.105   3.499   1.497 -0.2308  0.4986 -0.3696
   10MOL   C107 2465   7.012   3.602   1.430 -0.4904  0.1250 -0.5907
   10MOL   C108 2466   6.907   3.574   1.349  1.2970  0.2941 -0.6908
   10MOL   C109 2467   6.872   3.434   1.307 -0.2779 -0.7658 -0.2611
   10MOL   C110 2468   6.827   3.688   1.280 -0.0568  0.4009 -0.7245
   10MOL   H111 2469   7.052   3.443   1.575 -0.2595 -0.4511 -1.0605
   10MOL   H112 2470   7.135   3.429   1.419  1.9304  3.0713 -1.9077
   10MOL   H113 2471   7.034   3.702   1.465  0.3800  0.2567 -1.4600
   10MOL   H114 2472   6.764   3.423   1.301 -0.1368 -2.4484  0.0001
   10MOL   H115 2473   6.900   3.412   1.205 -4.1102 -0.7283 -1.4077
   10MOL   H116 2474   6.910   3.357   1.374  1.4030 -1.0254 -1.4881
   10MOL   H117 2475   6.827   3.654   1.177 -0.9218  1.2741 -1.0113
   10MOL   H118 2476   6.878   3.784   1.291  2.2898 -0.9894  1.2090
   10MOL   C119 2477   6.687   3.715   1.331  0.7835  0.1582  0.3226
   10MOL   C120 2478   6.610   3.819   1.257 -0.2690 -0.1774  0.1752
   10MOL   C121 2479   6.559   3.932   1.304 -1.0140 -0.3651  0.2701
   10MOL   C122 2480   6.488   4.031   1.215 -0.2463  0.6888 -0.0532
   10MOL   C123 2481   6.568   3.975   1.450  0.3064 -0.8601 -0.2042
   10MOL   H124 2482   6.700   3.744   1.435  4.3019 -0.8162  0.2044
   10MOL   H125 2483   6.627   3.624   1.341  1.2378 -0.2628 -0.7248
   10MOL   H126 2484   6.599   3.809   1.150  1.4510 -1.2316  0.0780
   10MOL   H127 2485   6.382   4.041   1.241  0.5247 -0.1753  3.6599
   10MOL   H128 2486   6.483   3.989   1.115  0.5770  0.7047 -0.1010
   10MOL   H129 2487   6.542   4.125   1.222 -1.2331  1.0526  4.1580
   10MOL   H130 2488   6.587   4.081   1.465 -1.9818 -0.3108 -0.9215
   10MOL   H131 2489   6.651   3.934   1.508 -0.0671 -1.4425 -0.0711
   10MOL   C132 2490   6.439   3.943   1.538 -0.7726 -0.6407 -0.0548
   10MOL   C133 2491   6.416   3.797   1.543  0.0059 -0.1587 -0.1693
   10MOL   C134 2492   6.332   3.725   1.467  0.1099  0.7421  0.2218
   10MOL   C135 2493   6.334   3.572   1.471  0.3617  0.4942  0.2582
   10MOL   C136 2494   6.232   3.779   1.365 -0.4299  0.1572 -0.1760
   10MOL   H137 2495   6.350   3.988   1.495 -1.2282 -0.0270  1.4916
   10MOL   H138 2496   6.444   3.969   1.644 -1.2222  0.1062 -0.2141
   10MOL   H139 2497   6.483   3.739   1.605 -0.3969 -1.3038 -0.7907
   10MOL   H140 2498   6.394   3.533   1.554 -0.4705  0.5369  0.8838
   10MOL   H141 2499   6.385   3.536   1.382 -2.7545 -2.3285 -0.4652
   10MOL   H142 2500   6.239   3.519   1.481  0.5644 -0.0264 -0.5591
   10MOL   H143 2501   6.247   3.728   1.271  0.1483  0.5441 -0.2978
   10MOL   H144 2502   6.241   3.887   1.351 -0.2267  0.1268 -0.2682
   10MOL   C145 2503   6.088   3.745   1.401 -0.0377  0.7174  0.9146
   10MOL   C146 2504   5.990   3.787   1.293 -0.2119  0.0736  0.3108
   10MOL   C147 2505   5.890   3.720   1.233 -0.3084  0.6427 -0.1956
   10MOL   C148 2506   5.803   3.791   1.130  0.0209 -0.4059  0.2140
   10MOL   C149 2507   5.854   3.571   1.266 -0.2929  0.5356 -0.1152
   10MOL   H150 2508   6.069   3.781   1.502 -1.2098 -0.9836  1.3171
   10MOL   H151 2509   6.083   3.637   1.414 -0.6770  0.8880  2.1492
   10MOL   H152 2510   6.007   3.887   1.256  1.3458 -0.1325  0.4460
   10MOL   H153 2511   5.836   3.894   1.127  2.0584 -0.9925  1.4478
   10MOL   H154 2512   5.695   3.789   1.149  0.0434 -1.2459  0.3095
   10MOL   H155 2513   5.823   3.756   1.029 -2.1090  1.3599 -0.8627
   10MOL   H156 2514   5.746   3.556   1.261  0.1723 -3.1924 -0.7982
   10MOL   H157 2515   5.888   3.532   1.363 -2.5508  0.8332  0.8203
   10MOL   C158 2516   5.903   3.480   1.153 -0.2238  0.4032 -0.1710
   10MOL   C159 2517   5.884   3.328   1.186 -0.5857 -0.1983  0.1395
   10MOL   C160 2518   5.985   3.237   1.174  0.8252  0.3141 -0.6541
   10MOL   C161 2519   6.125   3.276   1.139  0.0825  0.2093 -0.3930
   10MOL   C162 2520   5.973   3.089   1.196  0.7653  0.1482 -0.4361
   10MOL   H163 2521   6.007   3.512   1.142  0.2125 -0.9510  0.0096
   10MOL   H164 2522   5.859   3.503   1.056 -0.7277 -0.3123 -0.1105
   10MOL   H165 2523   5.781   3.300   1.203 -0.3602  0.3093  2.6368
   10MOL   H166 2524   6.129   3.363   1.073  2.8124  1.2317  1.0280
   10MOL   H167 2525   6.175   3.204   1.075  0.3044 -0.3262  0.3729
   10MOL   H168 2526   6.188   3.300   1.225  1.0642 -1.1573 -0.7171
   10MOL   H169 2527   5.893   3.068   1.267  0.6617 -2.2319 -1.2289
   10MOL   H170 2528   6.064   3.056   1.245  0.2249 -1.0152 -0.2215
   10MOL   C171 2529   5.941   3.013   1.073  0.2405 -0.0848 -0.4514
   10MOL   C172 2530   5.885   2.874   1.091 -0.0702 -0.4961  0.2639
   10MOL   C173 2531   5.931   2.758   1.039 -0.1012  0.1884 -0.0244
   10MOL   C174 2532   6.053   2.760   0.958  0.4822 -0.2483  0.0005
   10MOL   C175 2533   5.865   2.617   1.051 -0.3386  0.5317 -0.0017
   10MOL   H176 2534   6.020   3.026   0.998 -0.1547 -0.0269 -0.8591
   10MOL   H177 2535   5.847   3.049   1.032 -0.7348 -0.7109  1.2168
   10MOL   H178 2536   5.793   2.866   1.147  0.6963 -1.2912  1.4254
   10MOL   H179 2537   6.093   2.659   0.957  1.9257  0.3081  0.4764
   10MOL   H180 2538   6.131   2.830   0.989 -0.0394  0.8735 -1.1781
   10MOL   H181 2539   6.015   2.779   0.857 -0.3444 -1.9386 -0.0262
   10MOL   H182 2540   5.801   2.626   1.138  0.2813 -2.3130  0.8214
   10MOL   H183 2541   5.940   2.540   1.070  0.8733  1.5914 -0.3524
   10MOL   C184 2542   5.782   2.592   0.929  0.4560  0.3975 -0.0053
   10MOL   C185 2543   5.682   2.480   0.950  0.4202 -0.1996 -0.0625
   10MOL   C186 2544   5.556   2.489   0.991  0.5153 -0.3671 -0.4031
   10MOL   C187 2545   5.460   2.369   1.009 -0.7248  0.2892  0.3871
   10MOL   C188 2546   5.492   2.626   1.018  0.4209  0.1718  0.2777
   10MOL   H189 2547   5.845   2.560   0.846 -0.7291 -1.9936 -0.0287
   10MOL   H190 2548   5.739   2.685   0.891  0.0475  0.8521  1.5407
   10MOL   H191 2549   5.728   2.385   0.927 -1.7773 -1.2141 -0.4921
   10MOL   H192 2550   5.401   2.380   1.100 -0.2567  1.9651  0.5001
   10MOL   H193 2551   5.508   2.272   1.023 -0.3827  0.6108  1.4161
   10MOL   H194 2552   5.387   2.352   0.929  1.0629 -0.4001 -1.1435
   10MOL   H195 2553   5.408   2.637   0.948  1.4762 -0.3630 -1.1028
   10MOL   H196 2554   5.552   2.713   0.992  1.0684 -0.3500  0.0048
   10MOL   C197 2555   5.469   2.651   1.170  0.2599 -0.1070 -0.1218
   10MOL   C198 2556   5.468   2.791   1.224 -0.3609  0.1699 -0.3323
   10MOL   C199 2557   5.558   2.853   1.305  0.0983  0.0857 -0.4604
   10MOL   C200 2558   5.548   3.000   1.331 -0.6553  1.0465 -0.4334
   10MOL   C201 2559   5.672   2.784   1.369 -0.0077 -0.5555 -0.0171
   10MOL   H202 2560   5.545   2.595   1.226 -1.1365  0.2499  2.2045
   10MOL   H203 2561   5.374   2.613   1.208 -0.9129  1.9284 -0.9836
   10MOL   H204 2562   5.396   2.857   1.178 -1.2704  0.1361  1.0201
   10MOL   H205 2563   5.584   3.039   1.425 -0.5770 -1.7609  0.7512
   10MOL   H206 2564   5.440   3.016   1.318 -0.7915  0.1606 -0.4427
   10MOL   H207 2565   5.590   3.046   1.242 -1.5166 -0.4276 -1.6364
   10MOL   H208 2566   5.746   2.863   1.372 -0.0123 -0.5659  0.4077
   10MOL   H209 2567   5.710   2.701   1.309 -1.2895 -1.6306  0.6375
   10MOL   C210 2568   5.647   2.746   1.517  0.4867  0.3904  0.0143
   10MOL   C211 2569   5.772   2.679   1.569  0.4507  0.0743  0.3482
   10MOL   C212 2570   5.874   2.733   1.639 -0.0946  0.3943  0.2369
   10MOL   C213 2571   5.993   2.651   1.689  0.3161  0.2782  0.6276
   10MOL   C214 2572   5.873   2.877   1.684 -0.2483  0.8113 -0.4574
   10MOL   H215 2573   5.570   2.669   1.514  1.6304 -0.7345 -1.9070
   10MOL   H216 2574   5.615   2.833   1.574  0.6744 -0.5078  1.4949
   10MOL   H217 2575   5.781   2.573   1.549 -2.3088 -0.3850  1.1871
   10MOL   H218 2576   5.982   2.543   1.680  0.1434  0.1688  1.9725
   10MOL   H219 2577   6.015   2.664   1.795  2.3575  0.3775  0.2158
   10MOL   H220 2578   6.082   2.684   1.635 -0.1470 -0.6274 -0.7124
   10MOL   H221 2579   5.824   2.939   1.608  0.1290  0.4242 -1.0187
   10MOL   H222 2580   5.975   2.914   1.688  0.0329  0.0295 -0.4072
   10MOL   C223 2581   5.809   2.886   1.823 -0.6566  0.0279  0.1220
   10MOL   C224 2582   5.833   3.013   1.908 -0.2596 -0.4379 -0.1699
   10MOL   C225 2583   5.887   3.020   2.034 -0.1119 -0.8053  0.3563
   10MOL   C226 2584   5.913   3.161   2.088  0.1415  0.0982 -0.0302
   10MOL   C227 2585   5.915   2.904   2.125 -0.2858  0.1064  0.2613
   10MOL   H228 2586   5.849   2.800   1.877 -1.2191  0.5862  1.4452
   10MOL   H229 2587   5.703   2.864   1.812 -1.2418  2.2741  1.0497
   10MOL   H230 2588   5.804   3.102   1.853  1.0856  0.5149  0.6256
   10MOL   H231 2589   5.908   3.245   2.019 -3.0307  0.4212  0.5185
   10MOL   H232 2590   6.015   3.173   2.124  0.6139  1.1763 -1.6412
   10MOL   H233 2591   5.843   3.181   2.169 -0.5524  0.4256 -0.7042
   10MOL   H234 2592   5.819   2.853   2.135  0.3386 -0.9354  1.0738
   10MOL   H235 2593   5.929   2.943   2.225 -3.6192  0.0647  0.7789
   10MOL   C236 2594   6.031   2.810   2.080  0.1194  0.2647 -0.2607
   10MOL   C237 2595   6.084   2.732   2.203 -1.0668 -0.7488 -0.1359
   10MOL   C238 2596   6.111   2.601   2.208 -0.2076  0.0577  0.2206
   10MOL   C239 2597   6.180   2.542   2.325  0.1152 -0.0848  0.1594
   10MOL   C240 2598   6.060   2.504   2.101 -0.0131  0.2579 -0.2720
   10MOL   H241 2599   6.118   2.860   2.037 -0.6293  0.5377 -1.4664
   10MOL   H242 2600   6.001   2.740   2.003  2.7615  0.6514 -1.6817
   10MOL   H243 2601   6.109   2.803   2.280  1.3946  0.2395 -1.7741
   10MOL   H244 2602   6.103   2.501   2.390 -0.5830  0.1031 -0.5435
   10MOL   H245 2603   6.247   2.617   2.368  1.5482 -1.7939  0.9469
   10MOL   H246 2604   6.248   2.460   2.303  1.1956  0.7355  0.3912
   10MOL   H247 2605   6.136   2.426   2.098  1.7565  1.8412  2.1265
   10MOL   H248 2606   6.049   2.551   2.003  1.1779 -0.5391 -0.7978
   10MOL   C249 2607   5.924   2.440   2.140  0.1527 -0.4297  0.1927
   10MOL   C250 2608   5.817   2.546   2.149 -0.0398 -0.5346  0.2861
   10MOL   C251 2609   5.718   2.566   2.059  0.5918 -0.3383 -0.5131
   10MOL   C252 2610   5.603   2.662   2.088 -0.0112  0.6935 -0.0311
   10MOL   C253 2611   5.706   2.496   1.925 -0.6853 -0.5798  0.6116
   10MOL   H254 2612   5.941   2.395   2.238  0.4577 -1.1213 -0.1764
   10MOL   H255 2613   5.904   2.353   2.077 -1.3744  0.6662 -0.8547
   10MOL   H256 2614   5.815   2.598   2.244  1.2069 -1.0570  0.6107
   10MOL   H257 2615   5.628   2.716   2.179  1.7044  0.6653 -0.4587
   10MOL   H258 2616   5.504   2.622   2.107 -0.2824 -0.0086 -2.6798
   10MOL   H259 2617   5.588   2.732   2.006 -1.7293  0.5795  0.1824
   10MOL   H260 2618   5.667   2.564   1.849 -0.6891 -0.8497  0.3718
   10MOL   H261 2619   5.639   2.411   1.936 -1.0898 -0.0402  2.3989
   10MOL   H262 2620   5.809   2.480   1.893 -0.1712  2.1353  0.7641
   11MOL     C1 2621   0.504   2.891   4.473 -0.3288  0.1795  0.9496
   11MOL     C2 2622   0.637   2.956   4.481 -0.6513  0.5380  0.4652
   11MOL     C3 2623   0.676   3.070   4.424 -0.2398  0.3900  0.4391
   11MOL     C4 2624   0.816   3.134   4.444  0.2222 -0.7703 -0.5555
   11MOL     C5 2625   0.585   3.147   4.322 -0.3886  0.2871 -0.3191
   11MOL     H6 2626   0.416   2.954   4.457 -0.4827 -0.0240  0.9883
   11MOL     H7 2627   0.508   2.801   4.411  2.4596  0.3100  0.8805
   11MOL     H8 2628   0.711   2.902   4.538  0.6213  1.0972 -0.6394
   11MOL     H9 2629   0.870   3.129   4.349 -1.1074  0.0048 -1.3732
   11MOL    H10 2630   0.876   3.064   4.502  1.0739 -0.1274 -0.6427
   11MOL    H11 2631   0.812   3.232   4.491  1.0592 -2.1562  2.5054
   11MOL    H12 2632   0.517   3.067   4.292 -0.4144  0.1414  0.1355
   11MOL    H13 2633   0.643   3.186   4.238  0.2596  0.9600  0.4347
   11MOL    H14 2634   0.473   2.848   4.568  1.8809 -1.0890  1.1238
   11MOL    C15 2635   0.520   3.274   4.377 -0.4351  0.0843 -0.1742
   11MOL    C16 2636   0.397   3.320   4.297  0.6778  0.3621 -0.1591
   11MOL    C17 2637   0.283   3.369   4.354 -0.4081  0.2590  0.4472
   11MOL    C18 2638   0.165   3.420   4.260  0.3222 -0.2768  0.0193
   11MOL    C19 2639   0.254   3.362   4.504 -1.0684  0.7688 -0.0085
   11MOL    H20 2640   0.595   3.354   4.378 -0.4637  0.1020  0.8115
   11MOL    H21 2641   0.479   3.248   4.474 -0.7647  3.7084  0.7417
   11MOL    H22 2642   0.400   3.320   4.189 -0.2360 -0.1774 -0.1806
   11MOL    H23 2643   0.149   3.526   4.278 -0.9701 -0.5298  0.4302
   11MOL    H24 2644   0.074   3.361   4.276  1.2862 -1.4123  1.4578
   11MOL    H25 2645   0.201   3.412   4.158  0.2027 -0.4105 -0.0138
   11MOL    H26 2646   0.168   3.426   4.522 -2.4425 -0.6859 -1.3817
   11MOL    H27 2647   0.332   3.422   4.552 -0.1550 -0.1444 -0.3461
   11MOL    C28 2648   0.225   3.226   4.564 -0.1124  0.7875  0.2894
   11MOL    C29 2649   0.175   3.244   4.706 -0.0202  0.0211  0.3409
   11MOL    C30 2650   0.238   3.192   4.816 -1.0244  0.3650  0.8315
   11MOL    C31 2651   0.172   3.201   4.948  0.3918  1.0308  0.4115
   11MOL    C32 2652   0.357   3.099   4.809  0.3338  0.3025  0.1290
   11MOL    H33 2653   0.310   3.159   4.550  0.3598  1.3267  0.5286
   11MOL    H34 2654   0.136   3.180   4.521  1.0519 -0.7736 -0.5035
   11MOL    H35 2655   0.087   3.305   4.718  0.5948  1.2621 -1.1536
   11MOL    H36 2656   0.245   3.238   5.020  2.3030 -1.9465  0.1233
   11MOL    H37 2657   0.156   3.098   4.978  0.5673  1.3476  1.5911
   11MOL    H38 2658   0.077   3.253   4.943 -0.4036 -0.3233  1.4324
   11MOL    H39 2659   0.351   3.043   4.716  0.7427  0.2500  0.1330
   11MOL    H40 2660   0.361   3.022   4.886  2.6105  0.1583 -0.1013
   11MOL    C41 2661   0.501   3.160   4.819 -0.5836 -0.6532  0.0393
   11MOL    C42 2662   0.526   3.251   4.935 -0.0685 -0.1635  0.2225
   11MOL    C43 2663   0.592   3.369   4.935 -0.2946  0.7541  1.1579
   11MOL    C44 2664   0.624   3.438   5.067 -0.6285  0.1355  0.0363
   11MOL    C45 2665   0.651   3.441   4.811  0.5388 -0.2896  0.0218
   11MOL    H46 2666   0.503   3.222   4.729 -0.9360 -1.4199 -0.4989
   11MOL    H47 2667   0.574   3.080   4.810  2.6206  2.1914 -0.2444
   11MOL    H48 2668   0.493   3.210   5.029  0.8113 -2.5640 -0.4671
   11MOL    H49 2669   0.550   3.512   5.098  1.3345  1.4028  1.8160
   11MOL    H50 2670   0.720   3.488   5.060 -0.0799 -1.1316 -1.8210
   11MOL    H51 2671   0.632   3.373   5.154 -0.0708  1.1498  0.7473
   11MOL    H52 2672   0.671   3.370   4.731 -1.8064  0.3934 -1.2064
   11MOL    H53 2673   0.749   3.484   4.832 -0.7737  2.2772  1.2180
   11MOL    C54 2674   0.545   3.542   4.749 -0.2400  0.6060 -0.2106
   11MOL    C55 2675   0.606   3.571   4.613  0.3274 -0.4074 -0.1377
   11MOL    C56 2676   0.648   3.691   4.573 -0.1084 -0.6061 -0.0423
   11MOL    C57 2677   0.691   3.723   4.430 -0.1181 -0.7932  0.1435
   11MOL    C58 2678   0.642   3.816   4.662  0.5814 -0.1644  0.2560
   11MOL    H59 2679   0.517   3.625   4.813 -0.6424 -0.9880  1.7221
   11MOL    H60 2680   0.456   3.479   4.741  0.8778 -1.0098 -0.3350
   11MOL    H61 2681   0.614   3.490   4.542  0.1593 -2.2288  1.8678
   11MOL    H62 2682   0.636   3.803   4.381  0.9766 -0.0902  0.0290
   11MOL    H63 2683   0.695   3.637   4.364 -2.1595  0.6679 -1.9316
   11MOL    H64 2684   0.795   3.758   4.429 -0.6932  0.9656  0.4751
   11MOL    H65 2685   0.544   3.815   4.710  0.1793 -0.8788 -0.5532
   11MOL    H66 2686   0.633   3.899   4.593  3.6577  0.2671  0.3005
   11MOL    C67 2687   0.761   3.839   4.751  0.3797  0.1426  0.3715
   11MOL    C68 2688   0.727   3.952   4.843 -0.4669  0.5506  0.0733
   11MOL    C69 2689   0.722   3.954   4.978 -0.2945 -0.7590  0.6249
   11MOL    C70 2690   0.659   4.069   5.049 -1.0185  0.3423 -0.5129
   11MOL    C71 2691   0.748   3.842   5.070  0.0594 -0.3796  0.4199
   11MOL    H72 2692   0.848   3.869   4.693  1.8390 -2.7054  0.9985
   11MOL    H73 2693   0.791   3.752   4.810 -2.5236 -1.1042  0.1077
   11MOL    H74 2694   0.694   4.038   4.786  0.1490  1.3557  0.9199
   11MOL    H75 2695   0.564   4.036   5.093 -1.4087  0.2372 -1.4185
   11MOL    H76 2696   0.636   4.149   4.980 -0.6556  2.4425  1.7335
   11MOL    H77 2697   0.715   4.109   5.134  0.9626  0.4590 -1.8496
   11MOL    H78 2698   0.744   3.747   5.016  0.1517 -0.3118  0.2921
   11MOL    H79 2699   0.669   3.826   5.144 -0.9012  1.7916 -0.1029
   11MOL    C80 2700   0.883   3.855   5.147  0.0640  0.7569 -0.8611
   11MOL    C81 2701   0.902   3.747   5.257  0.0713  0.1394 -0.6448
   11MOL    C82 2702   0.966   3.625   5.248  0.8345  0.1098 -0.4886
   11MOL    C83 2703   1.032   3.577   5.120 -0.3235 -0.0213  0.7359
   11MOL    C84 2704   0.974   3.543   5.374  0.2856 -0.2011 -0.1660
   11MOL    H85 2705   0.875   3.950   5.199 -1.7940 -0.5216  1.2935
   11MOL    H86 2706   0.967   3.859   5.078 -1.1164 -0.7214 -2.4553
   11MOL    H87 2707   0.855   3.772   5.352 -0.5694 -0.9232 -0.6629
   11MOL    H88 2708   0.970   3.568   5.031  0.4317  0.6232  0.1382
   11MOL    H89 2709   1.049   3.471   5.138  0.2959  0.2231  1.6130
   11MOL    H90 2710   1.124   3.633   5.103 -0.9922  0.8302 -0.0898
   11MOL    H91 2711   0.914   3.452   5.369 -0.6719  0.2762  1.9858
   11MOL    H92 2712   0.948   3.612   5.455  1.2781  0.6790 -0.5807
   11MOL    C93 2713   1.117   3.499   5.405  0.0114 -0.0999 -0.1108
   11MOL    C94 2714   1.135   3.442   5.543  0.0003 -0.8731  0.1684
   11MOL    C95 2715   1.217   3.492   5.641  0.0754  0.6372 -0.3492
   11MOL    C96 2716   1.215   3.432   5.779 -0.7579  0.3865 -0.2312
   11MOL    C97 2717   1.287   3.627   5.639 -0.1900  0.6198  0.3491
   11MOL    H98 2718   1.197   3.569   5.378  1.2148 -1.1001  0.7978
   11MOL    H99 2719   1.144   3.421   5.335 -1.1133 -0.3194 -0.3010
   11MOL   H100 2720   1.074   3.354   5.554 -0.9159 -0.3856 -0.9295
   11MOL   H101 2721   1.312   3.454   5.825 -2.2310  5.0821  0.7963
   11MOL   H102 2722   1.136   3.475   5.840  1.4093  0.0174  3.0121
   11MOL   H103 2723   1.208   3.323   5.781  1.5764  0.1931 -0.1452
   11MOL   H104 2724   1.281   3.673   5.737 -0.8082  1.2065  0.0321
   11MOL   H105 2725   1.222   3.688   5.577  0.4554  0.2802 -0.6788
   11MOL   C106 2726   1.427   3.622   5.580  0.1091  0.0183  0.2254
   11MOL   C107 2727   1.489   3.758   5.574  0.8005  0.3574 -0.4410
   11MOL   C108 2728   1.598   3.798   5.631  0.1140 -0.3468  1.4223
   11MOL   C109 2729   1.695   3.712   5.712 -0.4540  0.1559 -0.5303
   11MOL   C110 2730   1.649   3.943   5.608  0.2005  0.1985 -0.3483
   11MOL   H111 2731   1.411   3.583   5.479 -2.3175 -1.3994  1.1070
   11MOL   H112 2732   1.484   3.545   5.632 -0.3307 -0.3970  0.1065
   11MOL   H113 2733   1.433   3.826   5.512 -0.1698  1.5459  1.7087
   11MOL   H114 2734   1.696   3.605   5.693 -0.0595  0.1052 -0.2217
   11MOL   H115 2735   1.797   3.751   5.708 -0.6053  0.6818  0.7318
   11MOL   H116 2736   1.677   3.729   5.818  0.2045 -1.0178 -0.2174
   11MOL   H117 2737   1.627   3.971   5.505 -0.4217 -0.9216 -0.5253
   11MOL   H118 2738   1.757   3.938   5.622  0.0936  2.5714  1.6065
   11MOL   C119 2739   1.594   4.046   5.704  0.3303  0.1441 -0.1523
   11MOL   C120 2740   1.599   4.191   5.665 -0.2436 -0.2803 -0.1281
   11MOL   C121 2741   1.502   4.279   5.644 -0.4468 -0.2352 -0.7441
   11MOL   C122 2742   1.531   4.427   5.597  0.0909  0.0156 -0.4290
   11MOL   C123 2743   1.365   4.244   5.693 -0.0992 -0.9576  0.1067
   11MOL   H124 2744   1.650   4.040   5.797  2.3736  0.6377 -1.3269
   11MOL   H125 2745   1.491   4.017   5.727  0.6146 -2.3723 -1.7574
   11MOL   H126 2746   1.698   4.227   5.643 -0.2806 -1.1075 -1.7007
   11MOL   H127 2747   1.479   4.447   5.503  3.7555 -1.7251 -2.9872
   11MOL   H128 2748   1.635   4.452   5.575 -0.1837  1.7881  0.2495
   11MOL   H129 2749   1.478   4.496   5.663 -0.6631  0.0378 -1.0490
   11MOL   H130 2750   1.361   4.308   5.782  1.6737 -0.7790  0.0742
   11MOL   H131 2751   1.340   4.142   5.722  1.1827 -1.5775 -0.9091
   11MOL   C132 2752   1.256   4.281   5.601  0.1624 -0.5036 -0.4584
   11MOL   C133 2753   1.261   4.202   5.470 -0.2374 -0.1812  0.2827
   11MOL   C134 2754   1.165   4.126   5.420  0.0697  0.3575 -0.0788
   11MOL   C135 2755   1.191   4.036   5.298 -0.2992 -0.0454 -0.1635
   11MOL   C136 2756   1.030   4.107   5.488 -0.0295  1.1227  0.4588
   11MOL   H137 2757   1.274   4.387   5.585  1.0119 -0.4472  0.8739
   11MOL   H138 2758   1.153   4.290   5.636 -0.2117 -0.7210 -1.4596
   11MOL   H139 2759   1.360   4.200   5.427 -1.0718 -0.9032 -1.6305
   11MOL   H140 2760   1.179   3.929   5.318 -1.1389 -0.2001 -1.4443
   11MOL   H141 2761   1.288   4.064   5.258 -1.6447  0.3018 -3.2895
   11MOL   H142 2762   1.122   4.055   5.216  1.4401 -0.4632 -1.7387
   11MOL   H143 2763   1.036   4.146   5.589 -0.2312 -0.0626  0.9286
   11MOL   H144 2764   1.006   4.001   5.495  0.8013  0.6725 -2.4952
   11MOL   C145 2765   0.913   4.183   5.410 -0.0526 -0.3513  0.1167
   11MOL   C146 2766   0.777   4.141   5.468 -0.0638 -0.1231 -0.0885
   11MOL   C147 2767   0.669   4.220   5.480 -0.1246  0.2470 -0.7081
   11MOL   C148 2768   0.531   4.168   5.536  0.8554  0.3154 -0.3527
   11MOL   C149 2769   0.655   4.364   5.430  0.0561 -0.4125 -0.6016
   11MOL   H150 2770   0.899   4.165   5.304  0.7259  0.8584 -0.1952
   11MOL   H151 2771   0.941   4.288   5.412 -1.9717  0.1682  2.7752
   11MOL   H152 2772   0.763   4.035   5.484 -1.6618  0.3159  1.4899
   11MOL   H153 2773   0.506   4.187   5.640 -1.3499 -0.7890 -0.6463
   11MOL   H154 2774   0.531   4.059   5.542  2.7450  0.4045  1.9091
   11MOL   H155 2775   0.448   4.203   5.476 -1.4202 -0.9576  1.9188
   11MOL   H156 2776   0.753   4.411   5.427  0.5131 -1.3511 -0.5409
   11MOL   H157 2777   0.581   4.422   5.486  3.3125  2.1305  1.2588
   11MOL   C158 2778   0.610   4.368   5.284 -0.7885  0.8232  0.1335
   11MOL   C159 2779   0.567   4.497   5.227  0.3432 -0.0020 -0.5364
   11MOL   C160 2780   0.445   4.542   5.222 -0.4877  0.9731 -0.5768
   11MOL   C161 2781   0.325   4.455   5.277 -0.2305  0.3444 -0.1420
   11MOL   C162 2782   0.416   4.682   5.177 -0.2233 -0.0292  0.5014
   11MOL   H163 2783   0.538   4.290   5.260  1.8753 -1.1853 -1.7446
   11MOL   H164 2784   0.701   4.340   5.231  0.0120 -2.4564  3.0854
   11MOL   H165 2785   0.644   4.565   5.196 -0.7323  0.3025 -2.6631
   11MOL   H166 2786   0.242   4.436   5.209 -0.7488  1.4619  0.1601
   11MOL   H167 2787   0.297   4.518   5.362  1.9128 -0.7080  1.3923
   11MOL   H168 2788   0.362   4.361   5.317  0.2496  0.4180 -0.4076
   11MOL   H169 2789   0.507   4.738   5.155  0.0515 -0.6026  0.1781
   11MOL   H170 2790   0.357   4.727   5.257 -2.3749  0.6776 -1.4102
   11MOL   C171 2791   0.338   4.689   5.046 -0.6385  1.0082  0.2540
   11MOL   C172 2792   0.297   4.838   5.011  0.2574 -0.2603  0.0999
   11MOL   C173 2793   0.169   4.878   4.970 -0.4905  0.6629  0.6373
   11MOL   C174 2794   0.055   4.784   4.978 -0.2384 -0.1955 -0.1742
   11MOL   C175 2795   0.145   5.025   4.941 -0.7436 -0.2838  0.1027
   11MOL   H176 2796   0.258   4.615   5.032 -1.5109  1.5143  2.3760
   11MOL   H177 2797   0.408   4.664   4.967 -0.6760  0.0709  0.5115
   11MOL   H178 2798   0.373   4.915   5.007 -0.7895  0.7759  0.2200
   11MOL   H179 2799   0.077   4.685   5.018  1.3304 -0.1778 -0.9555
   11MOL   H180 2800   0.012   4.767   4.880  1.3183 -0.1148 -0.8818
   11MOL   H181 2801   7.856   4.831   5.039 -1.4426 -1.0857 -0.9937
   11MOL   H182 2802   0.196   5.091   5.010  2.8723 -1.0967 -1.6796
   11MOL   H183 2803   0.042   5.056   4.956 -0.8737 -1.6113  2.1520
   11MOL   C184 2804   0.191   5.059   4.798  0.6475 -0.5033 -0.4621
   11MOL   C185 2805   0.149   5.203   4.765 -0.0709 -0.1801 -0.7643
   11MOL   C186 2806   0.222   5.316   4.778  0.3323 -0.3092  0.2021
   11MOL   C187 2807   0.173   5.447   4.715  0.0251 -0.3192 -0.4037
   11MOL   C188 2808   0.365   5.315   4.847  0.1989 -0.2742 -0.3501
   11MOL   H189 2809   0.176   4.979   4.725  0.1241 -1.3867  0.6034
   11MOL   H190 2810   0.300   5.055   4.792  0.6775 -2.0061  0.7884
   11MOL   H191 2811   0.058   5.209   4.708 -1.3283 -0.1442  1.2204
   11MOL   H192 2812   0.109   5.422   4.629  0.8859 -2.6044 -0.4137
   11MOL   H193 2813   0.250   5.509   4.671 -0.1538  0.2379  0.0639
   11MOL   H194 2814   0.123   5.513   4.786 -2.0511 -0.8087 -1.3690
   11MOL   H195 2815   0.374   5.232   4.917 -0.1854  0.6451  0.8043
   11MOL   H196 2816   0.367   5.400   4.916  1.5262 -0.2205 -0.4435
   11MOL   C197 2817   0.473   5.327   4.743  0.1525  0.4055  0.8208
   11MOL   C198 2818   0.603   5.345   4.814  0.2830  0.5249 -0.1522
   11MOL   C199 2819   0.681   5.254   4.871  0.5006 -0.2921  0.0739
   11MOL   C200 2820   0.813   5.287   4.929  0.0524  0.0084  0.1946
   11MOL   C201 2821   0.650   5.108   4.875 -0.4583 -0.3693  0.1582
   11MOL   H202 2822   0.451   5.408   4.673 -2.1109 -0.7201  0.1688
   11MOL   H203 2823   0.496   5.248   4.671  1.6671  0.6949  0.9764
   11MOL   H204 2824   0.658   5.438   4.814 -2.0501  1.9683  1.0582
   11MOL   H205 2825   0.807   5.298   5.038 -0.5323  3.7256 -0.1493
   11MOL   H206 2826   0.863   5.368   4.876 -0.4257 -1.5958 -2.8089
   11MOL   H207 2827   0.881   5.202   4.923 -0.3282 -0.2704 -0.1860
   11MOL   H208 2828   0.542   5.097   4.881 -0.5862  0.3613 -0.7342
   11MOL   H209 2829   0.673   5.054   4.967  0.0835 -1.2930 -0.5129
   11MOL   C210 2830   0.692   5.025   4.756  0.0611  0.2998  0.6781
   11MOL   C211 2831   0.652   4.882   4.768  0.2248  0.2543  0.5009
   11MOL   C212 2832   0.736   4.780   4.796 -0.4651  0.3323 -0.1845
   11MOL   C213 2833   0.683   4.639   4.809  0.4036  0.8522 -0.3511
   11MOL   C214 2834   0.887   4.796   4.830  0.8560 -0.0322 -0.1633
   11MOL   H215 2835   0.801   5.025   4.745  0.3657  0.7317  3.4125
   11MOL   H216 2836   0.640   5.066   4.669 -0.6583 -0.1343  0.8999
   11MOL   H217 2837   0.547   4.863   4.753  0.3938 -1.8809  1.9533
   11MOL   H218 2838   0.575   4.632   4.796  0.2551 -2.4756  2.1459
   11MOL   H219 2839   0.705   4.599   4.908  0.0106 -0.0149 -0.6085
   11MOL   H220 2840   0.727   4.573   4.734 -2.1185 -0.5953 -0.6272
   11MOL   H221 2841   0.899   4.722   4.909 -0.0643 -1.0640 -0.9717
   11MOL   H222 2842   0.919   4.892   4.870 -0.6370  0.7873 -0.9454
   11MOL   C223 2843   0.972   4.763   4.707  0.2100  1.0670  0.3675
   11MOL   C224 2844   1.032   4.882   4.636 -0.8237  0.3125  0.2637
   11MOL   C225 2845   1.157   4.930   4.645  0.7276  0.2300  0.6498
   11MOL   C226 2846   1.197   5.055   4.580 -0.6202 -0.1025  1.2068
   11MOL   C227 2847   1.258   4.875   4.744 -0.9784  0.5706  0.0666
   11MOL   H228 2848   0.930   4.698   4.631  1.1164 -2.1393  2.5111
   11MOL   H229 2849   1.043   4.691   4.747 -2.2969 -1.0197  1.1741
   11MOL   H230 2850   0.964   4.939   4.574  1.9513  1.9503 -1.3833
   11MOL   H231 2851   1.212   5.129   4.658 -0.0085  0.6462  0.3757
   11MOL   H232 2852   1.118   5.089   4.514  1.0954  0.2410 -0.7107
   11MOL   H233 2853   1.297   5.047   4.538 -1.4806  1.4383 -1.2281
   11MOL   H234 2854   1.218   4.834   4.837  0.3744  1.5079  1.0788
   11MOL   H235 2855   1.313   4.962   4.780  0.4866 -0.6719  0.8727
   11MOL   C236 2856   1.345   4.771   4.676 -0.2126  0.7822 -0.1466
   11MOL   C237 2857   1.445   4.697   4.764 -0.2394  0.8025  0.0811
   11MOL   C238 2858   1.474   4.565   4.775 -0.0587  0.0667 -0.5252
   11MOL   C239 2859   1.584   4.510   4.869  0.3684 -0.2138 -0.1835
   11MOL   C240 2860   1.402   4.450   4.697  0.4662 -0.6609  0.8354
   11MOL   H241 2861   1.403   4.813   4.594  2.2982 -0.7319  0.7760
   11MOL   H242 2862   1.288   4.699   4.618  0.6542 -1.4111  1.6281
   11MOL   H243 2863   1.506   4.761   4.827  1.5504 -0.1212 -0.6898
   11MOL   H244 2864   1.539   4.436   4.936 -2.5380  2.6202  1.1567
   11MOL   H245 2865   1.618   4.581   4.943 -2.5977 -1.0700  2.1000
   11MOL   H246 2866   1.668   4.491   4.802 -0.5922  1.9312 -2.0935
   11MOL   H247 2867   1.467   4.363   4.706 -0.9726 -1.9302 -0.8115
   11MOL   H248 2868   1.397   4.473   4.591  2.8346 -3.9181 -0.0742
   11MOL   C249 2869   1.266   4.430   4.758 -0.5739  0.3169  0.1186
   11MOL   C250 2870   1.182   4.313   4.699  0.2885 -0.3575  0.4311
   11MOL   C251 2871   1.077   4.254   4.762 -0.4693  0.2311  0.6585
   11MOL   C252 2872   0.981   4.157   4.696  0.1366 -0.0359 -0.6519
   11MOL   C253 2873   1.044   4.297   4.901  0.5313  0.5189 -0.5540
   11MOL   H254 2874   1.211   4.518   4.725 -0.8604  0.2620  0.4434
   11MOL   H255 2875   1.287   4.421   4.864  0.6951 -2.2796 -0.3190
   11MOL   H256 2876   1.200   4.289   4.595  0.2762  0.5404  0.2182
   11MOL   H257 2877   0.962   4.076   4.767  0.5839  0.9494  0.6268
   11MOL   H258 2878   1.030   4.110   4.611  1.4540 -1.9749  1.1326
   11MOL   H259 2879   0.887   4.204   4.670 -1.8545 -1.3537  3.6783
   11MOL   H260 2880   1.036   4.405   4.915 -1.4899  0.4050 -0.6276
   11MOL   H261 2881   1.128   4.261   4.960 -0.5908 -1.0021  0.1276
   11MOL   H262 2882   0.948   4.258   4.935  0.6364  0.0393 -0.8106
   12MOL     C1 2883   0.045   2.684   4.918 -0.4111  0.0304  1.0631
   12MOL     C2 2884   7.828   2.791   4.947  0.3474 -0.2718 -0.9239
   12MOL     C3 2885   7.805   2.903   4.877  0.4387 -0.5956  0.9105
   12MOL     C4 2886   7.700   3.002   4.926  0.1431  0.6455 -0.0076
   12MOL     C5 2887   7.869   2.945   4.744  0.8407 -0.4204 -0.8460
   12MOL     H6 2888   0.080   2.646   5.014 -1.2234 -0.7513  1.0551
   12MOL     H7 2889   7.871   2.605   4.865 -2.8284  1.8329  0.7391
   12MOL     H8 2890   7.782   2.768   5.042  1.4049  3.6782  0.6371
   12MOL     H9 2891   7.661   2.967   5.022  0.5262 -0.1180 -0.1319
   12MOL    H10 2892   7.628   3.016   4.845 -1.2615 -0.2418  1.0476
   12MOL    H11 2893   7.740   3.100   4.952  4.6608 -0.6413 -1.7062
   12MOL    H12 2894   0.088   2.898   4.732  0.9826 -0.0152 -1.2678
   12MOL    H13 2895   0.002   3.053   4.741  0.2854 -0.2193  2.1295
   12MOL    H14 2896   0.135   2.708   4.861 -0.9220 -0.5483  0.0034
   12MOL    C15 2897   7.786   2.898   4.625 -0.8463 -0.3640 -0.7034
   12MOL    C16 2898   7.773   2.750   4.598  0.0745  0.4995  0.0798
   12MOL    C17 2899   7.810   2.679   4.489  0.2501 -0.2513 -0.8920
   12MOL    C18 2900   7.789   2.529   4.477 -0.0958 -0.5575  0.2725
   12MOL    C19 2901   0.006   2.751   4.374  0.3001 -0.6280  0.1225
   12MOL    H20 2902   7.826   2.944   4.534  1.6104 -1.8203 -0.3819
   12MOL    H21 2903   7.683   2.931   4.636 -0.9122 -0.8713  0.2335
   12MOL    H22 2904   7.723   2.695   4.677 -0.4634  2.1231  0.8904
   12MOL    H23 2905   7.743   2.506   4.381 -0.1407  2.6070 -0.5193
   12MOL    H24 2906   7.724   2.490   4.556  0.3825 -0.7557  0.5754
   12MOL    H25 2907   0.007   2.481   4.484 -0.4424 -1.2818  0.1287
   12MOL    H26 2908   7.812   2.829   4.356  1.6835  0.3443 -1.4678
   12MOL    H27 2909   7.867   2.699   4.279 -0.6237  0.3344 -0.2305
   12MOL    C28 2910   0.151   2.793   4.405 -0.5171 -0.0459 -0.5927
   12MOL    C29 2911   0.184   2.909   4.314  0.6077 -0.2275 -0.3848
   12MOL    C30 2912   0.220   2.912   4.183 -0.6986  0.3490 -0.1108
   12MOL    C31 2913   0.260   3.043   4.107  0.3061  0.1220  0.2736
   12MOL    C32 2914   0.230   2.790   4.091  0.8590  0.8902  0.9887
   12MOL    H33 2915   0.221   2.711   4.386  0.5858  0.2026  2.1969
   12MOL    H34 2916   0.164   2.832   4.506 -0.4156 -0.1884 -0.5503
   12MOL    H35 2917   0.166   3.010   4.350 -0.5554 -1.2125  1.8432
   12MOL    H36 2918   0.255   3.119   4.185  4.4236  1.1327 -0.3362
   12MOL    H37 2919   0.186   3.059   4.029 -1.3981 -4.8694  0.6516
   12MOL    H38 2920   0.359   3.047   4.064  0.0546  0.8150 -0.2463
   12MOL    H39 2921   0.239   2.694   4.143  0.0357  0.0107 -0.4625
   12MOL    H40 2922   0.326   2.804   4.041 -0.1283  0.7885 -0.9720
   12MOL    C41 2923   0.106   2.781   4.002 -0.7810 -0.4600 -0.5659
   12MOL    C42 2924   0.112   2.669   3.898  0.1808 -0.3061  0.4634
   12MOL    C43 2925   0.113   2.677   3.764  0.1322  0.2797  0.6300
   12MOL    C44 2926   0.119   2.543   3.680 -0.4477  0.4054 -0.4047
   12MOL    C45 2927   0.129   2.799   3.676  1.0209  0.3017 -0.3338
   12MOL    H46 2928   0.094   2.879   3.955 -0.5141  0.7399  1.8226
   12MOL    H47 2929   0.021   2.756   4.065  0.2577 -2.1584  0.1734
   12MOL    H48 2930   0.110   2.573   3.947  1.8718 -0.0941  0.9998
   12MOL    H49 2931   0.188   2.559   3.597 -0.1239 -0.5554 -0.3188
   12MOL    H50 2932   0.015   2.535   3.649 -0.0927 -1.6114 -1.1311
   12MOL    H51 2933   0.141   2.457   3.742 -0.8188 -0.9025 -2.0447
   12MOL    H52 2934   0.231   2.802   3.638  1.5537 -2.2277  0.8267
   12MOL    H53 2935   0.128   2.882   3.748  2.0931 -2.0096  2.4368
   12MOL    C54 2936   0.035   2.815   3.559  0.2212 -0.4212  0.0922
   12MOL    C55 2937   0.086   2.914   3.455  0.3563  0.5700 -0.1467
   12MOL    C56 2938   0.025   3.020   3.405  0.0310  0.6251 -0.4763
   12MOL    C57 2939   0.077   3.084   3.276  0.8903  0.5688  1.0425
   12MOL    C58 2940   7.770   3.072   3.469 -0.5233  1.2672 -0.6911
   12MOL    H59 2941   7.814   2.826   3.601 -1.4584  1.5282 -4.1543
   12MOL    H60 2942   0.019   2.721   3.506 -0.3884 -1.0288  1.3521
   12MOL    H61 2943   0.177   2.887   3.403 -0.4536  2.7258 -2.8077
   12MOL    H62 2944   0.000   3.071   3.199  1.9250 -1.4921  0.3070
   12MOL    H63 2945   0.164   3.034   3.233  0.3516  0.4412  0.0854
   12MOL    H64 2946   0.095   3.189   3.297  0.0522  1.1410 -0.9912
   12MOL    H65 2947   7.748   3.004   3.551  2.5160  0.6699 -0.3026
   12MOL    H66 2948   7.689   3.056   3.398 -2.4568  0.8692  1.5453
   12MOL    C67 2949   7.766   3.221   3.504  0.0546 -0.5596 -0.3554
   12MOL    C68 2950   7.629   3.284   3.519  1.0091  0.0421 -0.1089
   12MOL    C69 2951   7.586   3.388   3.455  0.1568 -0.4174 -0.2079
   12MOL    C70 2952   7.446   3.436   3.488 -0.2118  0.0474 -0.2138
   12MOL    C71 2953   7.666   3.472   3.350  0.0623  0.0867  0.0988
   12MOL    H72 2954   7.830   3.271   3.431  0.7006  0.4382  0.8758
   12MOL    H73 2955   7.816   3.238   3.599 -2.4021  0.6729  0.7479
   12MOL    H74 2956   7.566   3.217   3.576 -1.3714  2.0155 -0.3025
   12MOL    H75 2957   7.381   3.365   3.539 -0.0926 -0.1920 -0.3957
   12MOL    H76 2958   7.385   3.442   3.398  2.0790  1.0068 -1.7267
   12MOL    H77 2959   7.449   3.525   3.550  0.7182  0.8735 -1.4240
   12MOL    H78 2960   7.772   3.444   3.355 -0.2639 -1.4001 -0.8097
   12MOL    H79 2961   7.666   3.578   3.375  2.8021 -0.4316  2.6562
   12MOL    C80 2962   7.618   3.467   3.203  0.4490  0.7285  0.5299
   12MOL    C81 2963   7.651   3.335   3.137  0.4858 -0.8309 -0.2995
   12MOL    C82 2964   7.649   3.312   3.003 -0.8220 -0.0009  0.1077
   12MOL    C83 2965   7.584   3.408   2.903 -0.5692 -1.0886  0.8002
   12MOL    C84 2966   7.702   3.177   2.958  0.0925 -0.4062  0.4878
   12MOL    H85 2967   7.687   3.529   3.145 -1.7981  1.1141 -1.7864
   12MOL    H86 2968   7.516   3.495   3.178  0.3782 -0.0011 -0.0311
   12MOL    H87 2969   7.677   3.258   3.208  0.3799 -0.0815  0.5569
   12MOL    H88 2970   7.530   3.493   2.944  0.4229  0.4417 -0.9694
   12MOL    H89 2971   7.513   3.349   2.845 -0.1507 -0.8738  0.0587
   12MOL    H90 2972   7.655   3.442   2.828 -1.5100 -1.4018 -0.2477
   12MOL    H91 2973   7.624   3.139   2.892 -0.9062 -0.1697  1.5115
   12MOL    H92 2974   7.690   3.102   3.036 -3.0926 -1.2500 -0.7362
   12MOL    C93 2975   7.838   3.181   2.885 -0.3917 -0.8587 -0.5874
   12MOL    C94 2976   0.069   3.262   2.938 -0.0776 -0.5339 -1.0482
   12MOL    C95 2977   0.128   3.370   2.892  1.1365  0.9607  0.2241
   12MOL    C96 2978   0.250   3.426   2.956 -0.2311  0.3460 -0.3460
   12MOL    C97 2979   0.084   3.433   2.766  0.8487  0.2038 -0.7853
   12MOL    H98 2980   7.809   3.199   2.781 -0.8869 -0.8687 -0.4517
   12MOL    H99 2981   0.001   3.081   2.886  0.3308 -0.5940 -2.2621
   12MOL   H100 2982   0.107   3.226   3.033 -1.5898  1.1498  0.2214
   12MOL   H101 2983   0.236   3.534   2.966 -2.3146  0.1167 -0.4673
   12MOL   H102 2984   0.286   3.375   3.045 -1.5161  0.1268  0.0586
   12MOL   H103 2985   0.328   3.420   2.881 -0.0699  0.0330 -0.1528
   12MOL   H104 2986   0.062   3.540   2.777 -0.3792  0.0078 -1.2821
   12MOL   H105 2987   7.868   3.397   2.728  1.3799 -3.6729  1.3136
   12MOL   C106 2988   0.198   3.415   2.655 -0.3123  0.2385  0.2689
   12MOL   C107 2989   0.257   3.279   2.648  0.1839 -1.1928 -0.1840
   12MOL   C108 2990   0.216   3.175   2.568  0.5938 -0.4774 -0.0165
   12MOL   C109 2991   0.101   3.190   2.458  0.0763  1.2042 -0.0523
   12MOL   C110 2992   0.262   3.030   2.581 -0.7330 -0.5209 -0.3472
   12MOL   H111 2993   0.277   3.486   2.682 -0.5035 -0.4614  2.7878
   12MOL   H112 2994   0.169   3.439   2.553  3.1718  3.1401 -0.1364
   12MOL   H113 2995   0.341   3.257   2.712  0.5347 -0.7353 -0.4915
   12MOL   H114 2996   0.001   3.163   2.494 -0.1491  2.9452  0.7222
   12MOL   H115 2997   0.086   3.293   2.424  0.9378  0.4454 -2.7887
   12MOL   H116 2998   0.122   3.140   2.364  0.8096 -0.8687  1.1852
   12MOL   H117 2999   0.369   3.046   2.593 -0.9374  1.4061 -0.8630
   12MOL   H118 3000   0.255   2.985   2.482  0.9154  0.7286 -1.0739
   12MOL   C119 3001   0.203   2.938   2.684 -0.1322  0.0179 -0.2022
   12MOL   C120 3002   0.293   2.820   2.709  0.1378 -0.0657 -0.9331
   12MOL   C121 3003   0.357   2.786   2.826 -0.2556 -0.4541 -0.0847
   12MOL   C122 3004   0.445   2.667   2.831  0.0550 -0.0606 -0.0890
   12MOL   C123 3005   0.353   2.879   2.948 -0.4209  0.0170  0.2295
   12MOL   H124 3006   0.109   2.900   2.644 -1.2488  0.5744  1.7699
   12MOL   H125 3007   0.185   2.993   2.777  1.0959  1.1048 -0.5935
   12MOL   H126 3008   0.299   2.760   2.619 -0.1077 -1.8595  0.2180
   12MOL   H127 3009   0.439   2.627   2.729 -1.2567  1.0723 -0.4681
   12MOL   H128 3010   0.407   2.596   2.904  2.4278 -1.6060 -0.2766
   12MOL   H129 3011   0.544   2.687   2.872 -0.3670  0.5006  0.6703
   12MOL   H130 3012   0.352   2.817   3.037 -3.0817  0.4309  0.5107
   12MOL   H131 3013   0.258   2.932   2.958 -0.1901  0.5908 -0.5557
   12MOL   C132 3014   0.465   2.985   2.959  0.5848  0.3653  0.0261
   12MOL   C133 3015   0.455   3.065   3.091  0.1100 -0.3961  0.3722
   12MOL   C134 3016   0.496   3.025   3.212 -0.5707  0.0242 -0.6270
   12MOL   C135 3017   0.468   3.109   3.338  0.2083 -0.2193 -0.0881
   12MOL   C136 3018   0.583   2.901   3.241 -0.1611  0.6895  1.1009
   12MOL   H137 3019   0.462   3.058   2.878  0.3345  1.8184  1.3150
   12MOL   H138 3020   0.558   2.928   2.968  0.5499  0.4550  1.0211
   12MOL   H139 3021   0.387   3.148   3.080 -0.6105 -0.9250  0.8072
   12MOL   H140 3022   0.566   3.144   3.371  0.4848 -0.7238 -0.3621
   12MOL   H141 3023   0.423   3.061   3.425  2.5489 -0.3889  1.0621
   12MOL   H142 3024   0.396   3.186   3.310 -1.0290 -2.4899 -3.5185
   12MOL   H143 3025   0.586   2.830   3.159  0.6313 -0.2120  1.8871
   12MOL   H144 3026   0.541   2.854   3.330 -2.0749 -2.9441 -1.5599
   12MOL   C145 3027   0.736   2.943   3.268 -0.0688 -0.0503 -0.5610
   12MOL   C146 3028   0.838   2.835   3.226  0.2511  0.2063  0.0710
   12MOL   C147 3029   0.967   2.856   3.202 -0.2816 -0.0265 -0.2873
   12MOL   C148 3030   1.065   2.751   3.175 -0.8472 -0.2120 -0.0813
   12MOL   C149 3031   1.032   2.996   3.189  0.9241  0.2495 -0.3413
   12MOL   H150 3032   0.744   2.968   3.374  1.3476  0.9532 -0.8844
   12MOL   H151 3033   0.753   3.041   3.223  0.2555  0.7788  1.3352
   12MOL   H152 3034   0.798   2.735   3.236  0.2090  0.2328  0.1704
   12MOL   H153 3035   1.146   2.781   3.241 -1.3991 -0.0670  0.5348
   12MOL   H154 3036   1.104   2.747   3.073  1.3409 -0.9755  0.7479
   12MOL   H155 3037   1.016   2.663   3.217 -2.4103 -0.2788 -1.9838
   12MOL   H156 3038   0.962   3.071   3.150 -0.1081  0.4114  1.7160
   12MOL   H157 3039   1.108   2.991   3.111  0.5403 -0.5764 -0.6734
   12MOL   C158 3040   1.092   3.051   3.319 -0.1241 -0.3722  0.8060
   12MOL   C159 3041   1.175   3.176   3.301 -0.2074 -0.2453  0.2030
   12MOL   C160 3042   1.254   3.242   3.391 -0.1561 -0.5198 -0.1456
   12MOL   C161 3043   1.280   3.186   3.526 -0.1776  0.1579  0.8531
   12MOL   C162 3044   1.330   3.364   3.348  0.8624  0.7110 -1.2115
   12MOL   H163 3045   1.165   2.976   3.353 -0.7396 -1.7487 -0.8506
   12MOL   H164 3046   1.011   3.057   3.391  1.6874 -0.6219  2.9441
   12MOL   H165 3047   1.160   3.212   3.201 -0.5917 -1.8866 -0.3409
   12MOL   H166 3048   1.253   3.081   3.526 -1.1455  0.3822 -1.3845
   12MOL   H167 3049   1.217   3.227   3.605  0.3068 -0.2717  1.4706
   12MOL   H168 3050   1.382   3.205   3.561  0.5189  0.4917 -1.2705
   12MOL   H169 3051   1.321   3.358   3.239 -2.0704  0.2483 -0.9775
   12MOL   H170 3052   1.434   3.365   3.379  0.4959  1.1000  0.0186
   12MOL   C171 3053   1.286   3.488   3.434 -0.0881 -0.5574  0.3328
   12MOL   C172 3054   1.384   3.603   3.415  0.4365  0.1344  0.3843
   12MOL   C173 3055   1.361   3.718   3.352 -0.7629 -0.2256 -0.5869
   12MOL   C174 3056   1.226   3.749   3.286  0.3715 -0.2941 -0.7997
   12MOL   C175 3057   1.473   3.827   3.352  0.0637 -0.4419 -0.2693
   12MOL   H176 3058   1.291   3.468   3.541 -1.4640 -0.9223  0.3277
   12MOL   H177 3059   1.185   3.521   3.412  0.0899 -2.0351 -2.8999
   12MOL   H178 3060   1.477   3.586   3.467  1.1632  0.9570 -0.6168
   12MOL   H179 3061   1.236   3.819   3.202 -0.9007 -0.3788 -1.0280
   12MOL   H180 3062   1.165   3.786   3.368 -0.7137  0.6912 -2.0359
   12MOL   H181 3063   1.184   3.660   3.240 -0.9477 -0.1850  0.1746
   12MOL   H182 3064   1.505   3.848   3.249 -1.5766  0.0696 -0.6900
   12MOL   H183 3065   1.561   3.788   3.404 -0.9984 -0.6426  1.3830
   12MOL   C184 3066   1.428   3.948   3.432  0.2072 -0.3681  0.6014
   12MOL   C185 3067   1.527   4.061   3.434 -0.1682  0.5758  0.6332
   12MOL   C186 3068   1.531   4.178   3.367  0.1208 -0.5073  0.2749
   12MOL   C187 3069   1.655   4.275   3.374  0.5466  0.5073  0.1169
   12MOL   C188 3070   1.421   4.223   3.268  0.0269  0.7983 -0.0052
   12MOL   H189 3071   1.401   3.924   3.535  0.0892 -1.1861  0.3822
   12MOL   H190 3072   1.333   3.977   3.387  0.6325 -0.7759 -0.5835
   12MOL   H191 3073   1.620   4.052   3.489  0.8618  0.7971 -1.0254
   12MOL   H192 3074   1.739   4.247   3.438  1.0591  1.1392 -0.2749
   12MOL   H193 3075   1.619   4.377   3.387 -1.7464 -0.0586 -1.5397
   12MOL   H194 3076   1.703   4.260   3.278 -0.9557 -1.9209 -0.3155
   12MOL   H195 3077   1.344   4.147   3.260 -1.8429  2.3922  2.1763
   12MOL   H196 3078   1.480   4.219   3.176 -1.6512  1.4249 -1.1240
   12MOL   C197 3079   1.364   4.358   3.288  0.0614 -0.1022  0.1722
   12MOL   C198 3080   1.235   4.383   3.212  0.0348  0.5579  0.4706
   12MOL   C199 3081   1.175   4.500   3.195 -0.2443  0.3175  0.7262
   12MOL   C200 3082   1.045   4.498   3.124 -0.4216  0.3955  0.3983
   12MOL   C201 3083   1.216   4.628   3.257  0.2046 -0.6974 -0.5462
   12MOL   H202 3084   1.436   4.438   3.268  0.9154 -0.6127  1.1913
   12MOL   H203 3085   1.337   4.354   3.393 -1.3150 -0.2308 -0.1815
   12MOL   H204 3086   1.187   4.302   3.160  2.2761  0.0805 -0.8743
   12MOL   H205 3087   1.021   4.589   3.070  1.1902 -0.3474 -1.6327
   12MOL   H206 3088   0.957   4.483   3.186 -1.9046 -0.1814 -1.7919
   12MOL   H207 3089   1.040   4.415   3.053  0.5220  1.2066 -0.6367
   12MOL   H208 3090   1.202   4.715   3.192 -1.4813  0.0750  0.8101
   12MOL   H209 3091   1.321   4.631   3.283 -0.0921  1.2638  0.4757
   12MOL   C210 3092   1.135   4.652   3.383  0.3194  0.6788 -0.4579
   12MOL   C211 3093   1.181   4.770   3.464  0.5861 -0.2980  0.3324
   12MOL   C212 3094   1.253   4.765   3.573 -0.0457  0.0848  0.0534
   12MOL   C213 3095   1.291   4.888   3.651  0.3134 -0.2944  0.4368
   12MOL   C214 3096   1.297   4.633   3.631 -0.4484  0.2070 -0.4017
   12MOL   H215 3097   1.126   4.568   3.452 -0.5672 -0.0188 -1.4093
   12MOL   H216 3098   1.032   4.681   3.365 -0.1166  0.1339  1.0868
   12MOL   H217 3099   1.149   4.869   3.435  3.0428 -0.0461 -1.6953
   12MOL   H218 3100   1.270   4.888   3.758 -0.5145  0.1407  0.2809
   12MOL   H219 3101   1.244   4.977   3.608  1.6964  0.0816 -0.3189
   12MOL   H220 3102   1.397   4.913   3.648  1.1077 -3.4919  0.9025
   12MOL   H221 3103   1.343   4.575   3.551  0.3026 -2.5676  1.9318
   12MOL   H222 3104   1.212   4.579   3.671  0.3731  0.1057  1.2483
   12MOL   C223 3105   1.419   4.632   3.731 -0.5586 -0.4412  1.3379
   12MOL   C224 3106   1.479   4.497   3.759 -0.1552  0.0652 -0.8079
   12MOL   C225 3107   1.455   4.417   3.863 -0.1824  0.0039  0.2828
   12MOL   C226 3108   1.531   4.291   3.889 -0.0031 -0.1645 -0.2976
   12MOL   C227 3109   1.350   4.442   3.962  0.4508  0.6821 -0.0247
   12MOL   H228 3110   1.387   4.683   3.821  2.3505 -2.0423  3.3410
   12MOL   H229 3111   1.495   4.694   3.684 -0.5695 -0.1312  1.7272
   12MOL   H230 3112   1.544   4.453   3.685  1.9731  0.0526  1.0191
   12MOL   H231 3113   1.549   4.273   3.995 -1.3116 -2.0987 -0.3753
   12MOL   H232 3114   1.625   4.301   3.836 -1.7420  1.1275 -3.2724
   12MOL   H233 3115   1.468   4.207   3.859  1.0749 -0.4463 -1.8087
   12MOL   H234 3116   1.306   4.345   3.984  4.7746 -1.3941 -0.0251
   12MOL   H235 3117   1.266   4.496   3.918  1.6391  1.5203 -1.3134
   12MOL   C236 3118   1.397   4.523   4.092  0.1253 -0.2022  0.7558
   12MOL   C237 3119   1.296   4.513   4.205 -0.8894  0.0621  0.5777
   12MOL   C238 3120   1.259   4.615   4.286  0.0870  0.1776  0.1185
   12MOL   C239 3121   1.144   4.593   4.383  0.5856  0.4422 -0.7271
   12MOL   C240 3122   1.304   4.756   4.265  0.1859  0.2633 -0.2616
   12MOL   H241 3123   1.415   4.621   4.048  0.4208 -0.9790 -0.8945
   12MOL   H242 3124   1.496   4.497   4.129 -0.1593 -1.7060  0.5068
   12MOL   H243 3125   1.240   4.420   4.202 -1.4309  0.3951  0.3045
   12MOL   H244 3126   1.158   4.647   4.476  2.6042 -0.8064 -0.2626
   12MOL   H245 3127   1.145   4.487   4.409  0.8931  0.4073 -0.8831
   12MOL   H246 3128   1.046   4.617   4.341  0.3876 -2.4350 -2.0825
   12MOL   H247 3129   1.395   4.753   4.205  0.5200 -1.6223  0.2880
   12MOL   H248 3130   1.330   4.799   4.362 -0.4297 -2.8931  1.3500
   12MOL   C249 3131   1.194   4.839   4.194  0.0521  0.2768 -0.2001
   12MOL   C250 3132   1.237   4.985   4.201 -0.3447 -0.0224  0.2730
   12MOL   C251 3133   1.312   5.055   4.114  0.2298  0.5438 -0.4041
   12MOL   C252 3134   1.323   5.205   4.123 -0.3225  0.0788  0.6389
   12MOL   C253 3135   1.373   4.985   3.996 -0.4179  0.2615 -0.6231
   12MOL   H254 3136   1.098   4.810   4.235  1.6799 -2.6090  1.6903
   12MOL   H255 3137   1.190   4.820   4.086  0.0553  1.3407 -0.3947
   12MOL   H256 3138   1.187   5.029   4.285  0.2620 -0.0858  0.6690
   12MOL   H257 3139   1.259   5.247   4.045  1.1780 -0.7358 -1.0652
   12MOL   H258 3140   1.425   5.237   4.106 -0.6854  2.5424  2.9492
   12MOL   H259 3141   1.304   5.242   4.223  0.1852 -0.0140  0.7681
   12MOL   H260 3142   1.478   5.014   3.994 -0.4838  0.7803  1.7473
   12MOL   H261 3143   1.332   5.026   3.903  0.0856 -1.0065 -1.4055
   12MOL   H262 3144   1.370   4.877   4.003  0.7056  0.1670 -1.4950
   13MOL     C1 3145   7.113   0.938   1.337  0.3191  0.2427 -0.1728
   13MOL     C2 3146   7.099   1.079   1.381  0.3070  0.1434  0.3138
   13MOL     C3 3147   7.186   1.177   1.348 -0.5474 -0.0668 -0.0372
   13MOL     C4 3148   7.185   1.312   1.426 -0.2826  0.3550 -0.6178
   13MOL     C5 3149   7.302   1.154   1.249 -0.2938  0.1227  0.1715
   13MOL     H6 3150   7.017   0.888   1.353  1.5130 -1.1295  3.0543
   13MOL     H7 3151   7.132   0.924   1.230 -0.4694  2.7346 -0.6797
   13MOL     H8 3152   7.029   1.100   1.460 -0.8621  0.7405 -0.8497
   13MOL     H9 3153   7.098   1.323   1.491 -1.8353 -0.5439 -2.4974
   13MOL    H10 3154   7.178   1.397   1.359  1.9901 -0.2689 -1.6985
   13MOL    H11 3155   7.277   1.319   1.484  0.0757 -0.1396 -1.1215
   13MOL    H12 3156   7.280   1.068   1.185  0.2462  0.1174 -0.0123
   13MOL    H13 3157   7.393   1.122   1.300  0.4861 -2.0268 -2.4380
   13MOL    H14 3158   7.191   0.893   1.397  1.2521  2.5846  0.3903
   13MOL    C15 3159   7.317   1.269   1.150  0.6895 -0.0664 -0.2438
   13MOL    C16 3160   7.197   1.274   1.053  0.0077 -0.4296 -0.9355
   13MOL    C17 3161   7.189   1.240   0.923 -0.4837 -0.8170 -0.0836
   13MOL    C18 3162   7.049   1.253   0.864  0.0496 -0.1763  0.6688
   13MOL    C19 3163   7.298   1.210   0.829 -0.0209  0.9365 -0.0816
   13MOL    H20 3164   7.411   1.277   1.095  0.9801  0.2725  0.2971
   13MOL    H21 3165   7.315   1.360   1.209 -2.8482  0.7825 -1.5398
   13MOL    H22 3166   7.110   1.306   1.108  0.4494 -1.5054  0.4160
   13MOL    H23 3167   7.067   1.339   0.799  0.2859 -0.3019  0.5655
   13MOL    H24 3168   6.975   1.283   0.939  0.7921  0.1653  1.2728
   13MOL    H25 3169   7.026   1.175   0.792 -2.7569  3.4846 -2.6035
   13MOL    H26 3170   7.270   1.132   0.759  2.6234 -0.1926  0.0647
   13MOL    H27 3171   7.388   1.188   0.886 -0.0138 -1.9064 -1.1309
   13MOL    C28 3172   7.344   1.339   0.746 -0.7994 -0.0248 -0.1156
   13MOL    C29 3173   7.442   1.296   0.633 -0.5257 -0.6270  0.3812
   13MOL    C30 3174   7.560   1.347   0.595 -0.6055  0.1196 -0.3792
   13MOL    C31 3175   7.647   1.301   0.470 -0.6189 -0.0041 -0.4599
   13MOL    C32 3176   7.629   1.463   0.659 -0.2608 -0.2219 -0.2489
   13MOL    H33 3177   7.396   1.415   0.805 -3.1539  2.0984 -0.6654
   13MOL    H34 3178   7.266   1.391   0.690 -0.9977 -0.2082 -0.0141
   13MOL    H35 3179   7.406   1.215   0.571 -1.1967  1.1768 -1.6324
   13MOL    H36 3180   7.752   1.273   0.480 -0.8630 -0.9446 -0.4925
   13MOL    H37 3181   7.643   1.383   0.399  0.3193 -0.3587 -0.9248
   13MOL    H38 3182   7.597   1.218   0.420 -2.5999  1.9019 -1.7195
   13MOL    H39 3183   7.559   1.526   0.715 -1.7603 -1.4298 -0.7327
   13MOL    H40 3184   7.659   1.528   0.577  0.9502  1.1258  1.2296
   13MOL    C41 3185   7.746   1.430   0.745 -0.7461 -0.8833 -0.0140
   13MOL    C42 3186   7.797   1.541   0.839 -0.3258  0.1292  0.0771
   13MOL    C43 3187   0.042   1.577   0.859  0.4036 -0.4927 -0.7581
   13MOL    C44 3188   0.076   1.690   0.948  0.0384  0.1047  0.0445
   13MOL    C45 3189   0.167   1.492   0.811  0.1356  0.1851  0.1187
   13MOL    H46 3190   7.829   1.394   0.684 -0.8426  2.1974 -2.0464
   13MOL    H47 3191   7.716   1.338   0.795  0.4017 -2.1655 -1.6096
   13MOL    H48 3192   7.712   1.590   0.882  1.3758  2.0524  1.3455
   13MOL    H49 3193   0.135   1.765   0.896 -0.5693  2.2955  2.4002
   13MOL    H50 3194   0.129   1.653   1.035 -1.0851 -0.4461  0.5107
   13MOL    H51 3195   7.864   1.743   0.977 -0.1708  1.5686 -2.9936
   13MOL    H52 3196   0.140   1.388   0.792 -0.9981  0.0908  2.1019
   13MOL    H53 3197   0.238   1.494   0.894  0.2446  1.0444  0.0154
   13MOL    C54 3198   0.238   1.559   0.690 -0.1123 -0.2526 -0.0856
   13MOL    C55 3199   0.152   1.563   0.562 -0.5331  0.4282 -0.6049
   13MOL    C56 3200   0.193   1.528   0.435 -0.7735  0.0813 -0.3830
   13MOL    C57 3201   0.091   1.544   0.321  0.1026 -0.1851  0.3397
   13MOL    C58 3202   0.328   1.471   0.392  0.0525 -0.5634  0.3496
   13MOL    H59 3203   0.327   1.497   0.675  0.2831  0.2169  0.2814
   13MOL    H60 3204   0.267   1.659   0.724 -1.8605  0.4662 -0.6738
   13MOL    H61 3205   0.056   1.612   0.572 -0.2353  1.0310 -0.6632
   13MOL    H62 3206   0.048   1.452   0.282 -0.0927  0.6481 -1.4207
   13MOL    H63 3207   0.131   1.593   0.233  2.0814  0.8018  1.7379
   13MOL    H64 3208   7.879   1.600   0.343  1.1625  2.0392 -0.7839
   13MOL    H65 3209   0.407   1.511   0.455  0.9520 -0.3425 -0.9173
   13MOL    H66 3210   0.350   1.516   0.296 -2.7775  1.3320  0.5161
   13MOL    C67 3211   0.324   1.317   0.391 -0.2821  0.0345 -0.4754
   13MOL    C68 3212   0.449   1.256   0.343 -0.1327  0.0391 -0.1913
   13MOL    C69 3213   0.518   1.169   0.407  0.1044 -0.0578 -0.2125
   13MOL    C70 3214   0.633   1.095   0.335 -0.2316 -0.3100 -0.5677
   13MOL    C71 3215   0.513   1.126   0.556 -0.7776  0.6953  0.2736
   13MOL    H72 3216   0.242   1.280   0.329  0.1748 -2.1251  0.1729
   13MOL    H73 3217   0.313   1.273   0.490 -0.1868  0.0523 -0.4576
   13MOL    H74 3218   0.470   1.273   0.238 -1.4078  0.6554 -0.3587
   13MOL    H75 3219   0.732   1.137   0.346  0.9727 -2.8444 -1.2682
   13MOL    H76 3220   0.622   1.098   0.227  0.3822 -0.9464 -0.6532
   13MOL    H77 3221   0.634   0.993   0.373  1.0459  0.4530  1.5252
   13MOL    H78 3222   0.507   1.018   0.566  2.0029  0.3549 -1.3202
   13MOL    H79 3223   0.426   1.168   0.606 -0.5187  2.4445 -0.7243
   13MOL    C80 3224   0.631   1.178   0.644 -0.3208  0.5181  0.3979
   13MOL    C81 3225   0.627   1.328   0.660  0.1195  0.7463 -0.6742
   13MOL    C82 3226   0.595   1.396   0.772  0.0735 -0.1233  0.6715
   13MOL    C83 3227   0.557   1.335   0.911  1.0114 -0.7047  0.4439
   13MOL    C84 3228   0.606   1.552   0.773 -0.0033  0.1521 -0.4600
   13MOL    H85 3229   0.721   1.137   0.597 -0.7403  0.7355 -0.6072
   13MOL    H86 3230   0.620   1.129   0.741  0.6897 -0.2957  0.1134
   13MOL    H87 3231   0.658   1.389   0.576  2.4576  0.6655  0.0882
   13MOL    H88 3232   0.458   1.372   0.937  1.0837  0.1363 -0.4647
   13MOL    H89 3233   0.630   1.356   0.990  2.7523  0.5858 -1.4497
   13MOL    H90 3234   0.545   1.227   0.906 -0.8826 -0.4709 -0.4091
   13MOL    H91 3235   0.532   1.581   0.848 -1.8609  0.0901 -2.2116
   13MOL    H92 3236   0.574   1.574   0.671  0.4242 -0.7640 -0.8004
   13MOL    C93 3237   0.744   1.605   0.803  0.0093  0.1041 -0.0152
   13MOL    C94 3238   0.735   1.755   0.834 -0.4853  0.7858 -0.0163
   13MOL    C95 3239   0.744   1.855   0.747  0.4406 -0.1135  0.6542
   13MOL    C96 3240   0.731   2.001   0.779  0.1859  0.3809 -0.8643
   13MOL    C97 3241   0.766   1.830   0.598  0.1552  0.0189  0.6536
   13MOL    H98 3242   0.803   1.602   0.712 -0.4546  2.0215 -0.4012
   13MOL    H99 3243   0.801   1.541   0.870  1.2822  1.1415 -0.0900
   13MOL   H100 3244   0.725   1.777   0.939  2.1020  0.3268  0.3720
   13MOL   H101 3245   0.800   2.043   0.706 -0.8779 -0.7777 -2.5834
   13MOL   H102 3246   0.631   2.030   0.747 -0.2000  0.8666  0.7702
   13MOL   H103 3247   0.747   2.031   0.882 -0.5370  0.1872 -0.6934
   13MOL   H104 3248   0.747   1.724   0.581  0.5252 -0.0503  0.6628
   13MOL   H105 3249   0.871   1.838   0.568 -0.2099 -0.7075 -0.8922
   13MOL   C106 3250   0.688   1.924   0.502  0.5972 -0.1840  0.6057
   13MOL   C107 3251   0.680   1.870   0.361 -0.0378 -0.2223  0.1171
   13MOL   C108 3252   0.694   1.937   0.244  0.0300 -0.1762 -0.0314
   13MOL   C109 3253   0.720   2.087   0.233  0.0036 -0.3132 -0.0028
   13MOL   C110 3254   0.679   1.875   0.102 -0.0230 -0.3373  0.0281
   13MOL   H111 3255   0.738   2.021   0.498  0.2865 -0.0651 -0.5353
   13MOL   H112 3256   0.582   1.940   0.520  0.2099 -0.9500 -0.8446
   13MOL   H113 3257   0.684   1.762   0.366  1.0872 -0.1977 -0.0862
   13MOL   H114 3258   0.816   2.103   0.184  0.1144  2.8773  1.1408
   13MOL   H115 3259   0.642   2.137   0.176 -2.5880 -1.6429  2.2705
   13MOL   H116 3260   0.714   2.134   0.331 -1.0633 -2.9264  1.2128
   13MOL   H117 3261   0.751   1.921   0.034 -1.0953  0.4226 -0.6082
   13MOL   H118 3262   0.591   1.908   0.048  0.5120  0.6003 -0.3001
   13MOL   C119 3263   0.699   1.723   0.107  0.6392 -0.4767  0.0436
   13MOL   C120 3264   0.690   1.658   7.855 -0.7848  0.3500  0.1190
   13MOL   C121 3265   0.722   1.532   7.833 -0.2476  0.0131 -0.2167
   13MOL   C122 3266   0.737   1.476   7.694  0.0669 -0.2958  0.0766
   13MOL   C123 3267   0.758   1.431   0.063  0.2980  0.0921  0.0352
   13MOL   H124 3268   0.619   1.680   0.167  0.8462  0.2926  0.8782
   13MOL   H125 3269   0.797   1.694   0.145  1.7792  0.7827 -1.8460
   13MOL   H126 3270   0.676   1.728   7.773  0.0585  1.7351  1.1408
   13MOL   H127 3271   0.722   1.548   7.614 -0.3800 -1.3151 -0.7603
   13MOL   H128 3272   0.665   1.395   7.677  0.2327 -0.1228 -1.4408
   13MOL   H129 3273   0.835   1.428   7.691 -0.0553 -0.7935  2.5717
   13MOL   H130 3274   0.723   1.336   0.020  1.4561 -1.2128  1.9011
   13MOL   H131 3275   0.695   1.442   0.151  0.9437  1.7577  0.2899
   13MOL   C132 3276   0.906   1.426   0.103  0.6162  0.0770 -0.0692
   13MOL   C133 3277   0.947   1.341   0.227  0.3132 -0.0409  0.2194
   13MOL   C134 3278   0.966   1.394   0.351  0.3144 -0.3011  0.4531
   13MOL   C135 3279   1.009   1.304   0.467 -0.0165  0.5756  0.6515
   13MOL   C136 3280   0.961   1.547   0.386  0.1016  0.6816  0.2480
   13MOL   H137 3281   0.953   1.524   0.111  0.0866  0.1336  2.6382
   13MOL   H138 3282   0.966   1.391   0.019 -0.4251  2.3393 -1.8226
   13MOL   H139 3283   0.962   1.236   0.211  0.4596  0.1693 -1.0778
   13MOL   H140 3284   1.116   1.304   0.487 -0.0411 -3.4520  1.0650
   13MOL   H141 3285   0.973   1.203   0.451 -0.6885  0.6009  1.9421
   13MOL   H142 3286   0.960   1.354   0.551 -2.0382 -0.0624 -0.1373
   13MOL   H143 3287   0.938   1.561   0.492  1.6981  0.0210  0.7035
   13MOL   H144 3288   0.889   1.601   0.325 -1.1352 -1.4123 -0.2332
   13MOL   C145 3289   1.094   1.612   0.373 -0.3347  0.3690 -0.1149
   13MOL   C146 3290   1.094   1.755   0.407  0.0262  0.1175 -0.4184
   13MOL   C147 3291   1.125   1.857   0.323 -0.1240 -1.0478  0.5332
   13MOL   C148 3292   1.145   2.002   0.369  0.2539 -0.1482  0.7057
   13MOL   C149 3293   1.159   1.835   0.174 -0.5977  0.8405  0.1984
   13MOL   H150 3294   1.131   1.591   0.273 -1.7478 -1.0822 -0.3643
   13MOL   H151 3295   1.155   1.558   0.444 -0.6365  0.6694  0.3785
   13MOL   H152 3296   1.077   1.763   0.513 -1.7147 -0.5225 -0.6336
   13MOL   H153 3297   1.224   2.037   0.302  0.3375 -0.9067  0.4062
   13MOL   H154 3298   1.175   2.004   0.473 -0.0484  0.2186  0.7857
   13MOL   H155 3299   1.056   2.061   0.349 -0.6039 -1.9919 -1.0849
   13MOL   H156 3300   1.158   1.734   0.132  0.8293  1.2413 -0.8293
   13MOL   H157 3301   1.262   1.866   0.156  0.9731 -2.9822  2.0109
   13MOL   C158 3302   1.067   1.901   0.073 -0.4414  0.6723 -0.4123
   13MOL   C159 3303   1.124   1.905   7.811 -0.7663  0.3891 -0.3659
   13MOL   C160 3304   1.102   1.819   7.713 -0.1569  0.4947 -0.8107
   13MOL   C161 3305   1.022   1.692   7.726  0.1494  0.8285  0.5015
   13MOL   C162 3306   1.158   1.834   7.578  0.0572  0.1087  0.0793
   13MOL   H163 3307   1.029   2.002   0.084 -3.4530 -0.3266 -1.0957
   13MOL   H164 3308   0.977   1.839   0.067  0.0931 -0.4189  2.1114
   13MOL   H165 3309   1.183   1.992   7.788 -0.0118 -0.2692 -0.9574
   13MOL   H166 3310   0.955   1.703   7.811 -0.6745 -0.3392  0.0167
   13MOL   H167 3311   1.095   1.612   7.736  0.0233  0.5969 -0.4070
   13MOL   H168 3312   0.960   1.660   7.642 -0.7533  2.4436  0.5239
   13MOL   H169 3313   1.209   1.930   7.567  1.4237 -0.8120 -2.1108
   13MOL   H170 3314   1.077   1.839   7.506  0.2502  0.2355 -0.1314
   13MOL   C171 3315   1.255   1.719   7.541 -0.6390  0.2400 -0.1251
   13MOL   C172 3316   1.317   1.729   7.405  0.3606  0.4083 -0.8055
   13MOL   C173 3317   1.265   1.675   7.292 -0.0702 -0.3631  0.6190
   13MOL   C174 3318   1.139   1.595   7.285  1.2439 -0.6198  0.0692
   13MOL   C175 3319   1.341   1.675   7.159 -0.1533 -0.6586  0.0764
   13MOL   H176 3320   1.206   1.622   7.536  0.2049 -0.1439 -1.2669
   13MOL   H177 3321   1.329   1.707   7.620 -1.7887 -1.7615  0.7032
   13MOL   H178 3322   1.410   1.785   7.396  0.5738  0.0001 -1.1545
   13MOL   H179 3323   1.079   1.619   7.373  4.5228  0.1263  2.2074
   13MOL   H180 3324   1.156   1.487   7.281  1.7346 -0.6346  2.0875
   13MOL   H181 3325   1.091   1.628   7.193  2.7297  0.4116 -0.3631
   13MOL   H182 3326   1.417   1.753   7.155 -2.0108  1.1699  0.1750
   13MOL   H183 3327   1.273   1.683   7.074  0.3698 -2.6565 -0.5691
   13MOL   C184 3328   1.414   1.546   7.149 -0.7735 -0.1495 -0.1216
   13MOL   C185 3329   1.531   1.557   7.047 -0.3439  0.6057 -0.3252
   13MOL   C186 3330   1.661   1.541   7.071  0.1574  0.3429 -0.6369
   13MOL   C187 3331   1.757   1.550   6.956 -0.1303 -0.5473 -0.1463
   13MOL   C188 3332   1.717   1.522   7.211  0.5682  0.2584 -0.7650
   13MOL   H189 3333   1.351   1.462   7.120 -0.2965 -1.6618  2.9233
   13MOL   H190 3334   1.453   1.522   7.248  0.4853  0.2229 -0.5234
   13MOL   H191 3335   1.500   1.575   6.945 -0.9705  0.0323 -0.2356
   13MOL   H192 3336   1.838   1.477   6.954  0.9183  0.6132 -1.2358
   13MOL   H193 3337   1.805   1.647   6.968  0.8439 -1.1272  0.7520
   13MOL   H194 3338   1.710   1.547   6.858 -0.7467 -0.4098  0.1460
   13MOL   H195 3339   1.812   1.472   7.193  1.6952  2.3856 -0.8571
   13MOL   H196 3340   1.665   1.437   7.256  2.0916  0.0172  0.5559
   13MOL   C197 3341   1.717   1.650   7.294 -0.0175 -0.3805 -0.0734
   13MOL   C198 3342   1.742   1.618   7.441  0.2283  0.7047 -0.7513
   13MOL   C199 3343   1.859   1.643   7.502  1.2130  0.1013  0.7576
   13MOL   C200 3344   1.868   1.624   7.651 -0.3523 -0.3366 -0.5515
   13MOL   C201 3345   1.978   1.698   7.432  0.1668  0.6574  0.4110
   13MOL   H202 3346   1.616   1.689   7.284 -1.2254 -3.7694 -1.9484
   13MOL   H203 3347   1.778   1.723   7.241 -1.3978  1.3560  0.6953
   13MOL   H204 3348   1.660   1.585   7.504  0.8247 -1.0924 -0.8977
   13MOL   H205 3349   1.785   1.564   7.689  0.3566 -1.1208 -0.2433
   13MOL   H206 3350   1.881   1.717   7.707  2.4051 -2.1951  2.0321
   13MOL   H207 3351   1.957   1.567   7.678  0.1317  1.8266  2.7108
   13MOL   H208 3352   1.973   1.708   7.323  0.1811 -0.2206  0.3305
   13MOL   H209 3353   2.064   1.636   7.457 -1.5389 -2.4923 -1.3115
   13MOL   C210 3354   2.037   1.831   7.489 -0.2370  0.0156  0.0065
   13MOL   C211 3355   2.171   1.880   7.432  0.3565  0.4870 -0.0679
   13MOL   C212 3356   2.203   2.008   7.425 -0.5001  0.4789 -0.0798
   13MOL   C213 3357   2.320   2.049   7.348  0.5100 -0.1364  0.9261
   13MOL   C214 3358   2.125   2.122   7.488  0.3107 -0.2824  0.4711
   13MOL   H215 3359   2.045   1.826   7.598 -0.7446  2.2392  0.1759
   13MOL   H216 3360   1.967   1.910   7.463 -1.0736 -0.3734  1.0302
   13MOL   H217 3361   2.237   1.807   7.387  0.5905 -1.0640  2.6820
   13MOL   H218 3362   2.388   2.085   7.426 -1.3011  2.4154  1.3917
   13MOL   H219 3363   2.307   2.122   7.268  2.5615 -0.0875  0.6093
   13MOL   H220 3364   2.371   1.965   7.302  2.7426  1.3439  0.5992
   13MOL   H221 3365   2.199   2.178   7.545 -1.6281  1.2961  1.4911
   13MOL   H222 3366   2.054   2.084   7.561  1.4463 -0.4094  1.5280
   13MOL   C223 3367   2.056   2.215   7.382 -0.0637  0.1829 -0.4966
   13MOL   C224 3368   1.969   2.320   7.448  0.5590  0.3451  0.5207
   13MOL   C225 3369   2.007   2.453   7.458 -0.6987  0.0951 -0.3476
   13MOL   C226 3370   1.912   2.557   7.518 -0.3094  0.0076  0.7112
   13MOL   C227 3371   2.145   2.497   7.425 -0.1385 -0.5139 -0.2165
   13MOL   H228 3372   1.987   2.157   7.321 -0.3576 -0.0078  0.0228
   13MOL   H229 3373   2.134   2.248   7.313  0.5135 -0.1722 -0.0153
   13MOL   H230 3374   1.868   2.293   7.473  0.4969 -0.2971 -0.3940
   13MOL   H231 3375   1.847   2.499   7.584 -0.7387 -0.8085 -0.4108
   13MOL   H232 3376   1.857   2.605   7.437 -0.9708 -1.8055  0.0472
   13MOL   H233 3377   1.958   2.635   7.578  1.0475  1.1481 -1.7203
   13MOL   H234 3378   2.217   2.415   7.435  1.1612  0.6529  0.1693
   13MOL   H235 3379   2.175   2.561   7.508  0.7928 -0.1727 -0.8000
   13MOL   C236 3380   2.141   2.581   7.292  0.3610  0.2698 -0.6272
   13MOL   C237 3381   2.230   2.707   7.310  0.0558  0.3439 -0.1875
   13MOL   C238 3382   2.191   2.833   7.343 -0.4193 -0.1232 -0.1353
   13MOL   C239 3383   2.298   2.943   7.353  0.0017 -0.0032  0.4933
   13MOL   C240 3384   2.049   2.883   7.367  0.2729 -0.4562 -0.0075
   13MOL   H241 3385   2.038   2.608   7.270  0.5289 -0.0391 -1.8431
   13MOL   H242 3386   2.171   2.521   7.206  0.6277 -0.5153  0.0085
   13MOL   H243 3387   2.335   2.701   7.285  0.0556 -0.5577  0.0029
   13MOL   H244 3388   2.278   3.011   7.271  1.1679 -1.1718 -0.7881
   13MOL   H245 3389   2.397   2.897   7.361  0.8810  1.3693 -2.0780
   13MOL   H246 3390   2.290   3.001   7.445 -2.6273 -0.3334  0.5177
   13MOL   H247 3391   2.039   2.905   7.474 -0.9747  0.0953 -0.2286
   13MOL   H248 3392   1.973   2.806   7.356  1.5736 -1.8146  0.3022
   13MOL   C249 3393   2.002   2.998   7.277  0.4911 -0.1624 -0.0134
   13MOL   C250 3394   1.992   2.953   7.133 -0.4501  0.6004  0.1598
   13MOL   C251 3395   1.961   3.030   7.026 -0.1222  0.8751 -1.1708
   13MOL   C252 3396   1.967   2.968   6.888  0.1756 -0.8827 -0.7028
   13MOL   C253 3397   1.913   3.172   7.035 -0.1771 -0.0032 -0.2784
   13MOL   H254 3398   2.059   3.090   7.286 -0.3873  0.5605 -1.5112
   13MOL   H255 3399   1.901   3.030   7.305  1.2620  1.9414  0.5215
   13MOL   H256 3400   2.015   2.848   7.117 -2.0569 -0.1246  2.3742
   13MOL   H257 3401   1.879   2.910   6.861 -1.2147  0.1759  1.4206
   13MOL   H258 3402   2.052   2.902   6.871  0.3866 -0.0811 -2.9934
   13MOL   H259 3403   1.979   3.052   6.819 -0.0774  0.4821  0.8883
   13MOL   H260 3404   1.994   3.241   7.012  1.0235 -0.7367  1.6406
   13MOL   H261 3405   1.875   3.188   7.136  0.1318 -0.2516 -0.1242
   13MOL   H262 3406   1.842   3.190   6.954  1.9819  2.4627 -1.6760
   14MOL     C1 3407   3.497   3.453   0.036  0.1663 -0.2995 -0.3612
   14MOL     C2 3408   3.542   3.482   0.178  0.0118  0.2234 -0.3809
   14MOL     C3 3409   3.498   3.586   0.250  0.2365 -0.1636  1.1603
   14MOL     C4 3410   3.545   3.608   0.398 -0.4060 -0.3358  0.0024
   14MOL     C5 3411   3.397   3.690   0.200 -0.5931  0.2956 -0.5256
   14MOL     H6 3412   3.495   3.536   7.844  0.7542 -0.2160 -0.2799
   14MOL     H7 3413   3.569   3.384   7.873 -1.2277 -1.2499 -1.2513
   14MOL     H8 3414   3.602   3.399   0.212  0.7144  1.4189  1.3522
   14MOL     H9 3415   3.583   3.709   0.411 -2.0351  0.6588 -2.6796
   14MOL    H10 3416   3.620   3.538   0.436  0.5012  1.1299  0.9127
   14MOL    H11 3417   3.461   3.591   0.464 -2.5024 -0.1685 -2.5333
   14MOL    H12 3418   3.393   3.697   0.091 -1.9540  1.3304 -0.4220
   14MOL    H13 3419   3.425   3.786   0.241 -1.7251  1.2494 -1.9485
   14MOL    H14 3420   3.400   3.403   0.048  0.2592 -0.8080 -1.6832
   14MOL    C15 3421   3.253   3.656   0.252 -0.3667 -0.4057 -0.5247
   14MOL    C16 3422   3.146   3.756   0.197  0.0679 -0.8287 -0.0578
   14MOL    C17 3423   3.029   3.729   0.135  0.6689  0.3170 -0.2062
   14MOL    C18 3424   2.939   3.842   0.081 -0.1991 -0.9530 -0.4690
   14MOL    C19 3425   2.983   3.593   0.096  1.1689 -0.0349 -0.3776
   14MOL    H20 3426   3.257   3.654   0.361 -0.7526  1.1593 -0.4787
   14MOL    H21 3427   3.213   3.555   0.239 -0.7139 -0.4262  0.7090
   14MOL    H22 3428   3.166   3.860   0.216  2.3055 -1.2363 -0.0836
   14MOL    H23 3429   2.975   3.944   0.091  0.5680 -1.3306  0.7438
   14MOL    H24 3430   2.842   3.834   0.130  0.5489 -0.9163  1.0404
   14MOL    H25 3431   2.907   3.820   7.858  0.7805 -2.1893 -0.5293
   14MOL    H26 3432   3.060   3.515   0.095  0.8483 -0.3455 -3.6556
   14MOL    H27 3433   2.958   3.611   7.871 -1.0230  0.9814  0.2931
   14MOL    C28 3434   2.864   3.543   0.181  0.2660 -0.9438  0.0039
   14MOL    C29 3435   2.839   3.395   0.140 -0.6992 -0.6621 -0.5079
   14MOL    C30 3436   2.720   3.332   0.112  0.5699 -0.2221  0.6018
   14MOL    C31 3437   2.702   3.185   0.086  0.2347  0.6867 -0.2139
   14MOL    C32 3438   2.581   3.403   0.139 -0.8803  0.7044 -0.8114
   14MOL    H33 3439   2.772   3.601   0.170  1.8838  1.6283 -0.4327
   14MOL    H34 3440   2.878   3.549   0.289 -0.0597  1.5556 -0.0635
   14MOL    H35 3441   2.925   3.331   0.141 -0.2830 -0.1998  3.6666
   14MOL    H36 3442   2.641   3.138   0.163  0.3988  1.5807  0.4696
   14MOL    H37 3443   2.796   3.131   0.082 -0.5271 -0.5744 -1.8451
   14MOL    H38 3444   2.653   3.170   7.868 -2.6919  0.3550  1.2582
   14MOL    H39 3445   2.588   3.471   0.224 -5.6402  0.0205  0.2692
   14MOL    H40 3446   2.512   3.326   0.173 -0.2272  1.2247  1.7903
   14MOL    C41 3447   2.529   3.453   7.879 -0.0987  0.4912  0.3695
   14MOL    C42 3448   2.424   3.556   0.010  0.0974  0.0194  0.0968
   14MOL    C43 3449   2.376   3.623   7.780 -0.1494 -0.1449  0.2437
   14MOL    C44 3450   2.295   3.749   7.799  0.0137 -0.2388  0.3940
   14MOL    C45 3451   2.399   3.597   7.632  0.4644 -0.5201 -0.2011
   14MOL    H46 3452   2.502   3.366   7.820 -0.3120 -0.6484  2.1247
   14MOL    H47 3453   2.608   3.494   7.816  1.7013 -1.5151  1.2739
   14MOL    H48 3454   2.398   3.588   0.109  1.4561  1.6756 -0.0613
   14MOL    H49 3455   2.203   3.726   7.745  0.6476 -0.3454 -0.6518
   14MOL    H50 3456   2.351   3.832   7.757  1.1070 -0.8140  0.7008
   14MOL    H51 3457   2.269   3.768   0.024  1.5660  0.5649  0.6365
   14MOL    H52 3458   2.315   3.574   7.567 -0.0914  0.3367  0.2038
   14MOL    H53 3459   2.457   3.504   7.634  1.3296  0.0172 -0.3751
   14MOL    C54 3460   2.473   3.714   7.565  0.7798 -0.5341  0.2624
   14MOL    C55 3461   2.539   3.687   7.435 -1.0798 -0.1663  0.4932
   14MOL    C56 3462   2.505   3.704   7.307  0.0317  0.4602 -0.1624
   14MOL    C57 3463   2.600   3.660   7.195  0.2789  0.0202 -0.3066
   14MOL    C58 3464   2.377   3.762   7.260  0.1773  0.0031  0.3154
   14MOL    H59 3465   2.555   3.761   7.620  0.1059  2.6372 -1.3080
   14MOL    H60 3466   2.414   3.805   7.551  1.9116 -0.0014 -1.2907
   14MOL    H61 3467   2.637   3.643   7.447 -1.4928 -1.6622 -1.4892
   14MOL    H62 3468   2.622   3.750   7.138 -1.2459  0.8860  0.4556
   14MOL    H63 3469   2.561   3.594   7.117  0.1875 -1.0701  0.6450
   14MOL    H64 3470   2.684   3.604   7.237 -0.3760  1.1258  2.5811
   14MOL    H65 3471   2.403   3.814   7.168 -1.2213 -0.8217 -0.5765
   14MOL    H66 3472   2.340   3.842   7.324 -1.3802 -0.4477  0.0084
   14MOL    C67 3473   2.272   3.643   7.253 -0.4481 -0.1193  0.8675
   14MOL    C68 3474   2.144   3.673   7.178  0.6079 -0.4619  0.7482
   14MOL    C69 3475   2.016   3.656   7.212  0.1867 -0.0992 -0.2026
   14MOL    C70 3476   1.910   3.664   7.105 -0.0414  0.5159 -0.6325
   14MOL    C71 3477   1.981   3.600   7.351  0.3312  0.4032 -0.2704
   14MOL    H72 3478   2.249   3.609   7.354 -1.1558 -2.8895 -0.1831
   14MOL    H73 3479   2.319   3.558   7.204 -1.0603 -0.3481  0.6701
   14MOL    H74 3480   2.158   3.697   7.073  0.6053  1.5346  1.1879
   14MOL    H75 3481   1.907   3.565   7.060  0.1945 -2.0814  4.6505
   14MOL    H76 3482   1.943   3.718   7.016 -0.9380  0.0004 -1.2847
   14MOL    H77 3483   1.809   3.687   7.139  0.0320  1.2838 -0.9351
   14MOL    H78 3484   1.888   3.651   7.377 -1.5298 -2.1101 -1.8178
   14MOL    H79 3485   2.054   3.632   7.426 -0.0978  0.0677  0.2937
   14MOL    C80 3486   1.952   3.446   7.355 -0.9586 -0.4250 -0.7548
   14MOL    C81 3487   1.924   3.399   7.497 -0.2726 -0.9377 -0.0339
   14MOL    C82 3488   2.010   3.330   7.579  0.0493 -0.2321  0.1897
   14MOL    C83 3489   2.150   3.293   7.542 -0.0986  1.0031 -0.1523
   14MOL    C84 3490   1.972   3.304   7.726  0.2234 -0.2256 -0.3343
   14MOL    H85 3491   2.030   3.391   7.304  3.2374  1.8101  2.9623
   14MOL    H86 3492   1.871   3.416   7.288 -1.3782 -1.2005  0.0859
   14MOL    H87 3493   1.825   3.425   7.531  0.5404  0.7341  1.1004
   14MOL    H88 3494   2.167   3.187   7.561  0.3627  0.8676 -1.3032
   14MOL    H89 3495   2.227   3.349   7.596 -1.1184  1.4683  0.8434
   14MOL    H90 3496   2.167   3.301   7.435 -1.2486 -2.8600 -0.6829
   14MOL    H91 3497   1.998   3.206   7.766 -1.7497 -0.3054  0.8208
   14MOL    H92 3498   1.864   3.318   7.731  0.2492  0.1393 -0.7598
   14MOL    C93 3499   2.044   3.394   7.830 -0.0789 -0.3876  0.1461
   14MOL    C94 3500   2.018   3.540   7.800  0.2307 -0.3253  0.3993
   14MOL    C95 3501   1.972   3.626   0.011  1.2920  0.6080 -0.8426
   14MOL    C96 3502   1.931   3.765   7.861 -0.0394 -0.3510 -0.6854
   14MOL    C97 3503   1.939   3.584   0.158  1.0509 -0.1207  0.4058
   14MOL    H98 3504   2.152   3.384   7.820  0.0671  2.4187 -1.4191
   14MOL    H99 3505   2.004   3.362   0.047 -0.5744 -1.3470 -0.3766
   14MOL   H100 3506   2.034   3.569   7.698 -1.3024 -0.5664  0.0759
   14MOL   H101 3507   1.822   3.774   7.858 -0.1064  0.1715  2.3258
   14MOL   H102 3508   1.976   3.841   0.046 -0.3447 -0.4342 -0.3725
   14MOL   H103 3509   1.966   3.783   7.759  0.8275 -0.7518 -0.4665
   14MOL   H104 3510   1.951   3.670   0.223 -2.5128 -0.0161  1.0561
   14MOL   H105 3511   2.007   3.506   0.192  2.3899  0.4570 -0.9209
   14MOL   C106 3512   1.798   3.527   0.164 -0.0432  0.2206  0.2245
   14MOL   C107 3513   1.759   3.485   0.306 -0.4956 -0.8425 -0.3309
   14MOL   C108 3514   1.751   3.350   0.336  0.2215  0.1130  0.6101
   14MOL   C109 3515   1.766   3.249   0.231  0.4689 -0.5879 -0.0211
   14MOL   C110 3516   1.731   3.303   0.479  0.1303  0.3309  0.1328
   14MOL   H111 3517   1.765   3.479   0.072  1.5519  2.3430 -1.4859
   14MOL   H112 3518   1.735   3.616   0.159 -1.2168 -0.6877 -1.4375
   14MOL   H113 3519   1.757   3.567   0.377  0.7633 -0.2123 -0.9950
   14MOL   H114 3520   1.859   3.245   0.175  0.2787 -0.6187 -0.3359
   14MOL   H115 3521   1.760   3.157   0.290  1.7224 -0.6721 -0.0250
   14MOL   H116 3522   1.688   3.267   0.157  0.5876 -1.8991 -0.4730
   14MOL   H117 3523   1.737   3.392   0.541 -2.1204  0.2279  0.5131
   14MOL   H118 3524   1.810   3.233   0.508 -0.5671  0.2564  1.8992
   14MOL   C119 3525   1.593   3.238   0.507 -0.2686 -0.1333 -0.5533
   14MOL   C120 3526   1.570   3.224   0.656 -0.9432  0.2973 -0.6868
   14MOL   C121 3527   1.551   3.102   0.711 -0.1966 -0.6553  0.1387
   14MOL   C122 3528   1.530   3.083   0.856 -0.1002 -0.8829 -0.3471
   14MOL   C123 3529   1.543   2.961   0.633 -0.0271 -0.1445 -0.2378
   14MOL   H124 3530   1.593   3.143   0.453  2.9741 -1.0250  0.8673
   14MOL   H125 3531   1.510   3.299   0.471  0.2049  2.0808  1.9822
   14MOL   H126 3532   1.571   3.313   0.717  0.2589  0.9411 -1.6279
   14MOL   H127 3533   1.426   3.061   0.877 -0.8221  0.1542 -2.6714
   14MOL   H128 3534   1.556   3.177   0.905 -0.1361 -0.7370 -0.6046
   14MOL   H129 3535   1.582   2.994   0.891  0.2744 -1.3298 -1.9751
   14MOL   H130 3536   1.602   2.894   0.696 -1.5385 -1.7191 -0.4455
   14MOL   H131 3537   1.591   2.955   0.536  1.0612 -2.1307  0.3776
   14MOL   C132 3538   1.403   2.905   0.629 -0.8362 -0.1211  0.1272
   14MOL   C133 3539   1.389   2.767   0.575  0.2494 -0.7455  0.0592
   14MOL   C134 3540   1.299   2.721   0.491  0.5527  0.1840  0.0886
   14MOL   C135 3541   1.298   2.577   0.445  0.2384 -0.4415  0.4969
   14MOL   C136 3542   1.190   2.810   0.433 -0.2718 -0.1557 -1.0096
   14MOL   H137 3543   1.333   2.983   0.598 -1.3081 -1.3649 -2.0606
   14MOL   H138 3544   1.354   2.877   0.721  0.4163 -1.2620  0.4604
   14MOL   H139 3545   1.463   2.703   0.620  0.1139 -1.9373 -1.3813
   14MOL   H140 3546   1.191   2.556   0.436 -0.4223  3.0905 -0.5315
   14MOL   H141 3547   1.360   2.525   0.519 -0.5616 -1.4434  0.4797
   14MOL   H142 3548   1.332   2.571   0.342 -2.1397  1.0795 -0.4234
   14MOL   H143 3549   1.159   2.767   0.338 -2.6657 -1.9079  0.4864
   14MOL   H144 3550   1.222   2.912   0.414  0.3427 -0.1601 -0.0219
   14MOL   C145 3551   1.058   2.807   0.514  0.3620  0.4675 -0.7004
   14MOL   C146 3552   0.940   2.891   0.471  0.4200 -0.4589  1.0321
   14MOL   C147 3553   0.823   2.896   0.542  0.3327 -0.1242 -0.0436
   14MOL   C148 3554   0.710   2.986   0.494  0.2987 -0.0905 -0.3654
   14MOL   C149 3555   0.795   2.816   0.670  0.3026 -0.1627  0.0923
   14MOL   H150 3556   1.084   2.845   0.613  0.5248 -1.0025 -0.1699
   14MOL   H151 3557   1.024   2.707   0.543 -1.0821  1.2113  0.2309
   14MOL   H152 3558   0.951   2.967   0.395 -0.8143 -0.0395  1.2587
   14MOL   H153 3559   0.758   3.058   0.428  3.0287 -1.4938 -0.0076
   14MOL   H154 3560   0.659   3.036   0.577  0.9427  0.2556 -0.1732
   14MOL   H155 3561   0.626   2.940   0.442  0.4104  1.3748 -1.8564
   14MOL   H156 3562   0.773   2.883   0.753  0.0051  2.2598 -1.8788
   14MOL   H157 3563   0.877   2.753   0.703 -0.5231 -2.0113 -1.2677
   14MOL   C158 3564   0.678   2.709   0.651  0.1601 -0.3746 -0.0130
   14MOL   C159 3565   0.675   2.616   0.774  0.1177 -0.0893  0.0989
   14MOL   C160 3566   0.565   2.573   0.840  0.6303  0.0810 -0.0305
   14MOL   C161 3567   0.424   2.616   0.815 -0.9272 -0.2736 -0.2053
   14MOL   C162 3568   0.587   2.474   0.954  0.0269  0.7609  0.7135
   14MOL   H163 3569   0.705   2.649   0.563  3.5242 -0.2505  0.8410
   14MOL   H164 3570   0.586   2.763   0.631 -0.0632 -1.0059 -0.7335
   14MOL   H165 3571   0.770   2.569   0.798  0.8247  1.4853  0.4340
   14MOL   H166 3572   0.417   2.664   0.717 -1.4150  0.3830  0.1463
   14MOL   H167 3573   0.396   2.699   0.879  1.7352 -0.4343  1.2396
   14MOL   H168 3574   0.354   2.532   0.814  0.5934 -1.6582  3.3307
   14MOL   H169 3575   0.692   2.446   0.959 -0.1873 -0.7755 -2.2580
   14MOL   H170 3576   0.542   2.388   0.904  1.7223  0.4716 -0.3386
   14MOL   C171 3577   0.533   2.501   1.091  0.2860 -0.0746 -0.2062
   14MOL   C172 3578   0.545   2.381   1.182  0.5798 -0.3757 -0.8506
   14MOL   C173 3579   0.534   2.374   1.315  0.7247 -1.0354 -0.4191
   14MOL   C174 3580   0.514   2.506   1.394  0.2794 -0.2906  0.1576
   14MOL   C175 3581   0.546   2.247   1.397 -0.3771  0.0491  0.6551
   14MOL   H176 3582   0.426   2.524   1.084  0.5054  0.3922 -2.3653
   14MOL   H177 3583   0.577   2.589   1.138  0.2622 -0.9076  1.4368
   14MOL   H178 3584   0.547   2.283   1.138  2.3176 -0.4460 -0.6448
   14MOL   H179 3585   0.499   2.589   1.325 -1.1288  0.3616  1.2299
   14MOL   H180 3586   0.606   2.520   1.451 -0.2286 -1.3954  1.2633
   14MOL   H181 3587   0.427   2.512   1.458 -0.0825  0.8455 -0.4244
   14MOL   H182 3588   0.564   2.163   1.331  0.6692  1.1711 -0.5176
   14MOL   H183 3589   0.453   2.232   1.452 -0.7147  2.2304  0.7326
   14MOL   C184 3590   0.668   2.233   1.488 -0.0198 -0.1844  0.2161
   14MOL   C185 3591   0.688   2.095   1.543 -0.8787  0.0992 -0.2238
   14MOL   C186 3592   0.805   2.063   1.614 -0.1345  0.0273 -0.3181
   14MOL   C187 3593   0.824   1.919   1.641  0.0348 -0.0588  0.0217
   14MOL   C188 3594   0.898   2.167   1.672 -0.1993  0.1415  0.1912
   14MOL   H189 3595   0.665   2.311   1.565  2.7594  2.4440 -2.2382
   14MOL   H190 3596   0.759   2.248   1.429 -1.8338  0.9925 -2.3428
   14MOL   H191 3597   0.608   2.026   1.521 -0.6583 -0.4139  0.5768
   14MOL   H192 3598   0.825   1.893   1.747  1.0667  1.2996  0.3577
   14MOL   H193 3599   0.906   1.873   1.586  0.7813  2.3726 -0.9597
   14MOL   H194 3600   0.736   1.871   1.598 -0.3692  0.8250 -0.1472
   14MOL   H195 3601   0.909   2.236   1.588  1.5290  0.1544  0.4153
   14MOL   H196 3602   0.993   2.118   1.693  0.5732 -0.1877 -3.6641
   14MOL   C197 3603   0.845   2.229   1.805  0.1762 -0.5242  0.8998
   14MOL   C198 3604   0.942   2.334   1.853 -0.0529  0.0296  0.4588
   14MOL   C199 3605   1.024   2.327   1.957 -0.4273 -0.1678 -0.1404
   14MOL   C200 3606   1.121   2.439   1.990  0.1477 -0.3167  0.1925
   14MOL   C201 3607   1.051   2.198   2.041  0.2034  0.2786  0.3825
   14MOL   H202 3608   0.828   2.157   1.885 -0.8011  1.1257  2.2154
   14MOL   H203 3609   0.752   2.277   1.773  0.3220 -1.6369 -1.2539
   14MOL   H204 3610   0.935   2.428   1.799 -1.3622 -0.7089 -0.6816
   14MOL   H205 3611   1.079   2.537   1.969 -0.6658 -0.5756  0.5792
   14MOL   H206 3612   1.211   2.423   1.931 -0.3445 -1.7320 -0.1962
   14MOL   H207 3613   1.161   2.436   2.092  1.1838  0.2178 -0.1950
   14MOL   H208 3614   0.967   2.129   2.042  1.4420 -1.2898 -0.8647
   14MOL   H209 3615   1.070   2.219   2.146 -0.8741 -1.1986  0.8900
   14MOL   C210 3616   1.178   2.122   2.007  0.1574  0.5206 -0.6531
   14MOL   C211 3617   1.159   2.027   1.895  0.1186 -0.0510 -0.0020
   14MOL   C212 3618   1.244   1.988   1.803 -0.6013 -0.4640 -0.1657
   14MOL   C213 3619   1.207   1.881   1.701 -0.0769 -0.0452 -0.6056
   14MOL   C214 3620   1.387   2.032   1.800 -0.1676 -0.0785 -0.3795
   14MOL   H215 3621   1.220   2.070   2.093 -0.3395  0.4352 -0.4561
   14MOL   H216 3622   1.247   2.203   1.984  1.4764 -0.0587  1.2051
   14MOL   H217 3623   1.061   1.981   1.901 -0.4516  1.0325 -0.7536
   14MOL   H218 3624   1.260   1.792   1.735  1.4693  1.7647  1.9013
   14MOL   H219 3625   1.239   1.905   1.599  0.9807 -0.2848 -0.3371
   14MOL   H220 3626   1.100   1.858   1.696  0.0791 -1.3054  1.2054
   14MOL   H221 3627   1.459   1.952   1.783 -0.0752  0.1573 -1.1100
   14MOL   H222 3628   1.414   2.089   1.889 -1.4165  1.1817 -0.7827
   14MOL   C223 3629   1.422   2.134   1.687 -0.4264 -0.6652 -0.3635
   14MOL   C224 3630   1.560   2.200   1.688  0.1898  0.5673 -0.0039
   14MOL   C225 3631   1.587   2.322   1.638  0.2574  0.9954  0.3652
   14MOL   C226 3632   1.718   2.395   1.660  0.5192  0.4544  0.6412
   14MOL   C227 3633   1.479   2.398   1.563  0.3432 -0.1502 -0.0357
   14MOL   H228 3634   1.346   2.212   1.677  1.2466  1.2742  1.5832
   14MOL   H229 3635   1.428   2.078   1.593  1.8337 -0.4454 -0.3770
   14MOL   H230 3636   1.637   2.144   1.739 -0.5632  0.0463  0.5614
   14MOL   H231 3637   1.726   2.443   1.757 -1.4754  1.1963  0.4631
   14MOL   H232 3638   1.731   2.474   1.586  1.6860  0.2345  0.6122
   14MOL   H233 3639   1.808   2.334   1.654 -0.1246 -0.5854  1.2594
   14MOL   H234 3640   1.411   2.327   1.516  0.1010 -1.0192  1.6206
   14MOL   H235 3641   1.518   2.450   1.475 -2.1923  0.0910 -1.0586
   14MOL   C236 3642   1.405   2.505   1.646 -0.3482  0.8549  0.0976
   14MOL   C237 3643   1.478   2.635   1.665  0.2323 -0.0265  0.2485
   14MOL   C238 3644   1.536   2.681   1.779 -0.2482  0.5404 -0.1976
   14MOL   C239 3645   1.594   2.819   1.784 -0.4729 -0.3494 -0.5147
   14MOL   C240 3646   1.530   2.610   1.910  0.0954 -0.5036  0.6630
   14MOL   H241 3647   1.388   2.463   1.745  0.3957 -0.8989 -0.5054
   14MOL   H242 3648   1.311   2.531   1.598  0.9035  0.3506 -2.7411
   14MOL   H243 3649   1.490   2.703   1.581  0.2645 -0.4127 -0.0607
   14MOL   H244 3650   1.622   2.872   1.693  1.4496  1.9562  1.3755
   14MOL   H245 3651   1.682   2.800   1.845 -2.1628 -1.8731  1.5826
   14MOL   H246 3652   1.527   2.876   1.848 -0.5997 -0.3948 -0.6066
   14MOL   H247 3653   1.624   2.630   1.962  1.0387 -2.2301 -0.3266
   14MOL   H248 3654   1.522   2.502   1.898  2.8283 -0.7870  1.0949
   14MOL   C249 3655   1.417   2.669   1.998 -0.2243  0.2400  0.1528
   14MOL   C250 3656   1.406   2.587   2.123  0.4705 -0.2579  0.0913
   14MOL   C251 3657   1.321   2.608   2.225  0.2929  0.1529 -0.1090
   14MOL   C252 3658   1.319   2.520   2.351  0.2193  0.0989  0.1743
   14MOL   C253 3659   1.229   2.733   2.243  0.0379 -0.2511  0.2585
   14MOL   H254 3660   1.322   2.660   1.945 -1.0750  2.0783  1.2886
   14MOL   H255 3661   1.428   2.776   2.014  0.5734  0.0005  1.3053
   14MOL   H256 3662   1.469   2.500   2.112 -0.5971 -0.9380 -0.6384
   14MOL   H257 3663   1.367   2.424   2.328  0.0651 -0.3297  1.5850
   14MOL   H258 3664   1.223   2.472   2.371  0.1843 -0.0538 -0.3579
   14MOL   H259 3665   1.374   2.569   2.431 -0.1755  0.7039  0.0741
   14MOL   H260 3666   1.202   2.773   2.146 -0.2129  0.3047  0.5569
   14MOL   H261 3667   1.289   2.813   2.287  0.2085  1.8502 -3.5662
   14MOL   H262 3668   1.138   2.700   2.293 -1.6743  2.1937 -1.1130
   15MOL     C1 3669   7.689   5.360   0.985 -0.0121 -0.3078  0.1545
   15MOL     C2 3670   7.656   5.500   0.942  0.2802  0.2865 -0.1066
   15MOL     C3 3671   7.568   5.580   1.000 -0.0175  0.0916  0.2173
   15MOL     C4 3672   7.549   5.716   0.934  0.3624 -0.0497  0.1715
   15MOL     C5 3673   7.496   5.545   1.127 -0.2583 -0.2742  0.0160
   15MOL     H6 3674   7.797   5.361   0.990 -0.0524 -0.0641  1.2167
   15MOL     H7 3675   7.657   5.328   1.084 -0.0853  0.6714  0.4617
   15MOL     H8 3676   7.711   5.539   0.857  0.5677  0.3853  0.1231
   15MOL     H9 3677   7.582   5.799   0.996  0.3227  0.7027 -0.8140
   15MOL    H10 3678   7.443   5.734   0.924 -0.0738 -0.9514  2.6074
   15MOL    H11 3679   7.601   5.716   0.839 -1.2224 -1.5848 -0.7235
   15MOL    H12 3680   7.467   5.440   1.119 -1.6224  0.1434 -0.8015
   15MOL    H13 3681   7.408   5.609   1.126  0.3182  0.5634 -3.2937
   15MOL    H14 3682   7.653   5.295   0.905  0.0994  0.1632 -0.2825
   15MOL    C15 3683   7.584   5.572   1.250  0.4720  0.3332 -0.0269
   15MOL    C16 3684   7.525   5.542   1.384  0.1640  0.3116 -0.1433
   15MOL    C17 3685   7.577   5.464   1.479 -0.0753 -0.3837  0.3283
   15MOL    C18 3686   7.500   5.445   1.607 -0.8182 -0.2151 -0.2965
   15MOL    C19 3687   7.713   5.401   1.473 -0.5676  0.0052  0.3248
   15MOL    H20 3688   7.606   5.678   1.244  1.7290  0.1831  1.5873
   15MOL    H21 3689   7.682   5.526   1.238  0.7857  0.9803  0.0199
   15MOL    H22 3690   7.430   5.589   1.401 -0.2279 -0.8386  0.8926
   15MOL    H23 3691   7.480   5.338   1.601  1.2444 -0.5757 -1.2512
   15MOL    H24 3692   7.397   5.483   1.607 -1.1716 -1.1425 -1.4951
   15MOL    H25 3693   7.549   5.480   1.698 -2.2172  0.6594  0.1488
   15MOL    H26 3694   7.741   5.370   1.372  2.6770 -0.5008  1.3104
   15MOL    H27 3695   7.724   5.309   1.531  0.0455 -1.2935 -1.8042
   15MOL    C28 3696   7.814   5.504   1.531  0.3034  0.3791 -0.2028
   15MOL    C29 3697   0.076   5.450   1.540 -0.1465  0.4958  0.3455
   15MOL    C30 3698   0.180   5.474   1.461 -0.1127  0.2496 -0.6807
   15MOL    C31 3699   0.306   5.407   1.508  0.1620  0.6681  0.1078
   15MOL    C32 3700   0.180   5.539   1.327  0.1299  0.3402 -0.3138
   15MOL    H33 3701   7.773   5.537   1.627  0.0250  2.9978 -1.1841
   15MOL    H34 3702   7.820   5.599   1.477 -1.6557  0.1327 -0.8884
   15MOL    H35 3703   0.093   5.384   1.624  0.0690 -2.1739 -1.7372
   15MOL    H36 3704   0.315   5.367   1.609  0.7648 -1.1283 -0.6401
   15MOL    H37 3705   0.391   5.475   1.495 -0.4135  1.3528 -0.1685
   15MOL    H38 3706   0.324   5.327   1.436 -2.8291 -1.5439  1.6854
   15MOL    H39 3707   0.264   5.607   1.319 -0.9753  1.8109  0.4201
   15MOL    H40 3708   0.086   5.592   1.312 -0.7572 -0.9873  0.4163
   15MOL    C41 3709   0.189   5.440   1.210  0.6988 -0.8062  0.6660
   15MOL    C42 3710   0.183   5.507   1.078 -0.1689 -0.0882  0.0781
   15MOL    C43 3711   0.206   5.440   0.963  1.4936 -0.3347 -0.0348
   15MOL    C44 3712   0.202   5.513   0.831  0.1958 -0.1151  0.1016
   15MOL    C45 3713   0.209   5.291   0.953  0.0753 -0.4548 -0.7979
   15MOL    H46 3714   0.099   5.382   1.231 -0.9805  1.9184  1.2232
   15MOL    H47 3715   0.272   5.371   1.223  0.9119 -0.7546 -0.4136
   15MOL    H48 3716   0.165   5.614   1.081 -0.3929 -0.1092 -0.4423
   15MOL    H49 3717   0.122   5.473   0.769  1.4716 -0.7661 -1.1523
   15MOL    H50 3718   0.302   5.504   0.790  0.0979 -0.7511 -0.0023
   15MOL    H51 3719   0.177   5.618   0.842  1.1241  0.0688  0.5508
   15MOL    H52 3720   0.128   5.262   0.886 -0.4906 -1.9369  0.5001
   15MOL    H53 3721   0.178   5.246   1.047  0.3980  2.2862  0.6780
   15MOL    C54 3722   0.340   5.228   0.899  0.1865  0.7161 -0.1682
   15MOL    C55 3723   0.336   5.083   0.870  0.6898  0.2612 -0.2700
   15MOL    C56 3724   0.305   5.023   0.754  0.6752 -0.3608  0.0130
   15MOL    C57 3725   0.291   4.873   0.751 -0.1452  0.1368 -0.0490
   15MOL    C58 3726   0.262   5.103   0.629 -0.3862 -0.5183 -0.3242
   15MOL    H59 3727   0.425   5.250   0.964  0.1236  0.3949  0.0251
   15MOL    H60 3728   0.356   5.274   0.802 -0.0251  2.1835  0.4885
   15MOL    H61 3729   0.340   5.030   0.964 -2.4445 -1.4969 -1.0519
   15MOL    H62 3730   0.191   4.841   0.724  0.7417 -0.0320 -3.2685
   15MOL    H63 3731   0.314   4.824   0.846  0.7180  1.2217  0.3115
   15MOL    H64 3732   0.369   4.826   0.690  1.6992  0.1469  2.2072
   15MOL    H65 3733   0.291   5.045   0.541 -0.5751  1.4274 -1.7005
   15MOL    H66 3734   0.294   5.207   0.624 -0.2280 -0.5875 -0.7916
   15MOL    C67 3735   0.107   5.103   0.606  0.3187 -0.2603  0.5153
   15MOL    C68 3736   0.065   5.182   0.482 -0.3884  0.6542  0.5644
   15MOL    C69 3737   0.021   5.135   0.363  0.0789 -0.1448 -0.2983
   15MOL    C70 3738   0.005   5.224   0.239 -0.6063 -0.6156 -0.4032
   15MOL    C71 3739   7.866   4.985   0.335  0.4680 -0.8055 -0.1796
   15MOL    H72 3740   0.052   5.132   0.696  0.0158  0.6816  0.0307
   15MOL    H73 3741   0.070   5.001   0.594 -3.0109  0.9118  0.2380
   15MOL    H74 3742   0.101   5.283   0.489  1.6035  0.1358 -1.5799
   15MOL    H75 3743   0.023   5.326   0.273  0.3283 -0.3948 -1.5320
   15MOL    H76 3744   7.785   5.215   0.196 -0.6849  1.6693 -0.7564
   15MOL    H77 3745   0.068   5.196   0.154  1.7503 -0.3090  1.1802
   15MOL    H78 3746   7.803   4.977   0.246  0.6039 -1.2328 -0.2377
   15MOL    H79 3747   7.804   4.943   0.414 -2.0903  1.5659 -0.8648
   15MOL    C80 3748   0.115   4.900   0.301 -0.2466 -0.7134  0.1016
   15MOL    C81 3749   0.080   4.758   0.258  0.8299 -0.2107 -1.0573
   15MOL    C82 3750   0.156   4.649   0.280  0.1142 -0.0989  0.9107
   15MOL    C83 3751   0.289   4.653   0.365  0.0566 -0.4302 -0.5481
   15MOL    C84 3752   0.113   4.517   0.231 -0.2117  0.2613  0.1396
   15MOL    H85 3753   0.173   4.896   0.393  0.3312  1.4497 -0.1284
   15MOL    H86 3754   0.186   4.938   0.227  0.1195 -3.1265 -0.8461
   15MOL    H87 3755   7.870   4.749   0.197  1.0927 -0.4046 -1.4205
   15MOL    H88 3756   0.311   4.752   0.405 -1.8373 -1.5433  3.4890
   15MOL    H89 3757   0.376   4.618   0.309 -0.5163 -0.6667 -1.3030
   15MOL    H90 3758   0.274   4.582   0.446 -0.8528 -3.2876 -3.1546
   15MOL    H91 3759   0.195   4.467   0.181  0.8173  1.0313  1.0351
   15MOL    H92 3760   0.047   4.518   0.145 -1.8423 -0.6524  1.3494
   15MOL    C93 3761   0.080   4.418   0.343  0.5333 -0.1813 -0.7683
   15MOL    C94 3762   0.014   4.296   0.292  0.3091 -0.6935  0.1066
   15MOL    C95 3763   0.087   4.186   0.255 -0.7416  0.1651 -0.9422
   15MOL    C96 3764   0.015   4.062   0.202  0.0484  0.3170 -0.0533
   15MOL    C97 3765   0.239   4.177   0.252  0.5037  0.0428  0.2226
   15MOL    H98 3766   0.014   4.469   0.414  0.5334 -0.1096 -0.8183
   15MOL    H99 3767   0.171   4.393   0.397 -0.4395 -0.8316  0.5970
   15MOL   H100 3768   7.786   4.311   0.286  0.4293  0.6947  1.1298
   15MOL   H101 3769   0.002   4.085   0.096  1.8173 -1.0028 -0.5883
   15MOL   H102 3770   0.076   3.972   0.205 -0.8794 -0.2889  0.8478
   15MOL   H103 3771   7.794   4.040   0.238  0.1710 -1.5722 -0.7917
   15MOL   H104 3772   0.283   4.273   0.280 -1.3126  0.3438  2.1658
   15MOL   H105 3773   0.279   4.155   0.153 -0.0280 -1.9773  0.4240
   15MOL   C106 3774   0.285   4.065   0.347 -0.1157  0.0013 -0.5133
   15MOL   C107 3775   0.430   4.087   0.386 -0.1893 -0.5311  0.0705
   15MOL   C108 3776   0.496   4.011   0.477 -0.2733  0.1181 -0.9035
   15MOL   C109 3777   0.441   3.878   0.539 -0.7734 -0.1473 -0.4846
   15MOL   C110 3778   0.633   4.057   0.525  1.0689  0.2247 -0.4037
   15MOL   H111 3779   0.274   3.968   0.298 -1.0652 -0.1447 -0.0303
   15MOL   H112 3780   0.229   4.056   0.441 -0.5746 -1.0656 -0.8790
   15MOL   H113 3781   0.484   4.168   0.339 -0.6290 -0.1387  0.2383
   15MOL   H114 3782   0.434   3.900   0.645 -0.5468 -0.2008 -0.4595
   15MOL   H115 3783   0.342   3.855   0.499 -0.4666 -1.2614 -0.6216
   15MOL   H116 3784   0.506   3.794   0.518 -2.6205 -1.0660 -2.7854
   15MOL   H117 3785   0.628   4.057   0.634  1.1548  0.8794 -0.3989
   15MOL   H118 3786   0.638   4.163   0.502  3.6720  0.4243  0.8128
   15MOL   C119 3787   0.750   3.982   0.461  0.2733 -0.4790  0.7277
   15MOL   C120 3788   0.875   4.041   0.510 -0.2148  0.0097 -0.4002
   15MOL   C121 3789   0.966   4.118   0.449  0.4535  0.3903  0.0799
   15MOL   C122 3790   1.093   4.171   0.518  0.5790 -0.7239  0.6712
   15MOL   C123 3791   0.952   4.154   0.306  0.2096 -0.1419  0.2993
   15MOL   H124 3792   0.735   3.990   0.353  0.0438  0.1195  0.7978
   15MOL   H125 3793   0.735   3.876   0.478 -1.6179 -0.4014 -0.2384
   15MOL   H126 3794   0.881   4.018   0.615 -0.6709 -1.2856 -0.6478
   15MOL   H127 3795   1.094   4.279   0.500 -3.0021 -0.7636 -0.2690
   15MOL   H128 3796   1.179   4.126   0.468 -0.9858 -1.6819 -1.2745
   15MOL   H129 3797   1.086   4.158   0.626  0.6622 -2.0246  0.5286
   15MOL   H130 3798   0.979   4.257   0.283 -0.4790 -0.7714 -3.6905
   15MOL   H131 3799   0.852   4.135   0.266 -0.2721 -1.7770  2.2307
   15MOL   C132 3800   1.050   4.073   0.215 -0.1397 -0.0936 -0.7037
   15MOL   C133 3801   1.016   4.053   0.061 -0.2423  0.6175 -0.1655
   15MOL   C134 3802   1.088   4.097   7.833  0.1601 -0.1766 -0.4714
   15MOL   C135 3803   1.051   4.070   7.690 -0.5021  0.7932  0.0703
   15MOL   C136 3804   1.223   4.176   7.848 -0.4243  0.2200 -0.4262
   15MOL   H137 3805   1.042   3.970   0.251  1.0866 -0.3325 -1.1047
   15MOL   H138 3806   1.151   4.099   0.244 -0.4333 -1.2288  1.5159
   15MOL   H139 3807   0.919   4.005   0.054 -0.8295  1.0020  4.0703
   15MOL   H140 3808   0.977   3.990   7.689  0.0887  0.2534 -0.1600
   15MOL   H141 3809   1.128   4.034   7.623 -2.5121  2.2551 -3.1227
   15MOL   H142 3810   1.010   4.158   7.640  0.9526  0.7858 -1.1587
   15MOL   H143 3811   1.217   4.217   0.070  0.7547 -1.4223  0.3388
   15MOL   H144 3812   1.232   4.256   7.775  1.5734  0.4080 -0.0327
   15MOL   C145 3813   1.356   4.085   7.839  0.5058  0.0063 -0.1529
   15MOL   C146 3814   1.482   4.163   7.828 -0.8448 -0.5064  0.2402
   15MOL   C147 3815   1.599   4.125   7.776  0.2310 -0.1915  0.2965
   15MOL   C148 3816   1.722   4.216   7.779  0.2773  0.4871 -0.3354
   15MOL   C149 3817   1.628   4.007   7.694  0.3202  0.0842  0.1198
   15MOL   H150 3818   1.342   4.005   7.767  0.7878 -2.4085  2.4149
   15MOL   H151 3819   1.362   4.017   0.045  0.5604  0.4116  0.1703
   15MOL   H152 3820   1.478   4.253   0.009 -2.2133 -0.1326 -0.3926
   15MOL   H153 3821   1.808   4.164   7.821  2.0067  2.6322 -1.0937
   15MOL   H154 3822   1.700   4.304   7.839 -1.1914  0.7021 -1.1514
   15MOL   H155 3823   1.755   4.247   7.680  1.7367  2.3837  0.7155
   15MOL   H156 3824   1.577   3.927   7.746 -1.1645  2.4941  2.5419
   15MOL   H157 3825   1.733   3.980   7.686 -0.1007 -1.5184 -0.0382
   15MOL   C158 3826   1.570   4.030   7.556 -0.6363 -0.2320 -0.3150
   15MOL   C159 3827   1.583   3.900   7.476  0.0892  0.1479  0.4210
   15MOL   C160 3828   1.488   3.854   7.383 -0.2081 -0.5016 -0.9414
   15MOL   C161 3829   1.364   3.927   7.351  0.1417  0.8703 -0.4271
   15MOL   C162 3830   1.512   3.726   7.302 -0.1419  0.0652  0.2559
   15MOL   H163 3831   1.627   4.118   7.526 -1.7369  1.2659  1.8515
   15MOL   H164 3832   1.463   4.051   7.561  0.0078  3.6168 -1.2325
   15MOL   H165 3833   1.670   3.838   7.494 -0.5369 -1.1654 -0.9009
   15MOL   H166 3834   1.401   4.029   7.339 -2.3529  1.7494 -1.2280
   15MOL   H167 3835   1.297   3.934   7.436  0.6995  0.2855  0.0594
   15MOL   H168 3836   1.327   3.895   7.253  1.6126 -1.8032 -0.1390
   15MOL   H169 3837   1.613   3.690   7.323 -0.3087 -0.7315 -0.2687
   15MOL   H170 3838   1.530   3.762   7.200  0.9742  0.4756  0.5914
   15MOL   C171 3839   1.410   3.602   7.321 -0.1835  0.4062 -0.4096
   15MOL   C172 3840   1.460   3.490   7.225 -0.2749 -0.8180  0.0662
   15MOL   C173 3841   1.406   3.463   7.102 -0.1147  0.1471  0.6087
   15MOL   C174 3842   1.294   3.534   7.038 -0.2853 -0.1107  0.0729
   15MOL   C175 3843   1.458   3.337   7.018  1.1572 -0.0800 -0.6874
   15MOL   H176 3844   1.304   3.624   7.308 -1.4284 -3.6659  1.8852
   15MOL   H177 3845   1.415   3.573   7.426 -2.1087  2.2703  0.2318
   15MOL   H178 3846   1.543   3.429   7.257  1.5350  1.4317 -0.2010
   15MOL   H179 3847   1.198   3.489   7.065 -1.2463  2.3402  0.8788
   15MOL   H180 3848   1.292   3.532   6.929  1.1411  0.5655  0.0205
   15MOL   H181 3849   1.288   3.636   7.075  0.2284  1.3087 -3.6330
   15MOL   H182 3850   1.383   3.260   6.999  2.1543 -2.0907  2.8829
   15MOL   H183 3851   1.515   3.265   7.076 -0.1435 -2.1380 -1.8999
   15MOL   C184 3852   1.546   3.373   6.899  0.5182  0.2983 -0.1637
   15MOL   C185 3853   1.467   3.431   6.784 -0.3025  0.3796  0.0903
   15MOL   C186 3854   1.477   3.556   6.731 -0.3786 -0.9712  0.1649
   15MOL   C187 3855   1.381   3.592   6.620  0.4220 -0.0820  0.2883
   15MOL   C188 3856   1.586   3.654   6.767  0.0933 -0.1701 -0.6978
   15MOL   H189 3857   1.588   3.278   6.866  1.2240 -0.2777  2.2907
   15MOL   H190 3858   1.627   3.438   6.931  0.3586  0.5052 -0.1816
   15MOL   H191 3859   1.381   3.372   6.757  0.7664 -0.8569 -0.6472
   15MOL   H192 3860   1.290   3.532   6.622  0.3769  0.0336  1.6714
   15MOL   H193 3861   1.438   3.584   6.527 -0.3228 -0.8026 -0.1188
   15MOL   H194 3862   1.365   3.700   6.623  1.9387  0.1269  1.6855
   15MOL   H195 3863   1.589   3.728   6.687  0.7915  2.3026  1.5420
   15MOL   H196 3864   1.686   3.611   6.778 -0.1016  0.0611  2.3586
   15MOL   C197 3865   1.560   3.735   6.897  0.6390  0.3806 -0.3324
   15MOL   C198 3866   1.661   3.844   6.918 -0.5502  0.2609 -0.5264
   15MOL   C199 3867   1.650   3.976   6.885 -0.6267 -0.1798  0.3861
   15MOL   C200 3868   1.760   4.077   6.908 -0.2059 -0.2482  0.4424
   15MOL   C201 3869   1.523   4.020   6.816 -0.3971  0.1969 -0.0541
   15MOL   H202 3870   1.562   3.675   6.988  2.4146  1.8107  0.6038
   15MOL   H203 3871   1.465   3.785   6.879 -0.3780 -0.6939  1.9326
   15MOL   H204 3872   1.757   3.811   6.956 -1.1084 -0.1594  0.5511
   15MOL   H205 3873   1.831   4.023   6.971  1.4334  0.0980 -1.0873
   15MOL   H206 3874   1.721   4.166   6.957  0.0387  1.8894 -3.0966
   15MOL   H207 3875   1.816   4.108   6.820  1.2906 -2.7367  0.4803
   15MOL   H208 3876   1.471   3.949   6.753 -2.1003  2.8183 -1.7199
   15MOL   H209 3877   1.554   4.101   6.750  0.9811  0.6005  1.0662
   15MOL   C210 3878   1.427   4.096   6.911 -0.7168  0.2806  0.4401
   15MOL   C211 3879   1.298   4.149   6.849  0.4972 -0.3514 -1.2077
   15MOL   C212 3880   1.181   4.158   6.922  0.1055  0.2281  0.4910
   15MOL   C213 3881   1.056   4.212   6.850  0.5303 -0.2008 -0.1093
   15MOL   C214 3882   1.156   4.121   7.065  0.5726 -0.2860  0.0550
   15MOL   H215 3883   1.491   4.174   6.952  0.1850  0.7965 -1.8976
   15MOL   H216 3884   1.407   4.028   6.994  0.7038  1.3602  1.7108
   15MOL   H217 3885   1.294   4.162   6.742  0.8703  0.4692 -1.1239
   15MOL   H218 3886   1.004   4.277   6.920  0.1569  1.1064 -1.5615
   15MOL   H219 3887   0.983   4.133   6.834 -0.3993  0.8736 -1.3100
   15MOL   H220 3888   1.082   4.260   6.755 -0.5973 -0.5042 -0.5748
   15MOL   H221 3889   1.237   4.059   7.104  1.1159  0.2174 -0.2561
   15MOL   H222 3890   1.070   4.055   7.077 -0.4154  1.0469  0.3269
   15MOL   C223 3891   1.158   4.248   7.147 -0.0025  0.1498 -0.1774
   15MOL   C224 3892   1.286   4.332   7.138  0.1082  1.4779  0.1124
   15MOL   C225 3893   1.289   4.464   7.146  0.5363  0.2662 -0.3148
   15MOL   C226 3894   1.418   4.537   7.147 -0.8975  0.8812  0.0097
   15MOL   C227 3895   1.167   4.552   7.167  0.0945 -0.2631 -0.2282
   15MOL   H228 3896   1.139   4.214   7.249 -0.1894  2.9482  0.7885
   15MOL   H229 3897   1.065   4.303   7.131  0.5051  0.4029 -2.4522
   15MOL   H230 3898   1.381   4.281   7.136 -1.7243 -2.0269 -2.5454
   15MOL   H231 3899   1.497   4.478   7.100  0.9211  1.8612  1.7574
   15MOL   H232 3900   1.449   4.573   7.245 -1.1972 -1.9780  1.2248
   15MOL   H233 3901   1.396   4.624   7.086 -1.5453  1.0235  0.4361
   15MOL   H234 3902   1.192   4.639   7.228  2.5096 -0.6745 -0.5955
   15MOL   H235 3903   1.099   4.498   7.233 -0.8136  0.3511 -0.6574
   15MOL   C236 3904   1.091   4.595   7.040 -0.2065 -0.3874  0.4789
   15MOL   C237 3905   0.993   4.699   7.074 -0.2004 -0.3895 -0.4739
   15MOL   C238 3906   0.968   4.819   7.022  0.0595  0.1447 -0.0692
   15MOL   C239 3907   0.845   4.902   7.072 -0.0902  0.0170 -0.0296
   15MOL   C240 3908   1.037   4.882   6.900 -0.0257 -0.3626  0.1655
   15MOL   H241 3909   1.037   4.509   7.000 -0.6609 -0.5661  1.4779
   15MOL   H242 3910   1.152   4.637   6.960 -0.3514 -0.3734  0.3757
   15MOL   H243 3911   0.944   4.673   7.166  0.2596  2.7881  0.7278
   15MOL   H244 3912   0.835   4.858   7.171 -1.9877  2.2413  0.8430
   15MOL   H245 3913   0.760   4.902   7.004  0.7632  0.0302 -1.0939
   15MOL   H246 3914   0.884   5.001   7.095 -1.8764  0.1803  2.5678
   15MOL   H247 3915   0.969   4.932   6.831 -2.9523 -1.1551  2.3391
   15MOL   H248 3916   1.080   4.796   6.848 -0.3309 -1.2879  1.4029
   15MOL   C249 3917   1.149   4.978   6.946 -0.2937  0.4328 -0.4371
   15MOL   C250 3918   1.220   5.040   6.831 -0.0317  0.6756  0.0250
   15MOL   C251 3919   1.291   5.155   6.830  0.7163  0.3007 -0.4610
   15MOL   C252 3920   1.359   5.212   6.704  0.2526 -0.1385  0.0408
   15MOL   C253 3921   1.303   5.249   6.951  0.0661 -0.2018 -0.8314
   15MOL   H254 3922   1.219   4.920   7.007 -0.3577  0.1215 -0.6619
   15MOL   H255 3923   1.101   5.059   7.000 -0.5231 -0.0384  0.0646
   15MOL   H256 3924   1.217   4.982   6.740 -2.2680  0.4735  0.1966
   15MOL   H257 3925   1.301   5.295   6.663 -0.2662  0.3148  1.6226
   15MOL   H258 3926   1.386   5.133   6.635  0.4763  0.5385 -0.6472
   15MOL   H259 3927   1.447   5.270   6.731  0.6931 -0.6185 -0.3686
   15MOL   H260 3928   1.245   5.220   7.039 -0.2632 -0.5739 -1.1734
   15MOL   H261 3929   1.264   5.342   6.909  0.5045 -0.5704 -2.0666
   15MOL   H262 3930   1.405   5.257   6.987 -0.7683  1.0984  1.3795
   16MOL     C1 3931   1.154   2.190   1.447 -0.1220 -0.0520  0.1757
   16MOL     C2 3932   1.053   2.233   1.343  0.0810  0.5459  0.4013
   16MOL     C3 3933   1.025   2.352   1.292  0.4940  0.1201  0.6957
   16MOL     C4 3934   0.916   2.377   1.193  0.5155  0.2510  0.2725
   16MOL     C5 3935   1.102   2.473   1.330 -0.0954 -0.1024  0.9388
   16MOL     H6 3936   1.110   2.102   1.493 -2.5910  1.0206 -0.0079
   16MOL     H7 3937   1.244   2.158   1.394 -0.8699 -2.0479  0.1000
   16MOL     H8 3938   1.002   2.151   1.294  0.1052  1.0946 -0.5542
   16MOL     H9 3939   0.844   2.431   1.254  0.1895  0.9816 -0.7574
   16MOL    H10 3940   0.874   2.278   1.175  2.1576 -0.5378  0.6874
   16MOL    H11 3941   0.939   2.429   1.100  0.7466  3.2004  1.9335
   16MOL    H12 3942   1.119   2.527   1.237  0.4347 -2.0286 -0.1004
   16MOL    H13 3943   1.204   2.443   1.353 -0.2321 -1.9452 -0.7058
   16MOL    H14 3944   1.166   2.274   1.516 -0.3175 -0.3534  0.5769
   16MOL    C15 3945   1.033   2.561   1.445  0.5310  0.0657 -0.4545
   16MOL    C16 3946   1.099   2.697   1.446 -0.2162 -0.7358 -0.6145
   16MOL    C17 3947   1.113   2.769   1.555 -0.6469  0.3303 -0.6299
   16MOL    C18 3948   1.175   2.907   1.543  0.3146 -0.3906  0.0871
   16MOL    C19 3949   1.079   2.725   1.702 -0.5229  0.2550  0.8601
   16MOL    H20 3950   1.059   2.503   1.534  0.3664  0.8857  0.1303
   16MOL    H21 3951   0.924   2.561   1.445  0.5209  1.3676 -1.9934
   16MOL    H22 3952   1.111   2.742   1.349 -0.0987  0.0881 -0.2247
   16MOL    H23 3953   1.120   2.988   1.591 -1.3181 -0.1659 -2.1104
   16MOL    H24 3954   1.187   2.942   1.441  0.7320  0.6199  0.4735
   16MOL    H25 3955   1.275   2.914   1.585  0.9618  0.2274 -1.5425
   16MOL    H26 3956   1.165   2.753   1.762 -0.6931 -1.4044  1.8894
   16MOL    H27 3957   1.073   2.617   1.704 -0.4336  0.2710  2.0932
   16MOL    C28 3958   0.950   2.784   1.762 -0.5181 -0.0974 -0.2525
   16MOL    C29 3959   0.823   2.710   1.725  0.4546 -0.6327 -0.4016
   16MOL    C30 3960   0.729   2.657   1.807  0.6182  0.0002 -0.2061
   16MOL    C31 3961   0.608   2.581   1.758 -0.5104 -0.3454 -0.2534
   16MOL    C32 3962   0.741   2.656   1.959  0.0621  0.2584 -0.2559
   16MOL    H33 3963   0.933   2.891   1.751 -0.0998 -0.0376 -0.3234
   16MOL    H34 3964   0.942   2.765   1.869  4.8593  1.9420  0.6530
   16MOL    H35 3965   0.810   2.715   1.618  1.7015 -1.6231 -0.6088
   16MOL    H36 3966   0.582   2.593   1.653  1.6275  1.6832 -0.5975
   16MOL    H37 3967   0.522   2.625   1.809 -0.9690 -0.0707 -1.2487
   16MOL    H38 3968   0.619   2.477   1.788  0.2655 -0.0481  0.5156
   16MOL    H39 3969   0.838   2.631   2.001 -0.4480 -2.4737 -0.6311
   16MOL    H40 3970   0.692   2.568   2.000 -0.5470  0.3895 -0.6986
   16MOL    C41 3971   0.685   2.785   2.019 -0.3957 -1.3710  0.1072
   16MOL    C42 3972   0.664   2.782   2.171  0.4878  0.1895  0.3493
   16MOL    C43 3973   0.553   2.766   2.241  0.5193 -0.2457  0.3304
   16MOL    C44 3974   0.548   2.777   2.392  0.3191 -0.2668  0.0760
   16MOL    C45 3975   0.420   2.733   2.168 -0.2242  0.0740  0.0244
   16MOL    H46 3976   0.591   2.819   1.977  0.5076 -0.3635 -1.1249
   16MOL    H47 3977   0.750   2.870   2.001 -3.2655  0.7352 -0.7136
   16MOL    H48 3978   0.757   2.786   2.228  1.6622 -2.6455 -1.2574
   16MOL    H49 3979   0.645   2.808   2.428 -0.0565 -0.3470  1.1759
   16MOL    H50 3980   0.514   2.686   2.442 -2.8820  1.2702  0.8396
   16MOL    H51 3981   0.471   2.852   2.406  0.6133 -0.3949  2.5884
   16MOL    H52 3982   0.374   2.660   2.234  0.3940  0.7978  1.2838
   16MOL    H53 3983   0.427   2.677   2.075  1.9944  0.1675  0.1076
   16MOL    C54 3984   0.315   2.848   2.171 -0.0514 -0.2744 -0.1606
   16MOL    C55 3985   0.347   2.955   2.073 -0.3744 -0.0256 -0.7347
   16MOL    C56 3986   0.408   3.073   2.095  0.0217  0.5234  0.6429
   16MOL    C57 3987   0.445   3.169   1.975 -0.4109 -0.5247 -0.5633
   16MOL    C58 3988   0.429   3.131   2.234  0.2580  0.8173  0.2909
   16MOL    H59 3989   0.305   2.883   2.274  1.2564 -1.6523  0.4618
   16MOL    H60 3990   0.216   2.816   2.136 -0.3373  1.3210 -0.8349
   16MOL    H61 3991   0.330   2.912   1.975 -0.9553  0.9409 -1.0621
   16MOL    H62 3992   0.554   3.179   1.967 -0.1672 -2.8239 -0.3395
   16MOL    H63 3993   0.401   3.267   1.994  1.1033  0.2099 -0.7120
   16MOL    H64 3994   0.413   3.133   1.878 -2.3635 -2.4005  0.7317
   16MOL    H65 3995   0.392   3.068   2.315 -0.8856  1.5367  0.3413
   16MOL    H66 3996   0.370   3.223   2.233 -0.7563  0.1758 -0.0764
   16MOL    C67 3997   0.574   3.175   2.263 -0.9110 -0.4765  0.0306
   16MOL    C68 3998   0.577   3.273   2.375 -0.0090  0.4583 -0.5871
   16MOL    C69 3999   0.616   3.250   2.506 -1.0939 -0.2571  0.5446
   16MOL    C70 4000   0.638   3.372   2.604 -0.1752  0.6024  0.3899
   16MOL    C71 4001   0.650   3.111   2.560 -0.8156 -0.2469 -0.8112
   16MOL    H72 4002   0.612   3.231   2.178 -1.1419  1.0145  0.8913
   16MOL    H73 4003   0.635   3.086   2.277  0.4877  0.6712  1.3256
   16MOL    H74 4004   0.559   3.376   2.345  1.0052  1.3433  1.7433
   16MOL    H75 4005   0.746   3.388   2.603 -0.1676  0.6317  1.1975
   16MOL    H76 4006   0.620   3.351   2.709 -0.9836 -0.4654  0.0575
   16MOL    H77 4007   0.590   3.463   2.568  0.9124  0.8016 -0.6001
   16MOL    H78 4008   0.626   3.034   2.487  2.0479  1.2992 -3.4982
   16MOL    H79 4009   0.588   3.099   2.649 -2.5370  0.6832 -1.8570
   16MOL    C80 4010   0.792   3.092   2.611 -0.0039  0.3716 -0.2368
   16MOL    C81 4011   0.836   2.943   2.606  0.5916  0.0563 -0.3151
   16MOL    C82 4012   0.873   2.871   2.712  0.3354  0.0627  0.2761
   16MOL    C83 4013   0.874   2.923   2.857 -0.2146  0.3275  0.3234
   16MOL    C84 4014   0.931   2.732   2.695  0.1594  0.3438  0.3114
   16MOL    H85 4015   0.806   3.134   2.711 -1.4506 -0.3106  0.2584
   16MOL    H86 4016   0.867   3.134   2.543  0.3879  0.1890  0.0772
   16MOL    H87 4017   0.830   2.896   2.509  0.5000  1.1485 -0.8453
   16MOL    H88 4018   0.931   3.016   2.859  0.4470 -0.0961  2.0098
   16MOL    H89 4019   0.938   2.862   2.920 -0.7434  1.1558  1.6982
   16MOL    H90 4020   0.774   2.926   2.901 -1.0858  1.7112 -1.6805
   16MOL    H91 4021   0.900   2.686   2.601 -1.0810  0.3073  0.7323
   16MOL    H92 4022   0.895   2.655   2.764 -0.7893  1.1829  0.7661
   16MOL    C93 4023   1.080   2.728   2.691  0.7225  0.4280 -0.3242
   16MOL    C94 4024   1.136   2.591   2.653 -0.3483  0.3481  0.9314
   16MOL    C95 4025   1.230   2.521   2.723  0.2890 -0.2219  0.3579
   16MOL    C96 4026   1.291   2.395   2.665  0.4427 -0.8481  0.4365
   16MOL    C97 4027   1.301   2.571   2.849  0.2991 -0.2751 -1.0943
   16MOL    H98 4028   1.132   2.769   2.778 -1.0051  0.1671  0.8539
   16MOL    H99 4029   1.121   2.800   2.620  1.7511  0.7068  0.5505
   16MOL   H100 4030   1.081   2.548   2.571 -0.1689  0.2359  0.8688
   16MOL   H101 4031   1.224   2.345   2.595  0.1632 -0.2458  0.2740
   16MOL   H102 4032   1.384   2.431   2.621  1.1860 -0.0856  2.5671
   16MOL   H103 4033   1.310   2.336   2.755 -0.3596 -0.1006  1.1012
   16MOL   H104 4034   1.311   2.484   2.913  2.4527 -0.5585 -1.7699
   16MOL   H105 4035   1.247   2.650   2.902  0.0000 -0.9765 -0.3461
   16MOL   C106 4036   1.444   2.614   2.823  0.2599 -0.3262  0.5425
   16MOL   C107 4037   1.494   2.680   2.946  0.1727  0.0696 -0.0207
   16MOL   C108 4038   1.620   2.696   2.982  0.1367  0.1648 -0.6507
   16MOL   C109 4039   1.740   2.652   2.896 -0.1533 -0.5577 -0.3449
   16MOL   C110 4040   1.659   2.781   3.107  0.1427  0.1993  0.6677
   16MOL   H111 4041   1.447   2.685   2.739  1.2636  0.0724  0.9065
   16MOL   H112 4042   1.515   2.537   2.795  0.0968 -0.4853  0.5682
   16MOL   H113 4043   1.409   2.706   3.007 -0.0871 -0.9266  0.0517
   16MOL   H114 4044   1.807   2.598   2.964  0.3570 -1.2185 -1.3602
   16MOL   H115 4045   1.725   2.579   2.816  1.1360  0.2984 -1.3852
   16MOL   H116 4046   1.782   2.738   2.845 -1.4182 -0.4408 -1.2130
   16MOL   H117 4047   1.566   2.828   3.139  0.5840  0.6189  1.3404
   16MOL   H118 4048   1.714   2.871   3.079 -0.1884 -0.3678 -2.0155
   16MOL   C119 4049   1.716   2.701   3.222 -0.3561  0.3327  0.0401
   16MOL   C120 4050   1.709   2.778   3.351 -0.5593  0.0282  0.1250
   16MOL   C121 4051   1.796   2.870   3.404 -0.1895 -0.7831  0.0313
   16MOL   C122 4052   1.755   2.948   3.521 -0.1445 -0.6713 -0.0434
   16MOL   C123 4053   1.936   2.882   3.362  0.3026  0.7528 -0.2547
   16MOL   H124 4054   1.819   2.675   3.195  0.1918  0.9321  1.4713
   16MOL   H125 4055   1.679   2.601   3.243 -0.2479  0.1635 -0.5593
   16MOL   H126 4056   1.605   2.774   3.378 -0.4786  1.8298  0.7672
   16MOL   H127 4057   1.807   3.044   3.517 -1.1397 -0.1004  0.3940
   16MOL   H128 4058   1.800   2.904   3.610 -0.4658 -0.3543  0.2771
   16MOL   H129 4059   1.649   2.944   3.547 -0.2285 -1.3241 -0.4801
   16MOL   H130 4060   1.971   2.794   3.308  1.7974  1.3019 -0.2040
   16MOL   H131 4061   2.002   2.873   3.448  1.4606 -0.7979 -1.2782
   16MOL   C132 4062   1.959   3.009   3.267 -1.0750  0.1373  0.4206
   16MOL   C133 4063   2.098   3.016   3.195 -0.0439 -0.1509  0.3563
   16MOL   C134 4064   2.116   2.974   3.067  0.1489  0.3721  0.7901
   16MOL   C135 4065   2.258   2.975   3.003 -0.3418  0.3954  0.7202
   16MOL   C136 4066   2.013   2.912   2.979  0.3139 -0.2736 -0.3582
   16MOL   H137 4067   1.943   3.098   3.329  0.2340  0.9122 -0.3308
   16MOL   H138 4068   1.882   3.004   3.190 -1.0038  0.3846  0.3333
   16MOL   H139 4069   2.184   3.049   3.250  0.1710 -0.4779  0.2201
   16MOL   H140 4070   2.333   3.028   3.063 -2.8150  3.1506  1.4685
   16MOL   H141 4071   2.256   3.036   2.912  0.5961  0.6268  0.8485
   16MOL   H142 4072   2.295   2.876   2.978 -0.7647  1.0636 -2.7395
   16MOL   H143 4073   1.921   2.878   3.026  0.6522 -1.8344 -0.8064
   16MOL   H144 4074   2.063   2.820   2.951  0.0626 -0.4999 -0.0640
   16MOL   C145 4075   1.980   3.001   2.857 -0.1775 -0.3105 -0.3363
   16MOL   C146 4076   1.858   3.100   2.877  0.3828  0.3259  0.6326
   16MOL   C147 4077   1.839   3.215   2.807 -0.7155 -0.2352  0.0500
   16MOL   C148 4078   1.709   3.283   2.826 -0.3892 -0.1182  0.5991
   16MOL   C149 4079   1.935   3.270   2.696  0.2058 -0.3274  0.8906
   16MOL   H150 4080   1.935   2.938   2.780 -2.3782  0.0435  0.6222
   16MOL   H151 4081   2.063   3.065   2.828 -0.7091  1.0056  0.9773
   16MOL   H152 4082   1.792   3.054   2.949  0.5444 -2.3431 -0.8415
   16MOL   H153 4083   1.669   3.265   2.726 -1.0217 -0.1538  0.8579
   16MOL   H154 4084   1.725   3.387   2.854  1.3347 -0.8949  2.6502
   16MOL   H155 4085   1.637   3.245   2.899  0.1996 -1.3966  0.5445
   16MOL   H156 4086   2.026   3.211   2.691  1.1555  0.9905  2.1036
   16MOL   H157 4087   1.946   3.375   2.726  0.2169 -0.4192  1.2017
   16MOL   C158 4088   1.873   3.267   2.555 -0.1432 -0.3198  0.2857
   16MOL   C159 4089   1.967   3.321   2.450 -0.5385  0.3754 -0.3084
   16MOL   C160 4090   1.995   3.450   2.427 -0.4000  0.0093 -0.8050
   16MOL   C161 4091   1.938   3.558   2.518  0.1027 -0.0713 -0.4753
   16MOL   C162 4092   2.082   3.489   2.305 -0.1266  0.1715  0.7508
   16MOL   H163 4093   1.776   3.318   2.552  0.4676  0.9411  1.5339
   16MOL   H164 4094   1.830   3.170   2.529 -0.9191  0.5347 -1.7797
   16MOL   H165 4095   1.994   3.245   2.377 -0.4821 -1.1652  1.2770
   16MOL   H166 4096   1.887   3.630   2.455  1.3536  1.3560  0.1236
   16MOL   H167 4097   2.014   3.611   2.575  0.2938 -1.3061  0.4401
   16MOL   H168 4098   1.849   3.516   2.567  0.4111  0.6187  0.6973
   16MOL   H169 4099   2.137   3.400   2.275  1.2279  1.1097  0.3844
   16MOL   H170 4100   2.163   3.561   2.322 -0.4852  0.5434  0.8898
   16MOL   C171 4101   1.997   3.537   2.182  0.0094 -1.3443 -0.0343
   16MOL   C172 4102   2.076   3.567   2.056  0.1673  0.5208  0.5633
   16MOL   C173 4103   2.033   3.632   1.941  0.0619  0.1824 -1.4842
   16MOL   C174 4104   1.894   3.683   1.932 -0.2902 -0.4237  0.4719
   16MOL   C175 4105   2.118   3.627   1.818  0.1667 -0.2113  0.4780
   16MOL   H176 4106   1.939   3.629   2.195 -2.5832 -2.5759 -2.5587
   16MOL   H177 4107   1.923   3.463   2.152 -0.1673 -0.5144 -1.7060
   16MOL   H178 4108   2.175   3.525   2.064 -0.3355 -0.8614 -0.2614
   16MOL   H179 4109   1.843   3.712   2.024 -1.1767  0.7805 -0.3848
   16MOL   H180 4110   1.832   3.610   1.881  0.2385  0.3895 -1.3715
   16MOL   H181 4111   1.885   3.770   1.867  0.2262 -1.8968 -1.6132
   16MOL   H182 4112   2.052   3.606   1.734  0.8241 -0.9140  0.1263
   16MOL   H183 4113   2.190   3.545   1.825 -1.3863 -1.4827  2.2526
   16MOL   C184 4114   2.193   3.756   1.782 -0.2817  0.1614 -0.8911
   16MOL   C185 4115   2.278   3.758   1.658 -0.1484  0.1071  0.7552
   16MOL   C186 4116   2.254   3.811   1.537 -0.2548  0.1677  0.1060
   16MOL   C187 4117   2.367   3.817   1.440  0.7601  0.4249  0.2585
   16MOL   C188 4118   2.131   3.902   1.510 -0.0559 -0.2691 -0.0060
   16MOL   H189 4119   2.255   3.793   1.863 -2.3258 -0.1547  0.8497
   16MOL   H190 4120   2.122   3.839   1.775  1.9952  2.3196  0.6105
   16MOL   H191 4121   2.369   3.700   1.669  0.5991  0.8391 -1.2795
   16MOL   H192 4122   2.443   3.743   1.468 -1.0384 -1.3520  0.5649
   16MOL   H193 4123   2.399   3.920   1.430  0.1682  0.6100  0.2823
   16MOL   H194 4124   2.334   3.778   1.343  2.0081  2.5660 -1.0467
   16MOL   H195 4125   2.046   3.870   1.570 -0.3540  0.2498 -0.1548
   16MOL   H196 4126   2.102   3.882   1.407 -0.7875 -2.5201  0.6072
   16MOL   C197 4127   2.165   4.053   1.533  0.8259 -0.3475 -0.1333
   16MOL   C198 4128   2.045   4.145   1.531  0.3152 -0.0365  0.4243
   16MOL   C199 4129   1.978   4.188   1.639  0.1428 -0.1817  0.5592
   16MOL   C200 4130   1.866   4.292   1.629  0.8310 -0.5322 -0.0742
   16MOL   C201 4131   2.015   4.150   1.778 -0.3087  0.7408 -0.5143
   16MOL   H202 4132   2.230   4.077   1.450 -0.0946  0.7561 -0.5543
   16MOL   H203 4133   2.232   4.069   1.618  1.6400  0.0125 -0.8434
   16MOL   H204 4134   2.020   4.178   1.432 -2.5787 -0.1140  1.0734
   16MOL   H205 4135   1.896   4.384   1.679 -2.0815  0.5926 -0.2988
   16MOL   H206 4136   1.773   4.253   1.669 -0.1170 -0.8464 -2.5187
   16MOL   H207 4137   1.850   4.313   1.523 -0.9997  2.5446  0.7587
   16MOL   H208 4138   2.040   4.240   1.834 -3.0283  0.3943  1.3863
   16MOL   H209 4139   2.108   4.095   1.782 -1.1516 -0.6492  0.1491
   16MOL   C210 4140   1.899   4.070   1.844  0.2291 -0.7232 -0.5635
   16MOL   C211 4141   1.944   4.024   1.984 -0.1014  0.3903 -0.2712
   16MOL   C212 4142   1.889   4.043   2.107  1.0402  0.4683 -0.3229
   16MOL   C213 4143   1.957   3.982   2.228  0.5823  0.6894  0.0661
   16MOL   C214 4144   1.769   4.131   2.141  0.2671  0.2835 -0.7558
   16MOL   H215 4145   1.863   3.983   1.788  0.8568 -0.1224 -1.9267
   16MOL   H216 4146   1.814   4.136   1.859  0.4046 -0.5062 -0.5255
   16MOL   H217 4147   2.031   3.962   1.979  0.2425  0.7791  0.7263
   16MOL   H218 4148   2.004   4.048   2.301  1.4519 -1.2653  1.3207
   16MOL   H219 4149   2.032   3.922   2.178  1.8707  0.9471  1.6339
   16MOL   H220 4150   1.883   3.915   2.272  0.6748  0.1548 -0.5934
   16MOL   H221 4151   1.746   4.206   2.065  1.9906  0.7721 -0.8175
   16MOL   H222 4152   1.792   4.182   2.235  0.9280 -0.4838 -0.4906
   16MOL   C223 4153   1.635   4.057   2.161  0.4542 -0.0682  0.2556
   16MOL   C224 4154   1.525   4.144   2.229 -1.0780 -0.0264 -0.2057
   16MOL   C225 4155   1.429   4.096   2.309  0.0164 -0.2711 -0.0283
   16MOL   C226 4156   1.321   4.179   2.377  0.7609 -0.4538 -1.3156
   16MOL   C227 4157   1.410   3.951   2.345  0.1522  0.5666  0.4896
   16MOL   H228 4158   1.635   3.956   2.203  0.4835  0.3802  1.3709
   16MOL   H229 4159   1.599   4.041   2.060 -0.3585 -0.9000  0.6647
   16MOL   H230 4160   1.534   4.249   2.203 -2.6571  0.2999  0.5412
   16MOL   H231 4161   1.308   4.280   2.337 -1.3072 -0.5211 -0.8577
   16MOL   H232 4162   1.341   4.181   2.484 -2.3749 -1.1253 -0.6706
   16MOL   H233 4163   1.222   4.139   2.360  1.1647 -1.3037 -1.6936
   16MOL   H234 4164   1.410   3.890   2.255  2.4569  0.2125  0.7015
   16MOL   H235 4165   1.311   3.923   2.380 -0.3766  2.1563  0.3087
   16MOL   C236 4166   1.511   3.901   2.450  0.2875 -0.2551 -0.6579
   16MOL   C237 4167   1.491   3.753   2.489  1.0663  0.4252  0.3388
   16MOL   C238 4168   1.503   3.649   2.410 -0.9303  0.4698  0.1142
   16MOL   C239 4169   1.469   3.508   2.468  0.2559  0.3929  0.3597
   16MOL   C240 4170   1.553   3.651   2.261 -0.0077 -0.7443 -0.9972
   16MOL   H241 4171   1.487   3.955   2.541 -0.4979 -1.2489 -0.2649
   16MOL   H242 4172   1.617   3.917   2.430  0.1733  0.4465 -0.7126
   16MOL   H243 4173   1.465   3.732   2.592  1.1439 -0.4064  0.1860
   16MOL   H244 4174   1.557   3.448   2.489  1.0242  1.2823 -0.2690
   16MOL   H245 4175   1.412   3.451   2.395 -0.3982  2.8290 -1.0715
   16MOL   H246 4176   1.413   3.515   2.561 -2.1057 -2.2016 -0.8136
   16MOL   H247 4177   1.636   3.582   2.252  0.1313 -0.6559 -0.3608
   16MOL   H248 4178   1.604   3.747   2.252 -0.2417 -0.4816  0.3859
   16MOL   C249 4179   1.447   3.620   2.161 -0.6789 -0.4832  0.1566
   16MOL   C250 4180   1.502   3.636   2.021  0.0320 -0.6900  0.7179
   16MOL   C251 4181   1.470   3.727   1.924  0.3138 -0.4693 -0.0271
   16MOL   C252 4182   1.551   3.732   1.786 -0.2581 -0.1876  0.5105
   16MOL   C253 4183   1.361   3.827   1.932  0.3178 -0.3610 -0.3569
   16MOL   H254 4184   1.360   3.681   2.183  0.6494  1.8847 -0.8949
   16MOL   H255 4185   1.421   3.514   2.158  1.6776 -1.0870  0.0136
   16MOL   H256 4186   1.584   3.573   1.990 -0.2313  0.4353 -2.5275
   16MOL   H257 4187   1.472   3.721   1.711  0.0161  0.4142  0.1337
   16MOL   H258 4188   1.623   3.650   1.772 -1.6875 -1.8034  2.3127
   16MOL   H259 4189   1.598   3.830   1.781 -0.5617 -0.0687 -0.0994
   16MOL   H260 4190   1.298   3.815   2.021 -2.2053 -0.1346 -2.0609
   16MOL   H261 4191   1.294   3.836   1.847  1.7278 -0.0474 -1.4535
   16MOL   H262 4192   1.412   3.922   1.947 -0.1043 -0.3642  1.1753
   17MOL     C1 4193   5.956   2.188   0.754 -0.0960 -0.6582 -0.5093
   17MOL     C2 4194   6.106   2.181   0.782  0.1976  1.0595  0.0228
   17MOL     C3 4195   6.205   2.182   0.690 -0.8815  0.4904  0.0935
   17MOL     C4 4196   6.353   2.179   0.733 -0.7933  0.2200 -0.2094
   17MOL     C5 4197   6.175   2.209   0.544 -0.5718  0.3827  1.2933
   17MOL     H6 4198   5.893   2.167   0.840 -1.9332  0.1589 -1.6223
   17MOL     H7 4199   5.922   2.279   0.703  2.8234  0.6561 -0.2044
   17MOL     H8 4200   6.131   2.177   0.887  1.3319  4.4744 -0.0405
   17MOL     H9 4201   6.380   2.250   0.811 -0.2979  0.2831 -0.4388
   17MOL    H10 4202   6.435   2.195   0.662  1.2359  1.0134  2.2443
   17MOL    H11 4203   6.368   2.080   0.776 -0.7579  0.6009  0.6666
   17MOL    H12 4204   6.232   2.297   0.515 -1.5365  0.8465  0.7906
   17MOL    H13 4205   6.071   2.239   0.531 -0.8443 -0.5781  1.1945
   17MOL    H14 4206   5.943   2.109   0.680  1.3105 -0.4020 -1.0469
   17MOL    C15 4207   6.201   2.084   0.455 -0.0048  0.5471  0.6698
   17MOL    C16 4208   6.222   2.115   0.306 -0.5484 -0.1411 -0.2431
   17MOL    C17 4209   6.227   2.029   0.205  0.0443  0.1032  0.7839
   17MOL    C18 4210   6.255   2.073   0.060 -0.2670  0.3202  0.3665
   17MOL    C19 4211   6.203   1.880   0.221  0.2354  0.0516  0.0339
   17MOL    H20 4212   6.124   2.009   0.473 -0.6638  0.9170 -0.5329
   17MOL    H21 4213   6.292   2.038   0.494 -0.2019 -0.2223  0.2344
   17MOL    H22 4214   6.245   2.219   0.291  0.0252  0.0174  1.6009
   17MOL    H23 4215   6.190   2.020   7.870  0.4219 -0.4300  0.2777
   17MOL    H24 4216   6.358   2.037   0.050  0.0397  0.9968  1.0611
   17MOL    H25 4217   6.264   2.182   0.056  0.2329  0.3106  1.0278
   17MOL    H26 4218   6.224   1.850   0.323 -0.9529  2.8269  1.1303
   17MOL    H27 4219   6.268   1.822   0.155  0.2267 -1.7275  1.5596
   17MOL    C28 4220   6.063   1.843   0.186  0.7158  0.3412 -0.4378
   17MOL    C29 4221   6.016   1.701   0.235 -0.3890  0.5989  0.4167
   17MOL    C30 4222   5.909   1.633   0.189 -0.2212 -0.6524 -0.0137
   17MOL    C31 4223   5.879   1.497   0.242  0.2689 -0.6038 -0.2188
   17MOL    C32 4224   5.805   1.692   0.090 -0.3912  0.1488  0.6369
   17MOL    H33 4225   6.043   1.857   0.079 -0.2572  1.7575 -0.0952
   17MOL    H34 4226   6.004   1.922   0.233  1.8101  0.4878  0.6941
   17MOL    H35 4227   6.076   1.655   0.312  0.5763  1.0140 -0.0671
   17MOL    H36 4228   5.915   1.479   0.343 -0.7789 -0.5523  0.1748
   17MOL    H37 4229   5.896   1.418   0.170  0.8713  1.6233 -2.6003
   17MOL    H38 4230   5.774   1.487   0.271  0.4440 -1.1932  0.2189
   17MOL    H39 4231   5.819   1.659   7.866 -0.6116  1.8620  0.0471
   17MOL    H40 4232   5.825   1.799   0.086  0.7546  0.0477  2.9150
   17MOL    C41 4233   5.652   1.688   0.149  0.3552 -0.1832 -0.0280
   17MOL    C42 4234   5.564   1.803   0.090 -0.1647  0.9737 -0.8122
   17MOL    C43 4235   5.505   1.905   0.155 -0.0519 -0.1716 -0.0089
   17MOL    C44 4236   5.403   1.986   0.080  0.0335 -0.8520  0.2803
   17MOL    C45 4237   5.523   1.929   0.304 -0.5309  0.2312 -0.1873
   17MOL    H46 4238   5.674   1.704   0.255  4.8956  0.2545 -0.9474
   17MOL    H47 4239   5.606   1.590   0.137  0.4557 -0.1084 -0.9995
   17MOL    H48 4240   5.555   1.798   7.861  1.9301  2.1068 -1.0639
   17MOL    H49 4241   5.402   1.962   7.853 -0.0224 -1.2261  0.3657
   17MOL    H50 4242   5.418   2.094   0.085 -0.8315 -0.6990 -0.3423
   17MOL    H51 4243   5.302   1.966   0.116 -0.0439  1.6119  1.5436
   17MOL    H52 4244   5.604   1.877   0.356 -0.8867 -0.7392 -0.5881
   17MOL    H53 4245   5.436   1.875   0.342 -0.7637 -0.7108 -1.9692
   17MOL    C54 4246   5.524   2.078   0.358  0.7966 -0.1180 -0.1140
   17MOL    C55 4247   5.564   2.093   0.507  0.5466  0.4108 -0.0928
   17MOL    C56 4248   5.499   2.154   0.612  0.2909  0.2444 -0.5340
   17MOL    C57 4249   5.546   2.145   0.761  0.3641  0.3261 -0.5671
   17MOL    C58 4250   5.378   2.240   0.598 -0.0871  0.5265 -0.3557
   17MOL    H59 4251   5.434   2.138   0.348 -0.9838 -3.0816 -2.9243
   17MOL    H60 4252   5.601   2.138   0.309  0.8295  1.0955  1.3956
   17MOL    H61 4253   5.661   2.053   0.531 -0.1086 -1.6943 -0.8363
   17MOL    H62 4254   5.468   2.141   0.837  2.5452 -2.3461  1.6454
   17MOL    H63 4255   5.602   2.236   0.786  0.3382  0.8930 -2.5308
   17MOL    H64 4256   5.616   2.064   0.780  0.1440  0.4945  1.0253
   17MOL    H65 4257   5.373   2.283   0.497 -2.6298 -1.0017 -0.9211
   17MOL    H66 4258   5.397   2.324   0.665  2.9382 -0.8227  0.5642
   17MOL    C67 4259   5.248   2.146   0.617 -0.6596 -0.0229  0.2652
   17MOL    C68 4260   5.118   2.224   0.589  0.2876 -0.0118 -0.4183
   17MOL    C69 4261   5.004   2.200   0.648  0.3099 -0.1480 -0.0980
   17MOL    C70 4262   4.876   2.268   0.611  0.6851  0.1907 -0.3020
   17MOL    C71 4263   4.985   2.090   0.755  0.2418 -0.3936  0.3803
   17MOL    H72 4264   5.253   2.098   0.714  0.5055 -1.4626 -0.4802
   17MOL    H73 4265   5.247   2.064   0.545 -1.0722 -0.9084  1.2661
   17MOL    H74 4266   5.109   2.292   0.506  0.5221 -0.6866 -1.0046
   17MOL    H75 4267   4.902   2.348   0.542 -0.0199  0.1197 -0.6486
   17MOL    H76 4268   4.834   2.308   0.703 -0.1540  1.8052 -1.3775
   17MOL    H77 4269   4.803   2.206   0.560 -0.6076 -0.0958  1.8104
   17MOL    H78 4270   5.055   2.007   0.748  0.0593 -0.5013 -0.1084
   17MOL    H79 4271   4.890   2.048   0.724  0.6411 -1.2871  0.3601
   17MOL    C80 4272   4.996   2.162   0.898  0.0378 -0.9040  0.4190
   17MOL    C81 4273   4.968   2.063   1.002  0.2840 -0.1139  0.8343
   17MOL    C82 4274   5.054   2.011   1.086  0.4248  0.0037 -0.3762
   17MOL    C83 4275   5.203   2.049   1.092 -0.0573  0.4861 -0.2318
   17MOL    C84 4276   5.009   1.901   1.182  0.0429  0.3297 -0.1372
   17MOL    H85 4277   4.914   2.233   0.911  1.1807  0.7915 -1.3619
   17MOL    H86 4278   5.085   2.222   0.920  0.3413 -1.0889 -0.2936
   17MOL    H87 4279   4.866   2.029   1.007  0.4831 -0.4983  2.9217
   17MOL    H88 4280   5.252   2.001   1.177 -1.8470 -0.1889  0.4317
   17MOL    H89 4281   5.219   2.156   1.101 -0.8043  0.5504  0.3147
   17MOL    H90 4282   5.251   2.012   1.001  1.4614  1.7456  0.0362
   17MOL    H91 4283   4.904   1.921   1.203  0.4154  0.7106  1.3997
   17MOL    H92 4284   5.055   1.922   1.279  0.3259  0.4907 -0.3053
   17MOL    C93 4285   5.044   1.754   1.140 -0.2916  0.0853 -0.8832
   17MOL    C94 4286   4.985   1.650   1.222 -0.1469  0.3478  0.0896
   17MOL    C95 4287   4.877   1.570   1.194  0.7430 -0.3960 -0.2180
   17MOL    C96 4288   4.821   1.465   1.291 -0.0191 -0.9971  0.7484
   17MOL    C97 4289   4.789   1.590   1.070  0.1518 -0.5462 -0.1864
   17MOL    H98 4290   5.153   1.762   1.140 -0.0964 -2.1584 -1.6561
   17MOL    H99 4291   5.024   1.730   1.036 -3.6532  0.1522 -0.2983
   17MOL   H100 4292   5.038   1.621   1.311  1.3566  0.5229 -0.7263
   17MOL   H101 4293   4.886   1.459   1.378  1.1517 -0.6483 -0.0751
   17MOL   H102 4294   4.723   1.500   1.323  0.7436  0.6529  1.3125
   17MOL   H103 4295   4.827   1.366   1.244 -0.0275 -0.4294 -0.4737
   17MOL   H104 4296   4.771   1.494   1.021  3.2561 -1.9025  1.2485
   17MOL   H105 4297   4.834   1.638   0.983 -2.7595  0.7010 -1.0860
   17MOL   C106 4298   4.650   1.648   1.096 -0.3667  0.3341  0.3145
   17MOL   C107 4299   4.638   1.798   1.106  0.2341  0.0696  0.3765
   17MOL   C108 4300   4.629   1.868   1.217  0.0739 -0.1485  0.2326
   17MOL   C109 4301   4.617   1.811   1.355 -0.1762 -0.1720 -0.3549
   17MOL   C110 4302   4.625   2.020   1.221 -0.7146  0.3582  0.0453
   17MOL   H111 4303   4.594   1.597   1.176 -0.4802  0.3794  0.2642
   17MOL   H112 4304   4.591   1.621   1.008 -2.2781  0.3715  1.5358
   17MOL   H113 4305   4.637   1.844   1.008  1.7940 -1.4314 -0.3752
   17MOL   H114 4306   4.513   1.793   1.380 -0.8997  1.6584 -1.9491
   17MOL   H115 4307   4.678   1.720   1.356 -1.0071 -0.7365 -1.0127
   17MOL   H116 4308   4.666   1.872   1.432  0.3576  0.3060 -1.0679
   17MOL   H117 4309   4.701   2.046   1.147  0.2078 -1.0852  0.4594
   17MOL   H118 4310   4.658   2.060   1.317 -1.9937  1.7501 -0.0819
   17MOL   C119 4311   4.489   2.069   1.194 -0.0208  0.5231 -0.1074
   17MOL   C120 4312   4.485   2.222   1.188  0.2675  0.2543  0.3164
   17MOL   C121 4313   4.399   2.297   1.261  0.3316  0.0488  0.1374
   17MOL   C122 4314   4.400   2.439   1.246 -0.0423 -0.2933  0.2405
   17MOL   C123 4315   4.298   2.256   1.370 -0.2530 -0.5305 -0.1465
   17MOL   H124 4316   4.436   2.044   1.286  0.2044  0.3610 -0.0200
   17MOL   H125 4317   4.438   2.020   1.111  0.0551 -0.1966  0.2662
   17MOL   H126 4318   4.545   2.261   1.107 -0.3120 -2.8784 -1.6925
   17MOL   H127 4319   4.494   2.474   1.204  0.3363  1.2493  2.2821
   17MOL   H128 4320   4.395   2.485   1.345  0.1395 -0.3934  0.2978
   17MOL   H129 4321   4.319   2.472   1.181  0.1193  0.3538  0.3627
   17MOL   H130 4322   4.248   2.163   1.345 -1.6903 -0.4007  2.1321
   17MOL   H131 4323   4.216   2.327   1.371  1.2951  1.2957  0.9256
   17MOL   C132 4324   4.370   2.243   1.512  0.3907 -0.7069 -0.3512
   17MOL   C133 4325   4.288   2.306   1.616 -0.2371 -0.4633  0.1751
   17MOL   C134 4326   4.309   2.424   1.677  0.2004 -0.1458 -0.4716
   17MOL   C135 4327   4.214   2.487   1.774  0.6536  1.1289  0.5054
   17MOL   C136 4328   4.425   2.515   1.641  0.5027  0.2930 -0.1531
   17MOL   H137 4329   4.478   2.263   1.512  0.5527 -1.5495  0.8866
   17MOL   H138 4330   4.372   2.138   1.541 -0.8979 -1.0678 -1.5237
   17MOL   H139 4331   4.198   2.252   1.643 -0.3021 -0.4024  0.0815
   17MOL   H140 4332   4.196   2.591   1.748 -0.4131  0.7642 -0.2476
   17MOL   H141 4333   4.251   2.474   1.875 -0.3576 -1.6343  0.5594
   17MOL   H142 4334   4.118   2.437   1.767  1.5302 -0.6927  1.2793
   17MOL   H143 4335   4.396   2.591   1.569 -1.4086 -1.0319 -0.8194
   17MOL   H144 4336   4.498   2.449   1.593  2.4462  2.9968 -0.9993
   17MOL   C145 4337   4.487   2.575   1.767 -0.2138  0.5623 -0.6277
   17MOL   C146 4338   4.629   2.625   1.737  0.4123 -0.0590  0.3748
   17MOL   C147 4339   4.738   2.619   1.816 -0.1667  0.0284 -0.3255
   17MOL   C148 4340   4.878   2.667   1.773 -0.3229  0.9028  0.2011
   17MOL   C149 4341   4.743   2.560   1.955  0.0265 -0.3723 -0.3824
   17MOL   H150 4342   4.489   2.503   1.850  0.1423 -0.1128 -1.2124
   17MOL   H151 4343   4.435   2.659   1.813 -1.0437 -0.4027  0.2304
   17MOL   H152 4344   4.647   2.663   1.637  1.4295 -1.2993  0.0817
   17MOL   H153 4345   4.962   2.609   1.812 -0.5658 -0.0888 -0.7220
   17MOL   H154 4346   4.888   2.774   1.791 -2.1645  1.4679 -1.9174
   17MOL   H155 4347   4.883   2.647   1.666 -0.5324 -1.3877  0.5908
   17MOL   H156 4348   4.649   2.581   2.007  0.1005 -2.5288  0.6497
   17MOL   H157 4349   4.809   2.618   2.019 -0.9026  0.6561 -0.3256
   17MOL   C158 4350   4.752   2.406   1.964  0.1338  0.2036  0.1593
   17MOL   C159 4351   4.750   2.360   2.106  0.1528  0.0210 -0.5663
   17MOL   C160 4352   4.663   2.286   2.179 -0.5054  0.4147 -0.6054
   17MOL   C161 4353   4.517   2.261   2.128  0.0054  0.4879  0.1287
   17MOL   C162 4354   4.700   2.209   2.307  1.5416  0.0846 -0.3401
   17MOL   H163 4355   4.848   2.368   1.931 -0.8694  0.2334 -2.9564
   17MOL   H164 4356   4.682   2.350   1.902 -1.1370  3.7464 -1.7604
   17MOL   H165 4357   4.845   2.388   2.147 -0.4818 -1.1689  1.8179
   17MOL   H166 4358   4.493   2.328   2.046 -0.4504 -0.6331 -0.6697
   17MOL   H167 4359   4.446   2.271   2.210 -0.4443  0.2485 -0.2273
   17MOL   H168 4360   4.517   2.158   2.094  1.2612  0.6783 -0.4672
   17MOL   H169 4361   4.716   2.104   2.282  3.1905  0.0025  1.0118
   17MOL   H170 4362   4.615   2.207   2.376  1.2077  0.3459 -0.7420
   17MOL   C171 4363   4.824   2.255   2.376  0.0016  0.7533  1.2661
   17MOL   C172 4364   4.853   2.168   2.492  0.8740 -0.3280 -0.5106
   17MOL   C173 4365   4.950   2.071   2.508 -0.6057  0.1293  0.1542
   17MOL   C174 4366   5.042   2.020   2.393 -0.0203 -0.3992  0.2083
   17MOL   C175 4367   4.967   1.992   2.634  0.5601 -0.0543  0.4023
   17MOL   H176 4368   4.824   2.361   2.401 -0.2470  0.6140  1.8735
   17MOL   H177 4369   4.914   2.249   2.314 -1.7345  3.9253 -1.7317
   17MOL   H178 4370   4.808   2.207   2.582  1.1900 -0.7318 -0.1773
   17MOL   H179 4371   5.149   2.010   2.411 -0.2657  0.1479  1.9898
   17MOL   H180 4372   5.032   2.087   2.308  2.0594  1.0082  1.0387
   17MOL   H181 4373   5.011   1.917   2.375 -1.4993  0.3042 -1.4793
   17MOL   H182 4374   5.075   1.975   2.635  0.6137  0.2660  2.0808
   17MOL   H183 4375   4.936   1.890   2.611  0.9579  0.1455 -1.1054
   17MOL   C184 4376   4.902   2.048   2.770 -0.4277 -0.0969 -0.5657
   17MOL   C185 4377   4.924   1.951   2.885 -0.4224  0.1740  0.5314
   17MOL   C186 4378   5.006   1.972   2.986 -0.7812 -0.4107 -1.0264
   17MOL   C187 4379   5.015   1.863   3.086 -0.3084 -0.1790  0.2435
   17MOL   C188 4380   5.096   2.099   3.006  0.3948 -0.1408  0.3116
   17MOL   H189 4381   4.800   2.086   2.759 -0.3868  0.1919  0.0500
   17MOL   H190 4382   4.942   2.147   2.791  0.2987  0.3208 -3.6362
   17MOL   H191 4383   4.874   1.855   2.885  3.5103 -2.0280 -0.5110
   17MOL   H192 4384   4.931   1.793   3.093  0.4361 -0.9580  1.5676
   17MOL   H193 4385   5.038   1.905   3.184 -0.2913 -2.1522  1.1097
   17MOL   H194 4386   5.103   1.803   3.065 -0.3578 -0.2510  0.2376
   17MOL   H195 4387   5.079   2.119   3.112 -0.9485 -2.0766  0.4813
   17MOL   H196 4388   5.074   2.195   2.958  3.0407 -0.4063 -1.5409
   17MOL   C197 4389   5.239   2.067   2.982  0.6475  0.4417 -0.3742
   17MOL   C198 4390   5.323   2.189   3.011 -0.1938  0.4447 -0.7141
   17MOL   C199 4391   5.356   2.286   2.921  0.3178 -0.1237 -0.4507
   17MOL   C200 4392   5.442   2.402   2.956  0.6941 -0.5492  1.2463
   17MOL   C201 4393   5.332   2.280   2.768  0.0486 -0.2548 -0.3028
   17MOL   H202 4394   5.253   2.034   2.879  3.2197  1.4852 -0.4100
   17MOL   H203 4395   5.286   1.990   3.043  0.0981 -0.0121 -0.5162
   17MOL   H204 4396   5.368   2.196   3.109  1.4144  0.3753 -1.4245
   17MOL   H205 4397   5.505   2.378   3.042  2.2535 -1.6133 -0.1624
   17MOL   H206 4398   5.375   2.483   2.985  1.6306  1.4783 -1.9894
   17MOL   H207 4399   5.499   2.429   2.867 -0.9056  1.2676  0.7400
   17MOL   H208 4400   5.318   2.382   2.733 -0.8263  0.0018  0.7581
   17MOL   H209 4401   5.236   2.230   2.760  0.4266 -0.7054 -2.3730
   17MOL   C210 4402   5.451   2.206   2.694 -1.0574  0.6727  0.9576
   17MOL   C211 4403   5.418   2.182   2.545  0.6569  0.3237 -0.4665
   17MOL   C212 4404   5.441   2.069   2.478  0.8744  0.4837 -0.1317
   17MOL   C213 4405   5.408   2.052   2.326 -0.0645 -0.6973  0.1525
   17MOL   C214 4406   5.471   1.927   2.538 -1.1977  0.2929  0.1140
   17MOL   H215 4407   5.483   2.111   2.738 -0.9158 -0.0155 -0.6090
   17MOL   H216 4408   5.538   2.271   2.690 -0.9933  0.5949  1.0569
   17MOL   H217 4409   5.383   2.273   2.499 -0.2545 -0.0164 -0.4526
   17MOL   H218 4410   5.498   2.018   2.273  1.1638  0.5767  1.3788
   17MOL   H219 4411   5.373   2.144   2.278 -1.3221 -1.6336 -0.7579
   17MOL   H220 4412   5.336   1.973   2.306  0.8314 -1.4320 -0.1774
   17MOL   H221 4413   5.521   1.935   2.635  1.4040 -0.5538 -1.1247
   17MOL   H222 4414   5.560   1.896   2.483  0.2459  4.0913  0.1295
   17MOL   C223 4415   5.353   1.819   2.536  0.8975 -0.9174  0.6401
   17MOL   C224 4416   5.410   1.674   2.564  0.5500  0.1017 -0.9856
   17MOL   C225 4417   5.453   1.584   2.477 -0.6355  0.2253 -0.4060
   17MOL   C226 4418   5.511   1.453   2.526  0.5458 -0.2619 -0.6871
   17MOL   C227 4419   5.455   1.606   2.325 -1.1308 -0.4375 -0.2009
   17MOL   H228 4420   5.295   1.804   2.446 -0.7678  0.5510  1.4339
   17MOL   H229 4421   5.287   1.843   2.619  1.7921  0.5434  0.9613
   17MOL   H230 4422   5.419   1.655   2.670  0.6089  0.2173 -0.9694
   17MOL   H231 4423   5.617   1.452   2.500  0.6115  2.4346 -0.6443
   17MOL   H232 4424   5.456   1.368   2.485  2.7156 -0.7551 -2.6941
   17MOL   H233 4425   5.511   1.441   2.634 -1.4566  0.9451 -0.5144
   17MOL   H234 4426   5.555   1.579   2.288 -0.1130  0.3825  1.8791
   17MOL   H235 4427   5.440   1.713   2.317 -1.1295 -0.6039 -2.9558
   17MOL   C236 4428   5.358   1.533   2.239  0.9135 -0.6140 -0.1613
   17MOL   C237 4429   5.215   1.584   2.260  0.6886 -0.0620  0.7638
   17MOL   C238 4430   5.099   1.512   2.274  0.8292 -0.0023 -0.3941
   17MOL   C239 4431   4.963   1.577   2.272 -0.6574 -0.8792  0.3351
   17MOL   C240 4432   5.101   1.362   2.294 -0.3361  0.1807 -0.1016
   17MOL   H241 4433   5.382   1.429   2.259 -2.6498 -1.3287  0.8016
   17MOL   H242 4434   5.385   1.545   2.134 -0.5839 -1.4930 -0.6802
   17MOL   H243 4435   5.213   1.691   2.247 -2.5282  0.0398  1.5513
   17MOL   H244 4436   4.898   1.538   2.350  0.9980 -1.5051  1.4200
   17MOL   H245 4437   4.909   1.553   2.180 -0.6378  1.3444 -0.2899
   17MOL   H246 4438   4.957   1.686   2.274 -2.4139 -0.9503  0.1703
   17MOL   H247 4439   5.198   1.316   2.278  0.4180  0.7474  2.5154
   17MOL   H248 4440   5.031   1.301   2.236  0.6614 -1.1290  0.0331
   17MOL   C249 4441   5.055   1.322   2.426  0.0685 -0.1319 -0.0804
   17MOL   C250 4442   5.059   1.164   2.456 -0.2837 -0.9520  0.1619
   17MOL   C251 4443   4.973   1.089   2.532 -0.1877  0.1714  0.5815
   17MOL   C252 4444   4.986   0.936   2.549  0.1359 -0.1556  0.1918
   17MOL   C253 4445   4.862   1.150   2.603 -0.9836  0.1332  0.2226
   17MOL   H254 4446   4.951   1.351   2.437  0.1788  0.4276 -0.5027
   17MOL   H255 4447   5.113   1.374   2.503 -1.2682  1.5857 -0.2153
   17MOL   H256 4448   5.140   1.115   2.403  0.2181 -1.0450  1.0028
   17MOL   H257 4449   5.033   0.884   2.465 -0.7027  1.2974 -1.1824
   17MOL   H258 4450   4.888   0.889   2.545  0.8820 -1.8439  0.9662
   17MOL   H259 4451   5.030   0.925   2.649 -0.2105 -1.3225  0.2295
   17MOL   H260 4452   4.776   1.129   2.539 -0.1870 -0.9208 -0.5230
   17MOL   H261 4453   4.856   1.255   2.632 -0.8024  0.1740  0.1108
   17MOL   H262 4454   4.849   1.105   2.702 -1.2863  0.8147  0.4925
   18MOL     C1 4455   6.577   4.560   2.864 -0.3995  0.2279  0.2189
   18MOL     C2 4456   6.580   4.572   3.012  0.6729 -0.1803  0.0449
   18MOL     C3 4457   6.640   4.481   3.099  0.0980 -0.2232 -0.2446
   18MOL     C4 4458   6.633   4.498   3.249  0.1507 -0.1897 -0.1410
   18MOL     C5 4459   6.724   4.360   3.053  0.0612 -0.6567  0.5779
   18MOL     H6 4460   6.477   4.531   2.832 -0.2843 -0.2189  0.2531
   18MOL     H7 4461   6.604   4.656   2.819  0.1836  0.0019  0.0712
   18MOL     H8 4462   6.543   4.665   3.054 -0.3189 -0.3391 -0.4623
   18MOL     H9 4463   6.621   4.400   3.297  0.2160  0.3225  0.9433
   18MOL    H10 4464   6.560   4.574   3.274  1.3187  1.2599 -1.0968
   18MOL    H11 4465   6.730   4.529   3.288  0.5665 -2.2657  0.5746
   18MOL    H12 4466   6.825   4.354   3.093  0.9151 -2.9179 -1.8128
   18MOL    H13 4467   6.757   4.360   2.949 -0.3443  0.2033  0.4440
   18MOL    H14 4468   6.652   4.488   2.829 -0.4459  0.6263 -0.7305
   18MOL    C15 4469   6.647   4.235   3.079 -0.5904  0.4531  0.2424
   18MOL    C16 4470   6.516   4.217   2.993 -0.7795  0.1754  0.1193
   18MOL    C17 4471   6.450   4.102   2.977  0.0742 -0.3598 -0.0442
   18MOL    C18 4472   6.319   4.091   2.891 -0.2451 -0.4687 -0.0865
   18MOL    C19 4473   6.502   3.968   3.019 -0.4531 -0.3484 -0.3690
   18MOL    H20 4474   6.614   4.225   3.182 -0.5036 -1.3973  0.1053
   18MOL    H21 4475   6.709   4.149   3.054  1.2623  1.7770  0.1678
   18MOL    H22 4476   6.481   4.312   2.955 -0.6098  0.1312 -0.1512
   18MOL    H23 4477   6.329   4.013   2.816  0.2072 -0.4262 -0.0739
   18MOL    H24 4478   6.277   4.180   2.845  2.4244  0.1719 -1.4155
   18MOL    H25 4479   6.245   4.053   2.961 -0.8574  0.3895 -0.2629
   18MOL    H26 4480   6.416   3.904   3.040  0.4254 -0.9190  1.6997
   18MOL    H27 4481   6.556   3.977   3.114  1.6923 -3.1768 -1.2601
   18MOL    C28 4482   6.577   3.903   2.904 -0.0010 -0.3954 -0.0919
   18MOL    C29 4483   6.633   3.767   2.962  0.0352 -0.0750  0.0020
   18MOL    C30 4484   6.761   3.723   2.972 -0.1203  0.6088 -0.7440
   18MOL    C31 4485   6.781   3.582   3.028  0.5614  0.2724  0.1986
   18MOL    C32 4486   6.883   3.808   2.936 -0.2867 -0.3207  0.2392
   18MOL    H33 4487   6.655   3.973   2.874 -2.2234  2.0835 -0.2219
   18MOL    H34 4488   6.517   3.890   2.814 -1.2750  0.5819  0.5965
   18MOL    H35 4489   6.555   3.701   2.998  0.4288 -0.0079  0.9870
   18MOL    H36 4490   6.861   3.562   3.100  1.5671 -0.0042 -0.9828
   18MOL    H37 4491   6.805   3.511   2.949  3.7945 -1.1221  2.3232
   18MOL    H38 4492   6.686   3.560   3.077  0.5710  2.2866  1.1875
   18MOL    H39 4493   6.851   3.905   2.899 -2.2465 -0.9497  0.2427
   18MOL    H40 4494   6.937   3.757   2.856 -3.0111 -0.8071 -1.3423
   18MOL    C41 4495   6.972   3.847   3.049 -0.2681 -1.0698 -0.3561
   18MOL    C42 4496   6.921   3.944   3.154  0.5276 -0.8218  0.1698
   18MOL    C43 4497   6.973   4.063   3.202 -0.3054  0.2235  0.4393
   18MOL    C44 4498   6.897   4.144   3.306  0.0097 -0.3275  0.2916
   18MOL    C45 4499   7.109   4.123   3.175  0.0554  0.1548 -0.3350
   18MOL    H46 4500   7.066   3.893   3.017 -0.5712  0.2039  0.5415
   18MOL    H47 4501   6.999   3.761   3.110  0.4750 -0.3248  0.3803
   18MOL    H48 4502   6.822   3.919   3.190 -0.2983 -0.2520 -1.6842
   18MOL    H49 4503   6.788   4.135   3.306  0.2718 -4.5740 -2.0265
   18MOL    H50 4504   6.927   4.249   3.310 -0.8033 -0.1181  1.2500
   18MOL    H51 4505   6.928   4.104   3.403 -0.0294 -1.0089  0.0207
   18MOL    H52 4506   7.099   4.229   3.155  0.0858  0.2728  0.2791
   18MOL    H53 4507   7.160   4.077   3.089 -0.8653 -2.1381  0.3075
   18MOL    C54 4508   7.208   4.112   3.296 -0.8977 -0.5134 -0.1628
   18MOL    C55 4509   7.356   4.143   3.276  0.7748  0.1380  0.2292
   18MOL    C56 4510   7.449   4.162   3.367  0.0436 -0.2127 -0.3491
   18MOL    C57 4511   7.593   4.180   3.319 -0.4474 -0.3012 -0.0170
   18MOL    C58 4512   7.428   4.162   3.518 -0.2616  0.3084  0.1493
   18MOL    H59 4513   7.194   4.011   3.335 -0.4902 -1.2617 -1.8942
   18MOL    H60 4514   7.180   4.185   3.372 -0.8697 -1.9550  1.2815
   18MOL    H61 4515   7.396   4.145   3.175  2.6334 -0.1834  0.9320
   18MOL    H62 4516   7.660   4.125   3.385 -0.2888 -0.2329 -0.1205
   18MOL    H63 4517   7.616   4.286   3.306  1.1428 -0.3074  2.5085
   18MOL    H64 4518   7.606   4.134   3.220  1.5109 -0.9473  0.5231
   18MOL    H65 4519   7.510   4.106   3.563  2.0057  1.9731 -1.7301
   18MOL    H66 4520   7.328   4.133   3.550 -1.2256  1.1282 -2.0088
   18MOL    C67 4521   7.448   4.305   3.562  0.6072  0.1151  0.3047
   18MOL    C68 4522   7.322   4.396   3.543 -0.5730 -0.1760  0.0034
   18MOL    C69 4523   7.288   4.502   3.618  0.0817  0.1367 -0.2744
   18MOL    C70 4524   7.175   4.597   3.578  0.2756  0.6584  0.1374
   18MOL    C71 4525   7.354   4.535   3.752  0.4924  0.0297  0.8026
   18MOL    H72 4526   7.528   4.356   3.509  0.7048  0.9134  1.2090
   18MOL    H73 4527   7.484   4.301   3.665 -0.7219 -1.2949  0.7364
   18MOL    H74 4528   7.279   4.379   3.446  1.7310  0.0568 -1.1008
   18MOL    H75 4529   7.106   4.561   3.502  1.6940  1.6829 -1.6755
   18MOL    H76 4530   7.220   4.689   3.542 -0.9040  1.9875  2.0007
   18MOL    H77 4531   7.111   4.617   3.664 -1.1494  0.7686 -0.9331
   18MOL    H78 4532   7.433   4.461   3.772 -0.3890 -0.4106  2.7727
   18MOL    H79 4533   7.283   4.533   3.834  0.8805 -0.2829  1.1315
   18MOL    C80 4534   7.410   4.674   3.760 -0.0960  0.0459 -0.5713
   18MOL    C81 4535   7.415   4.730   3.899 -0.2772 -0.0794  0.5340
   18MOL    C82 4536   7.345   4.833   3.949  0.2928  0.8494 -0.2590
   18MOL    C83 4537   7.247   4.918   3.874  0.1691 -0.3777  0.3060
   18MOL    C84 4538   7.371   4.879   4.095 -0.1279  0.0878  0.1354
   18MOL    H85 4539   7.367   4.747   3.692  1.4106  1.7995  0.3009
   18MOL    H86 4540   7.511   4.668   3.717  0.5428  1.9542  0.6183
   18MOL    H87 4541   7.480   4.680   3.969 -0.2257  1.7970  1.8716
   18MOL    H88 4542   7.240   4.919   3.765  0.1987 -0.9181  0.2959
   18MOL    H89 4543   7.260   5.020   3.909 -1.3695 -0.3648  0.8813
   18MOL    H90 4544   7.141   4.903   3.892 -1.3174  0.3882 -6.3898
   18MOL    H91 4545   7.423   4.975   4.085  2.6792 -1.3472  0.4642
   18MOL    H92 4546   7.437   4.810   4.147 -0.3267 -0.6363 -0.5580
   18MOL    C93 4547   7.240   4.893   4.177  0.3672 -0.7693  0.3360
   18MOL    C94 4548   7.261   4.956   4.322 -0.1273  0.2498  0.1366
   18MOL    C95 4549   7.257   4.893   4.440 -0.0667 -0.5754 -0.5555
   18MOL    C96 4550   7.283   4.961   4.573 -0.1898 -0.7880  0.3244
   18MOL    C97 4551   7.237   4.741   4.455 -0.0341 -0.6532 -0.6090
   18MOL    H98 4552   7.180   4.803   4.191  2.2230 -1.9739  0.7688
   18MOL    H99 4553   7.176   4.961   4.121  1.1321 -0.4078 -0.1061
   18MOL   H100 4554   7.276   5.063   4.325 -1.2226  0.3887  1.3079
   18MOL   H101 4555   7.203   4.941   4.644  2.1527 -1.0341  2.9594
   18MOL   H102 4556   7.375   4.922   4.617  0.8518  1.2230  0.0036
   18MOL   H103 4557   7.305   5.067   4.560  0.3635 -0.8669  0.6370
   18MOL   H104 4558   7.322   4.701   4.509 -0.0527  0.2223  0.0892
   18MOL   H105 4559   7.237   4.697   4.356 -1.4559 -0.0628 -0.8854
   18MOL   C106 4560   7.104   4.718   4.520  0.9998  0.1257  0.2607
   18MOL   C107 4561   7.078   4.572   4.540 -0.3156 -0.1802 -0.5770
   18MOL   C108 4562   6.978   4.489   4.485 -0.7663  0.3536  0.4315
   18MOL   C109 4563   6.857   4.539   4.397  0.0341 -0.0764 -0.2226
   18MOL   C110 4564   6.970   4.337   4.517 -0.3848 -0.3641 -0.7944
   18MOL   H111 4565   7.024   4.766   4.464 -0.7359  0.0868  2.6073
   18MOL   H112 4566   7.091   4.769   4.616 -0.6446 -0.7504  0.5190
   18MOL   H113 4567   7.154   4.513   4.590  1.0178  0.4544 -1.8209
   18MOL   H114 4568   6.859   4.648   4.399 -1.1746 -0.0507  0.2509
   18MOL   H115 4569   6.860   4.485   4.302 -2.4614 -2.8029  1.1741
   18MOL   H116 4570   6.760   4.517   4.443 -0.1930 -0.4796 -0.8789
   18MOL   H117 4571   7.070   4.296   4.533 -0.7481  0.3354  3.7903
   18MOL   H118 4572   6.947   4.288   4.422 -0.3487 -0.3288 -0.8206
   18MOL   C119 4573   6.861   4.304   4.618  0.2843  0.3045  0.4078
   18MOL   C120 4574   6.882   4.168   4.690 -0.2449  0.1232  0.3950
   18MOL   C121 4575   6.813   4.052   4.691 -0.0011 -0.2962 -0.3761
   18MOL   C122 4576   6.841   3.938   4.783 -0.7767 -0.4618 -0.4681
   18MOL   C123 4577   6.700   4.020   4.594 -0.4709 -0.0342 -0.6961
   18MOL   H124 4578   6.759   4.297   4.580  0.8630  0.1156 -1.1374
   18MOL   H125 4579   6.854   4.382   4.694  0.5632  1.0738 -0.3551
   18MOL   H126 4580   6.960   4.176   4.765  1.9033  2.9782 -2.0040
   18MOL   H127 4581   6.949   3.931   4.798 -0.5682 -1.4105 -2.3257
   18MOL   H128 4582   6.793   3.844   4.755  0.2712 -0.9308 -0.7293
   18MOL   H129 4583   6.795   3.960   4.879  0.2035 -1.5950  0.2811
   18MOL   H130 4584   6.738   3.930   4.546  3.3479  1.2424 -0.1990
   18MOL   H131 4585   6.687   4.091   4.513 -1.8126  0.9553  0.3552
   18MOL   C132 4586   6.569   4.001   4.678 -0.1072  0.6286  0.1081
   18MOL   C133 4587   6.442   3.978   4.588 -0.2918  0.5596 -0.5148
   18MOL   C134 4588   6.334   4.052   4.570 -0.4065  0.3399 -0.3197
   18MOL   C135 4589   6.229   4.016   4.465  0.2153  0.4326  0.0610
   18MOL   C136 4590   6.316   4.185   4.635 -0.9164  0.1981 -0.1738
   18MOL   H137 4591   6.546   4.073   4.757  0.3409  0.6991  0.1743
   18MOL   H138 4592   6.578   3.904   4.727  0.8582  0.5350 -0.2462
   18MOL   H139 4593   6.454   3.896   4.518  0.0539  1.7968 -1.9300
   18MOL   H140 4594   6.241   3.914   4.428  1.7193  1.5393 -2.6846
   18MOL   H141 4595   6.226   4.085   4.381 -1.8232  0.5557  0.2297
   18MOL   H142 4596   6.130   4.018   4.510 -0.5708  1.2649 -1.6930
   18MOL   H143 4597   6.332   4.176   4.743  1.1170  0.1566 -0.4593
   18MOL   H144 4598   6.215   4.223   4.616 -1.5167 -1.1220  0.2641
   18MOL   C145 4599   6.408   4.298   4.573  0.0585  0.9724  0.7452
   18MOL   C146 4600   6.398   4.431   4.647 -0.3433  0.1401 -0.7339
   18MOL   C147 4601   6.479   4.475   4.746  0.2602  0.1745  0.6273
   18MOL   C148 4602   6.459   4.613   4.815 -0.2456  0.1188 -0.0498
   18MOL   C149 4603   6.581   4.380   4.807  0.1563 -1.0397 -0.1623
   18MOL   H150 4604   6.382   4.308   4.467 -0.4051  0.5697  0.8211
   18MOL   H151 4605   6.514   4.274   4.574 -0.2499 -0.4121  1.2079
   18MOL   H152 4606   6.318   4.496   4.616 -0.4960  0.2609 -0.0891
   18MOL   H153 4607   6.392   4.600   4.900  1.2403 -1.1879  0.9651
   18MOL   H154 4608   6.420   4.689   4.747 -0.0613 -0.0003 -0.2876
   18MOL   H155 4609   6.553   4.654   4.852 -0.9675 -0.5108  2.6111
   18MOL   H156 4610   6.674   4.435   4.796 -0.9420  0.5864 -1.6800
   18MOL   H157 4611   6.594   4.288   4.750 -0.3208 -0.8297 -0.6200
   18MOL   C158 4612   6.552   4.336   4.952 -0.2293  0.2563  0.3451
   18MOL   C159 4613   6.676   4.254   4.999  0.2338 -0.3268 -0.7093
   18MOL   C160 4614   6.772   4.296   5.083 -0.7256 -0.0721 -0.2000
   18MOL   C161 4615   6.775   4.426   5.161  0.2033  0.3964 -0.0505
   18MOL   C162 4616   6.891   4.204   5.115 -0.1032 -0.6616  0.5321
   18MOL   H163 4617   6.467   4.269   4.940  0.6856 -0.9881  0.7044
   18MOL   H164 4618   6.522   4.419   5.016 -1.1637 -0.1876  0.4949
   18MOL   H165 4619   6.695   4.166   4.939  0.8440  1.0506 -2.5914
   18MOL   H166 4620   6.799   4.419   5.267  1.6711  0.1000 -0.3997
   18MOL   H167 4621   6.673   4.463   5.154  0.6575  1.3081 -2.2753
   18MOL   H168 4622   6.835   4.494   5.102  0.7551 -2.6451 -3.1489
   18MOL   H169 4623   6.886   4.102   5.078  1.7138 -1.3723  2.1550
   18MOL   H170 4624   6.900   4.194   5.223 -0.0838 -0.1284  0.5839
   18MOL   C171 4625   7.031   4.261   5.068  0.1888 -0.1520  0.0539
   18MOL   C172 4626   7.135   4.172   5.134 -0.3822 -0.0269 -0.5417
   18MOL   C173 4627   7.219   4.083   5.075  0.0671 -0.1810  0.0638
   18MOL   C174 4628   7.217   4.051   4.927  0.0187 -0.6755 -0.5306
   18MOL   C175 4629   7.311   3.996   5.158 -0.9354  0.6052  0.3919
   18MOL   H176 4630   7.030   4.354   5.125 -0.5753 -0.0450 -0.1326
   18MOL   H177 4631   7.038   4.268   4.959 -0.3194  1.0518  0.0821
   18MOL   H178 4632   7.140   4.199   5.239 -2.3945  2.6115 -1.0711
   18MOL   H179 4633   7.319   4.066   4.892  0.5282  0.6125  1.4378
   18MOL   H180 4634   7.149   4.110   4.865 -1.1694  0.4275  1.7579
   18MOL   H181 4635   7.186   3.949   4.907 -1.3719 -0.7330  1.7144
   18MOL   H182 4636   7.323   4.029   5.261 -1.8461 -0.7334  0.9350
   18MOL   H183 4637   7.414   3.987   5.122 -1.3395 -1.5271 -0.3150
   18MOL   C184 4638   7.260   3.848   5.153 -0.0453  0.9196  0.0012
   18MOL   C185 4639   7.239   3.804   5.296 -0.9616  0.0728  0.1132
   18MOL   C186 4640   7.125   3.771   5.348 -0.4938 -0.4410 -0.4455
   18MOL   C187 4641   7.119   3.719   5.493  0.3956 -0.6566  0.6047
   18MOL   C188 4642   6.984   3.790   5.283  0.5751 -0.3518 -0.6225
   18MOL   H189 4643   7.337   3.800   5.093 -0.9119  0.0790 -0.4474
   18MOL   H190 4644   7.176   3.830   5.087 -0.3171 -0.3754  0.6808
   18MOL   H191 4645   7.330   3.788   5.352 -1.6845  1.6808  1.7969
   18MOL   H192 4646   7.042   3.641   5.493  0.5192 -0.7915 -0.3793
   18MOL   H193 4647   7.082   3.795   5.562 -1.9553 -1.8823  0.7647
   18MOL   H194 4648   7.205   3.667   5.534 -0.8691 -2.4788  1.0543
   18MOL   H195 4649   6.941   3.689   5.280  1.3346 -0.6513 -1.5827
   18MOL   H196 4650   6.987   3.832   5.183  1.6077  0.9870 -0.0472
   18MOL   C197 4651   6.904   3.895   5.356 -0.2997  0.5616  0.3276
   18MOL   C198 4652   6.764   3.900   5.295  0.3526  0.3232 -0.0084
   18MOL   C199 4653   6.668   3.987   5.326  0.1257  0.2520  0.2076
   18MOL   C200 4654   6.529   3.993   5.263 -0.5329 -0.0806 -0.0335
   18MOL   C201 4655   6.678   4.086   5.440 -0.8578  0.5485  0.5886
   18MOL   H202 4656   6.944   3.996   5.347  0.4992  0.1666 -0.7970
   18MOL   H203 4657   6.882   3.875   5.461 -0.8030 -1.6303 -0.1666
   18MOL   H204 4658   6.739   3.824   5.223 -3.2659  0.7261  0.7256
   18MOL   H205 4659   6.457   3.956   5.336 -1.1234  0.0965 -0.5215
   18MOL   H206 4660   6.521   3.937   5.169 -1.0390  0.2483 -0.1891
   18MOL   H207 4661   6.510   4.095   5.231  2.1550 -0.0586 -1.7343
   18MOL   H208 4662   6.671   4.190   5.408  0.2339  0.7575  0.9856
   18MOL   H209 4663   6.779   4.083   5.482  0.2320  1.6977 -1.8218
   18MOL   C210 4664   6.574   4.069   5.546  0.1533  0.4289  0.1611
   18MOL   C211 4665   6.616   4.164   5.657 -0.3795 -0.3751  0.3175
   18MOL   C212 4666   6.602   4.135   5.788  0.1770  0.4275 -0.3539
   18MOL   C213 4667   6.646   4.242   5.892 -0.4417 -0.1236  0.0982
   18MOL   C214 4668   6.554   4.000   5.842  0.1038  0.5669  0.1019
   18MOL   H215 4669   6.560   3.966   5.579  0.0983 -0.3167 -2.0855
   18MOL   H216 4670   6.481   4.108   5.503  0.9877  2.0278 -0.2109
   18MOL   H217 4671   6.658   4.258   5.625  0.0286 -0.6843 -0.0820
   18MOL   H218 4672   6.594   4.232   5.987  0.8142  2.7994  1.1345
   18MOL   H219 4673   6.621   4.340   5.851  1.2462  1.1094  1.8819
   18MOL   H220 4674   6.754   4.236   5.903 -0.1941  3.4664  0.2391
   18MOL   H221 4675   6.482   3.964   5.769 -1.4852 -0.8483  2.2800
   18MOL   H222 4676   6.504   4.024   5.936  2.1187  1.2512  1.0320
   18MOL   C223 4677   6.668   3.899   5.863 -0.8174 -0.4239 -0.5296
   18MOL   C224 4678   6.620   3.766   5.922 -0.0028  0.4559  0.6958
   18MOL   C225 4679   6.627   3.642   5.874 -0.6900  0.4451  0.0481
   18MOL   C226 4680   6.575   3.524   5.954 -0.4609  1.1416 -0.5055
   18MOL   C227 4681   6.698   3.612   5.743 -0.1815  0.2286 -0.0924
   18MOL   H228 4682   6.751   3.935   5.925 -0.0382 -0.6646 -1.4178
   18MOL   H229 4683   6.701   3.885   5.760  0.9413 -1.2605  0.1254
   18MOL   H230 4684   6.569   3.777   6.016 -1.5260  2.7900 -0.3489
   18MOL   H231 4685   6.522   3.481   5.870 -0.0328 -2.1177  0.8124
   18MOL   H232 4686   6.509   3.555   6.035 -0.5262  0.3624 -0.2590
   18MOL   H233 4687   6.658   3.468   5.997 -2.3557 -0.1147  1.6306
   18MOL   H234 4688   6.736   3.510   5.748 -0.7903 -0.1957 -3.0276
   18MOL   H235 4689   6.793   3.666   5.743 -0.0778  0.0667  1.2908
   18MOL   C236 4690   6.604   3.627   5.621 -0.2912 -0.0303  0.2572
   18MOL   C237 4691   6.480   3.544   5.620 -0.3263 -0.0955  0.5082
   18MOL   C238 4692   6.349   3.589   5.633 -0.1067 -0.0271  0.0475
   18MOL   C239 4693   6.239   3.492   5.611 -0.4261  0.5118  0.6242
   18MOL   C240 4694   6.307   3.732   5.669  0.4233  0.3944 -0.0476
   18MOL   H241 4695   6.657   3.604   5.529 -1.3624 -0.5998 -0.2192
   18MOL   H242 4696   6.581   3.731   5.599 -1.2859 -0.1847  0.5506
   18MOL   H243 4697   6.493   3.444   5.584  1.6816  0.4667 -0.3879
   18MOL   H244 4698   6.199   3.525   5.514  0.0086  0.8876  0.5691
   18MOL   H245 4699   6.163   3.500   5.688 -1.5726  3.2398 -0.7009
   18MOL   H246 4700   6.255   3.385   5.601 -0.5304  0.4426  1.2365
   18MOL   H247 4701   6.391   3.803   5.665  0.9595 -0.2760 -0.8909
   18MOL   H248 4702   6.277   3.731   5.774  4.6209 -0.1341  1.2394
   18MOL   C249 4703   6.208   3.791   5.576  1.0416  0.3533 -0.1036
   18MOL   C250 4704   6.163   3.936   5.615  0.5387 -0.8941  1.1131
   18MOL   C251 4705   6.159   4.049   5.541 -0.6718 -0.1493  0.7414
   18MOL   C252 4706   6.100   4.177   5.611 -0.2127  0.2455  0.2627
   18MOL   C253 4707   6.189   4.061   5.389 -0.4322 -0.0408 -0.0923
   18MOL   H254 4708   6.117   3.738   5.549  1.2096 -0.0583  0.1310
   18MOL   H255 4709   6.267   3.803   5.485 -0.9639  0.1429 -1.4439
   18MOL   H256 4710   6.131   3.945   5.718  1.1839 -0.1041  1.2485
   18MOL   H257 4711   6.185   4.241   5.635  1.4872 -1.6371 -0.5619
   18MOL   H258 4712   6.048   4.160   5.705 -2.1270  2.0503 -0.4299
   18MOL   H259 4713   6.029   4.224   5.543 -0.2225  0.1056  0.1760
   18MOL   H260 4714   6.248   3.981   5.345 -1.0939  1.2433 -3.5059
   18MOL   H261 4715   6.238   4.157   5.368 -3.5981  1.8439  0.6935
   18MOL   H262 4716   6.097   4.035   5.336  0.4257 -0.5110 -1.3693
   19MOL     C1 4717   0.873   1.155   6.668  0.0908  0.0823 -0.2217
   19MOL     C2 4718   0.962   1.264   6.728 -0.0933 -0.2649  0.3919
   19MOL     C3 4719   0.942   1.323   6.844  0.4000 -0.0743 -0.3565
   19MOL     C4 4720   1.035   1.435   6.895 -0.5587  0.2234  0.7399
   19MOL     C5 4721   0.814   1.303   6.920 -0.0372 -0.1832  0.0060
   19MOL     H6 4722   0.851   1.074   6.738  0.2723 -0.1864 -0.4748
   19MOL     H7 4723   0.781   1.201   6.633 -1.1058 -2.1871 -0.1567
   19MOL     H8 4724   1.053   1.293   6.677 -0.9439  0.4250 -0.7845
   19MOL     H9 4725   0.984   1.470   6.985 -0.1191 -1.5201  1.6829
   19MOL    H10 4726   1.049   1.509   6.817  0.5631 -0.8330 -0.0809
   19MOL    H11 4727   1.127   1.395   6.937  0.1581  1.1993  0.1148
   19MOL    H12 4728   0.752   1.243   6.853  1.2005 -1.0512 -0.3821
   19MOL    H13 4729   0.762   1.398   6.927  1.9273  0.9932 -1.0006
   19MOL    H14 4730   0.939   1.116   6.591  1.0726  0.1973  0.5444
   19MOL    C15 4731   0.836   1.224   7.053 -0.1668  0.5464 -0.0466
   19MOL    C16 4732   0.708   1.232   7.149  0.5723 -0.1157 -0.0598
   19MOL    C17 4733   0.678   1.310   7.257  0.3056 -0.1457  0.3072
   19MOL    C18 4734   0.563   1.303   7.351 -0.4448  0.6085 -0.1289
   19MOL    C19 4735   0.756   1.433   7.289  0.0776 -0.1938  0.5134
   19MOL    H20 4736   0.925   1.264   7.102  0.1399  0.6373 -0.6745
   19MOL    H21 4737   0.853   1.116   7.047  0.8090  0.5775  1.6736
   19MOL    H22 4738   0.638   1.150   7.140 -0.1808  0.5086  0.1514
   19MOL    H23 4739   0.491   1.380   7.328 -3.5130 -0.8071  4.0446
   19MOL    H24 4740   0.612   1.318   7.448  0.3119  0.4815 -0.4879
   19MOL    H25 4741   0.516   1.205   7.347 -3.3800  1.8804  1.6711
   19MOL    H26 4742   0.852   1.427   7.238 -0.8310 -1.4759 -1.1023
   19MOL    H27 4743   0.787   1.421   7.393 -0.9484  0.2307  0.8708
   19MOL    C28 4744   0.683   1.568   7.263  0.0856 -0.3855  0.4479
   19MOL    C29 4745   0.628   1.586   7.118 -0.1561 -0.5838  0.6363
   19MOL    C30 4746   0.686   1.649   7.012 -1.1923 -0.5392  0.5546
   19MOL    C31 4747   0.597   1.657   6.888  0.1848 -0.6219  0.0246
   19MOL    C32 4748   0.823   1.710   7.012  0.1829  0.8564  0.5273
   19MOL    H33 4749   0.745   1.655   7.284  1.7795 -1.2822 -0.7302
   19MOL    H34 4750   0.602   1.581   7.335 -1.1625  0.3178 -1.0621
   19MOL    H35 4751   0.529   1.544   7.108  0.3652 -1.6218 -0.2871
   19MOL    H36 4752   0.651   1.620   6.800  0.8816  1.0908 -0.2942
   19MOL    H37 4753   0.552   1.752   6.857  0.0636 -1.0350 -1.1130
   19MOL    H38 4754   0.508   1.596   6.900  0.0294 -0.3350  0.3271
   19MOL    H39 4755   0.882   1.659   6.936  0.7242  0.8635  0.9424
   19MOL    H40 4756   0.870   1.689   7.108  1.7332  0.3277 -0.3246
   19MOL    C41 4757   0.822   1.860   6.999 -0.6388  0.2836 -0.0217
   19MOL    C42 4758   0.959   1.916   6.961 -0.1270 -0.4654 -0.1403
   19MOL    C43 4759   0.986   2.024   6.892 -0.2271 -0.3475  0.7862
   19MOL    C44 4760   1.125   2.080   6.877 -0.6709  0.2720  0.6281
   19MOL    C45 4761   0.887   2.113   6.830 -0.0939  0.4812  0.2582
   19MOL    H46 4762   0.787   1.912   7.088  0.3821  2.1492 -0.6783
   19MOL    H47 4763   0.747   1.891   6.925  0.4012  1.8794 -0.4470
   19MOL    H48 4764   1.046   1.866   7.001 -0.1713 -0.0595  0.4780
   19MOL    H49 4765   1.150   2.166   6.939 -1.1761 -0.5301  1.9527
   19MOL    H50 4766   1.153   2.108   6.775  0.0862 -1.5332  0.3173
   19MOL    H51 4767   1.195   1.996   6.890  0.7014  1.4723  1.1325
   19MOL    H52 4768   0.929   2.214   6.823  0.3318  0.2546 -0.5435
   19MOL    H53 4769   0.806   2.125   6.902  0.7477 -0.7541  1.4490
   19MOL    C54 4770   0.851   2.062   6.687 -0.5289  0.1034 -0.4346
   19MOL    C55 4771   0.732   2.131   6.632 -0.3629  0.3727  0.1855
   19MOL    C56 4772   0.721   2.224   6.526  0.4278 -0.0335 -0.5894
   19MOL    C57 4773   0.585   2.281   6.501 -0.4025  1.3603 -0.5607
   19MOL    C58 4774   0.835   2.252   6.432 -0.5087  0.8593  0.5110
   19MOL    H59 4775   0.819   1.958   6.693 -0.4714  0.2357  3.2981
   19MOL    H60 4776   0.938   2.074   6.623  0.4257  0.4201  0.9216
   19MOL    H61 4777   0.644   2.115   6.692  0.6819 -0.7383  1.4476
   19MOL    H62 4778   0.548   2.246   6.405 -1.3948 -2.7408  1.2008
   19MOL    H63 4779   0.589   2.389   6.517 -1.4518  1.5669 -1.6740
   19MOL    H64 4780   0.512   2.250   6.575  1.9255 -0.6317  0.9837
   19MOL    H65 4781   0.931   2.245   6.483 -0.6646 -0.0416  0.6949
   19MOL    H66 4782   0.837   2.357   6.404  0.5054  1.3885  2.5376
   19MOL    C67 4783   0.819   2.176   6.300  0.8132 -0.3907 -0.6818
   19MOL    C68 4784   0.944   2.202   6.207 -0.0756 -0.2498 -0.2936
   19MOL    C69 4785   0.944   2.190   6.069 -0.4377  0.2097  0.7093
   19MOL    C70 4786   1.066   2.219   5.988 -0.2226  0.3290  0.5531
   19MOL    C71 4787   0.827   2.133   5.995 -0.3107  0.3147 -0.1791
   19MOL    H72 4788   0.728   2.217   6.257  0.8501  0.3219 -0.0813
   19MOL    H73 4789   0.815   2.067   6.309 -1.7781 -0.2410  0.2200
   19MOL    H74 4790   1.035   2.234   6.256  0.4034  0.7924 -1.8127
   19MOL    H75 4791   1.094   2.123   5.945  0.2018  2.0445 -3.2243
   19MOL    H76 4792   1.150   2.267   6.038 -1.5487  1.5947  1.6159
   19MOL    H77 4793   1.046   2.289   5.907  0.3760 -0.9988 -0.7713
   19MOL    H78 4794   0.768   2.067   6.059  0.5323  0.6967  0.9998
   19MOL    H79 4795   0.874   2.069   5.921  1.7424  2.6923 -0.9875
   19MOL    C80 4796   0.741   2.228   5.920  0.1928 -0.3714 -0.5582
   19MOL    C81 4797   0.667   2.171   5.811 -0.5075  0.2389  0.5888
   19MOL    C82 4798   0.705   2.137   5.687  0.1231  0.4620  0.1740
   19MOL    C83 4799   0.846   2.162   5.636 -0.2536 -0.1535 -0.4624
   19MOL    C84 4800   0.611   2.078   5.591  0.5803 -0.0401  1.0429
   19MOL    H85 4801   0.807   2.300   5.872 -2.4581 -0.1693 -4.0974
   19MOL    H86 4802   0.673   2.268   5.995  1.0078 -0.5605  0.3019
   19MOL    H87 4803   0.564   2.154   5.839 -1.0276  0.8233 -0.9130
   19MOL    H88 4804   0.921   2.094   5.676 -0.2820  0.3111  0.3811
   19MOL    H89 4805   0.875   2.264   5.657  2.4314 -1.2026  1.1125
   19MOL    H90 4806   0.850   2.134   5.531 -0.6785  2.7824 -1.2869
   19MOL    H91 4807   0.583   2.147   5.512  0.1255  0.2969  1.4899
   19MOL    H92 4808   0.510   2.059   5.629  0.8496 -1.5789  1.0165
   19MOL    C93 4809   0.659   1.949   5.525 -0.1570  1.0327 -0.7527
   19MOL    C94 4810   0.695   1.840   5.628 -0.1008 -0.1603  0.8525
   19MOL    C95 4811   0.660   1.713   5.639  0.7079  0.3307 -0.6646
   19MOL    C96 4812   0.709   1.616   5.747  0.4467 -0.5986  0.0174
   19MOL    C97 4813   0.569   1.651   5.535  0.2864  0.3352  0.5386
   19MOL    H98 4814   0.740   1.968   5.455  0.5060 -0.8446 -0.5363
   19MOL    H99 4815   0.580   1.912   5.459 -0.3111 -0.2187  0.0999
   19MOL   H100 4816   0.764   1.873   5.703 -1.9905  1.5794  1.8940
   19MOL   H101 4817   0.622   1.553   5.764 -0.1348  0.6617  1.8688
   19MOL   H102 4818   0.801   1.562   5.723  0.8569  0.0311  0.1534
   19MOL   H103 4819   0.727   1.676   5.837  1.4422  0.5909 -0.9394
   19MOL   H104 4820   0.606   1.553   5.503  0.6126  0.0063  1.8600
   19MOL   H105 4821   0.569   1.713   5.446 -2.0118 -1.0558 -0.4744
   19MOL   C106 4822   0.421   1.657   5.586 -0.5627  0.2938  0.8983
   19MOL   C107 4823   0.314   1.625   5.482 -0.0467  0.5229  0.7774
   19MOL   C108 4824   0.212   1.699   5.440  0.1006 -0.5000  0.2074
   19MOL   C109 4825   0.192   1.835   5.492  0.2568  0.6282  0.3871
   19MOL   C110 4826   0.117   1.642   5.333 -0.2594  0.6365 -0.4686
   19MOL   H111 4827   0.399   1.750   5.638 -0.8968  0.3159  0.7233
   19MOL   H112 4828   0.404   1.579   5.660  1.1205 -1.0495 -0.1093
   19MOL   H113 4829   0.333   1.532   5.431 -0.9574  0.2205  0.9937
   19MOL   H114 4830   0.125   1.899   5.434 -1.4691 -1.6886 -0.2490
   19MOL   H115 4831   0.158   1.829   5.595 -0.0236 -0.1053  0.2543
   19MOL   H116 4832   0.289   1.885   5.487 -0.0952  1.2539 -0.3887
   19MOL   H117 4833   0.140   1.537   5.317  1.2196  0.8213  0.3745
   19MOL   H118 4834   0.128   1.698   5.240  0.2990  1.3294  0.0102
   19MOL   C119 4835   7.852   1.646   5.386 -0.2394  0.6015  0.2379
   19MOL   C120 4836   7.758   1.590   5.279 -0.1125  0.7931 -0.1099
   19MOL   C121 4837   7.664   1.667   5.214  0.2359 -0.5465  0.5700
   19MOL   C122 4838   7.575   1.601   5.109  0.0875  0.2451 -1.0896
   19MOL   C123 4839   7.634   1.814   5.239 -0.1725  0.0578  0.4958
   19MOL   H124 4840   7.823   1.735   5.442  0.9284  0.2049  1.4841
   19MOL   H125 4841   7.845   1.577   5.469  0.9524  0.2466  0.0564
   19MOL   H126 4842   7.770   1.485   5.260 -1.2126  0.5387  0.5659
   19MOL   H127 4843   7.476   1.642   5.129 -0.0114 -1.6024  2.7120
   19MOL   H128 4844   7.566   1.493   5.117  0.1654  0.3068 -0.1762
   19MOL   H129 4845   7.608   1.640   5.012  2.0327  1.0577 -0.1233
   19MOL   H130 4846   7.602   1.832   5.341 -0.8943  0.8535  0.1360
   19MOL   H131 4847   7.550   1.849   5.179 -0.2882 -0.2341  0.4858
   19MOL   C132 4848   7.742   1.911   5.191  0.6641 -0.1805 -0.1739
   19MOL   C133 4849   7.723   2.058   5.220 -0.5303 -0.2109 -0.5195
   19MOL   C134 4850   7.723   2.162   5.134 -0.3582  0.0706 -0.3827
   19MOL   C135 4851   7.691   2.306   5.190  1.0677 -1.2583  0.5258
   19MOL   C136 4852   7.748   2.152   4.984 -0.8047 -0.8904 -0.1885
   19MOL   H137 4853   7.775   1.891   5.089  0.8800 -2.8064  0.3974
   19MOL   H138 4854   7.825   1.881   5.254  0.7180 -0.6458 -0.4620
   19MOL   H139 4855   7.695   2.086   5.320  1.9454 -0.5364  0.3118
   19MOL   H140 4856   7.768   2.380   5.167  2.8293 -3.4794 -1.0015
   19MOL   H141 4857   7.679   2.301   5.298 -0.4424 -0.2387  0.4128
   19MOL   H142 4858   7.598   2.344   5.148  1.2477  0.4281  1.6069
   19MOL   H143 4859   7.663   2.191   4.929 -0.0075  0.8328 -0.2135
   19MOL   H144 4860   7.753   2.047   4.953  0.1472 -1.3789  1.5532
   19MOL   C145 4861   7.870   2.231   4.947  0.3399 -0.3406  0.5655
   19MOL   C146 4862   0.032   2.217   4.798 -0.0952  0.7597 -0.6495
   19MOL   C147 4863   0.157   2.193   4.750 -0.4322  0.0700 -0.2622
   19MOL   C148 4864   0.174   2.159   4.606 -0.0525 -0.5071  0.7084
   19MOL   C149 4865   0.277   2.176   4.841 -0.0432  0.4532 -0.0020
   19MOL   H150 4866   0.071   2.199   5.013  0.7146  0.9282  0.7510
   19MOL   H151 4867   7.852   2.339   4.955  0.9057 -0.0661 -1.5656
   19MOL   H152 4868   7.825   2.223   4.733 -0.7279  1.9839  0.2768
   19MOL   H153 4869   0.092   2.204   4.549  0.5766 -0.0732  0.1411
   19MOL   H154 4870   0.185   2.052   4.589  0.8169 -0.4310  0.7713
   19MOL   H155 4871   0.272   2.199   4.580 -0.8273  0.8703 -0.1619
   19MOL   H156 4872   0.255   2.241   4.926  0.5224  1.5210 -0.6557
   19MOL   H157 4873   0.365   2.216   4.790 -0.8315  1.5108 -0.5443
   19MOL   C158 4874   0.311   2.029   4.877  0.1400  0.6872  0.5235
   19MOL   C159 4875   0.437   2.010   4.958 -0.7018 -0.7183 -0.0907
   19MOL   C160 4876   0.467   1.927   5.056  0.1500  0.7711 -0.1677
   19MOL   C161 4877   0.371   1.818   5.089  0.3239 -0.1013  0.6553
   19MOL   C162 4878   0.593   1.943   5.141  0.7873 -0.0571  0.1379
   19MOL   H163 4879   0.331   1.972   4.786  0.4840 -1.3319  1.8228
   19MOL   H164 4880   0.227   1.989   4.935  0.2625  0.7590  0.7490
   19MOL   H165 4881   0.513   2.082   4.932 -2.1301  0.9636  0.2985
   19MOL   H166 4882   0.296   1.855   5.159  0.1702  2.1188 -0.6371
   19MOL   H167 4883   0.425   1.742   5.146 -0.9290  0.7068  3.0000
   19MOL   H168 4884   0.323   1.776   5.001 -0.7649 -0.4146  1.3818
   19MOL   H169 4885   0.556   1.960   5.242 -1.9190 -0.8649 -0.6905
   19MOL   H170 4886   0.640   2.038   5.117 -1.1500  0.8663 -0.0752
   19MOL   C171 4887   0.699   1.830   5.136  0.0791 -0.0909  0.0496
   19MOL   C172 4888   0.838   1.870   5.183  0.3698  0.1874 -0.3058
   19MOL   C173 4889   0.928   1.794   5.248 -0.5296 -0.2676 -0.0670
   19MOL   C174 4890   0.905   1.647   5.289 -0.0750 -0.6700  0.0098
   19MOL   C175 4891   1.055   1.859   5.302  0.8046  0.3267  0.6374
   19MOL   H176 4892   0.702   1.791   5.034  0.0826  0.4384 -0.1555
   19MOL   H177 4893   0.647   1.752   5.192  0.7254  0.7977  1.9437
   19MOL   H178 4894   0.869   1.971   5.159 -2.3642  0.6836 -1.9899
   19MOL   H179 4895   0.958   1.571   5.232  1.4338 -0.2313  0.8176
   19MOL   H180 4896   0.798   1.628   5.278 -0.0047  0.0307 -1.9579
   19MOL   H181 4897   0.930   1.637   5.395  0.2396 -0.5369 -0.0517
   19MOL   H182 4898   1.063   1.855   5.410  0.6218  1.6442  0.7008
   19MOL   H183 4899   1.040   1.962   5.270  0.5252  0.3284  0.7729
   19MOL   C184 4900   1.189   1.809   5.235  0.1831  0.3137 -0.2146
   19MOL   C185 4901   1.299   1.910   5.267  0.1729  0.1570 -0.0177
   19MOL   C186 4902   1.430   1.899   5.234  0.7133 -0.2732  0.6790
   19MOL   C187 4903   1.530   1.999   5.291  0.0519  0.0512 -0.2107
   19MOL   C188 4904   1.490   1.786   5.156 -0.1023  0.2011 -0.5199
   19MOL   H189 4905   1.182   1.811   5.126  1.3603 -0.6734 -0.3252
   19MOL   H190 4906   1.209   1.708   5.272  1.1573  0.3854 -0.5281
   19MOL   H191 4907   1.280   1.998   5.327 -0.8903 -0.4196  0.4964
   19MOL   H192 4908   1.625   1.951   5.314 -0.5163 -0.4346  1.2379
   19MOL   H193 4909   1.493   2.040   5.386  1.3770 -1.2353  0.8648
   19MOL   H194 4910   1.549   2.081   5.221  0.7496  0.0637 -0.0100
   19MOL   H195 4911   1.417   1.711   5.126  0.7787 -0.2396 -1.5748
   19MOL   H196 4912   1.556   1.726   5.218 -0.9726 -0.9855 -0.7122
   19MOL   C197 4913   1.560   1.826   5.028 -0.3935  0.1242 -0.0917
   19MOL   C198 4914   1.462   1.907   4.942 -0.2947  0.2674  0.8362
   19MOL   C199 4915   1.417   1.870   4.824  0.6521 -0.6945  0.3880
   19MOL   C200 4916   1.308   1.954   4.755  0.5111 -1.0195  0.5001
   19MOL   C201 4917   1.459   1.751   4.737  0.0724  0.2658  0.2993
   19MOL   H202 4918   1.595   1.738   4.974  0.1238  0.9164 -1.0560
   19MOL   H203 4919   1.643   1.890   5.058 -1.3657  0.8183  1.1687
   19MOL   H204 4920   1.410   1.992   4.985  0.6110  2.3712 -2.0323
   19MOL   H205 4921   1.213   1.901   4.745  1.1959 -1.7415 -2.7627
   19MOL   H206 4922   1.331   1.972   4.650  0.4488 -0.4800  0.5768
   19MOL   H207 4923   1.287   2.049   4.804 -1.8222 -1.0321 -0.4095
   19MOL   H208 4924   1.559   1.719   4.767 -0.2248 -1.2487 -0.2367
   19MOL   H209 4925   1.471   1.782   4.633 -2.8164 -1.4613 -0.6302
   19MOL   C210 4926   1.354   1.634   4.736  0.1232 -0.3075 -0.1501
   19MOL   C211 4927   1.348   1.579   4.878 -0.4549  0.6203 -0.6177
   19MOL   C212 4928   1.233   1.537   4.947 -0.1651 -0.1900 -0.7116
   19MOL   C213 4929   1.234   1.464   5.087  0.7562 -0.2864  0.0533
   19MOL   C214 4930   1.104   1.514   4.869  0.6150  0.4179 -0.0033
   19MOL   H215 4931   1.388   1.548   4.679  0.3637 -0.3228  0.0145
   19MOL   H216 4932   1.254   1.660   4.702  0.3126  2.7731  1.4592
   19MOL   H217 4933   1.440   1.576   4.934 -0.1586 -1.0356 -1.1420
   19MOL   H218 4934   1.234   1.358   5.065 -1.3100 -0.5535  1.1863
   19MOL   H219 4935   1.140   1.489   5.137  0.2313 -3.8459  0.9286
   19MOL   H220 4936   1.323   1.484   5.146  0.7415  0.3474 -0.1298
   19MOL   H221 4937   1.058   1.424   4.910  1.0599 -0.8557 -2.1819
   19MOL   H222 4938   1.122   1.494   4.763 -2.6624 -0.4977 -0.4363
   19MOL   C223 4939   1.007   1.638   4.880  0.0517 -0.3103  0.0667
   19MOL   C224 4940   0.878   1.607   4.814  0.3231 -0.2130  0.0606
   19MOL   C225 4941   0.816   1.666   4.714 -1.0234 -0.3935 -0.5433
   19MOL   C226 4942   0.687   1.599   4.664  0.7027  0.7156 -0.2648
   19MOL   C227 4943   0.878   1.779   4.627  0.2922 -0.3200  0.0775
   19MOL   H228 4944   1.063   1.716   4.828 -0.9572  0.7933  0.6302
   19MOL   H229 4945   0.992   1.678   4.980  1.2668 -0.0699  0.1636
   19MOL   H230 4946   0.834   1.518   4.858 -1.7573  0.2441 -1.0551
   19MOL   H231 4947   0.605   1.666   4.638  1.2480  0.7147 -2.0902
   19MOL   H232 4948   0.644   1.526   4.732  0.1288  2.0730  0.8444
   19MOL   H233 4949   0.703   1.547   4.569  0.4199  1.2334 -0.5961
   19MOL   H234 4950   0.817   1.782   4.537 -2.6535 -0.4777  2.0028
   19MOL   H235 4951   0.977   1.747   4.595  0.0055 -1.1445  0.0021
   19MOL   C236 4952   0.872   1.915   4.700 -0.6916  0.2695 -0.3393
   19MOL   C237 4953   0.932   2.024   4.612  0.2046  0.5293  0.6907
   19MOL   C238 4954   0.904   2.157   4.608  0.2144  0.2299  0.1131
   19MOL   C239 4955   0.981   2.251   4.514 -0.0972 -0.6748  0.1911
   19MOL   C240 4956   0.805   2.232   4.696 -0.3738  0.4282 -0.3114
   19MOL   H241 4957   0.922   1.907   4.797  2.5218 -0.1977 -1.9971
   19MOL   H242 4958   0.768   1.940   4.722 -0.8341 -1.0518  0.5508
   19MOL   H243 4959   1.010   1.983   4.549 -0.7725 -0.5718  0.1786
   19MOL   H244 4960   0.913   2.289   4.437 -0.6547 -0.9958  0.5221
   19MOL   H245 4961   1.066   2.201   4.468 -0.1283  0.5466 -1.2267
   19MOL   H246 4962   1.013   2.340   4.566 -0.9681 -0.8617  1.0605
   19MOL   H247 4963   0.865   2.296   4.761 -0.5308 -0.4413  0.7159
   19MOL   H248 4964   0.752   2.157   4.754  0.3756 -1.4343 -2.0087
   19MOL   C249 4965   0.703   2.317   4.620  0.2500  1.2589  0.4479
   19MOL   C250 4966   0.620   2.400   4.723  0.2987 -0.6171 -0.6073
   19MOL   C251 4967   0.513   2.472   4.698 -0.7199  0.2034  0.6333
   19MOL   C252 4968   0.426   2.542   4.800  0.4895  0.2864  0.2951
   19MOL   C253 4969   0.468   2.486   4.557 -0.7073  0.2785 -0.1333
   19MOL   H254 4970   0.640   2.251   4.561 -0.5489  0.6437  1.9956
   19MOL   H255 4971   0.754   2.394   4.561  0.9660  0.9668  0.6861
   19MOL   H256 4972   0.653   2.392   4.825 -3.1149  2.6512  0.8851
   19MOL   H257 4973   0.482   2.558   4.892  0.9742  0.3830 -0.0160
   19MOL   H258 4974   0.347   2.473   4.828  0.3146 -0.1571 -1.2535
   19MOL   H259 4975   0.386   2.638   4.768 -0.0805 -0.2356 -0.5926
   19MOL   H260 4976   0.369   2.446   4.538 -1.0065  1.6477 -1.5062
   19MOL   H261 4977   0.531   2.447   4.476 -1.4231 -2.3038  0.5024
   19MOL   H262 4978   0.465   2.588   4.520  0.4379 -0.1874 -1.5772
   20MOL     C1 4979   2.131   0.943   7.811 -0.1133 -0.0640  0.0675
   20MOL     C2 4980   2.089   1.045   0.021  0.1727 -0.0512 -0.2431
   20MOL     C3 4981   2.049   1.170   7.861  0.1547 -0.9646 -0.2341
   20MOL     C4 4982   2.020   1.284   0.074  0.1822 -0.2849 -0.1175
   20MOL     C5 4983   2.028   1.211   7.713 -0.1060 -0.1586  0.7389
   20MOL     H6 4984   2.152   0.848   7.860  0.5418 -0.6102 -1.2283
   20MOL     H7 4985   2.062   0.918   7.730 -1.9313 -2.1215  2.2010
   20MOL     H8 4986   2.118   1.028   0.124  0.6856  0.6895 -0.2653
   20MOL     H9 4987   1.923   1.325   0.046 -0.5119 -2.5349 -1.1728
   20MOL    H10 4988   2.098   1.360   0.068 -0.0648  0.0853  1.3016
   20MOL    H11 4989   2.011   1.237   0.171 -0.6248 -0.7110 -0.3985
   20MOL    H12 4990   1.930   1.259   7.716  1.3100  2.7702  2.4157
   20MOL    H13 4991   2.026   1.131   7.639  1.3551  0.4126  0.0632
   20MOL    H14 4992   2.226   0.975   7.769  0.4189  1.8529  2.6433
   20MOL    C15 4993   2.137   1.305   7.668  0.2420 -0.6003 -0.4115
   20MOL    C16 4994   2.112   1.357   7.524  0.3434 -0.5179 -0.0964
   20MOL    C17 4995   2.167   1.307   7.413 -0.1499 -0.4680  0.0260
   20MOL    C18 4996   2.127   1.350   7.276 -0.1372  0.2692  0.1576
   20MOL    C19 4997   2.273   1.192   7.415 -0.7420  0.9122  0.3752
   20MOL    H20 4998   2.227   1.243   7.674 -1.2590 -2.9349 -1.5027
   20MOL    H21 4999   2.138   1.397   7.727 -0.4539 -1.1706  0.4988
   20MOL    H22 5000   2.040   1.437   7.513  0.4870 -0.6161 -1.8296
   20MOL    H23 5001   2.056   1.432   7.276 -0.4126  0.0337  0.7442
   20MOL    H24 5002   2.099   1.265   7.214  2.1241 -0.5443  0.1811
   20MOL    H25 5003   2.213   1.391   7.224 -0.2650 -0.0996 -0.3447
   20MOL    H26 5004   2.248   1.115   7.342  1.7306  0.6459 -0.2281
   20MOL    H27 5005   2.260   1.142   7.511 -1.5311 -1.4384 -0.9154
   20MOL    C28 5006   2.421   1.231   7.401  0.0228 -0.2583 -0.9661
   20MOL    C29 5007   2.471   1.246   7.259 -0.0613  0.2159 -0.2842
   20MOL    C30 5008   2.550   1.343   7.200  0.0569  0.0600  0.4062
   20MOL    C31 5009   2.575   1.346   7.051 -0.0607  0.3314  0.2801
   20MOL    C32 5010   2.599   1.459   7.281  0.2429  0.4161  0.1859
   20MOL    H33 5011   2.484   1.155   7.447 -0.5382 -0.0764  0.1231
   20MOL    H34 5012   2.443   1.321   7.457 -0.4590  1.1343 -2.9541
   20MOL    H35 5013   2.432   1.160   7.206 -2.0904  0.5348  0.6337
   20MOL    H36 5014   2.653   1.413   7.014 -2.7849  2.0785 -2.7232
   20MOL    H37 5015   2.486   1.363   6.989 -1.5287 -2.8279  1.4197
   20MOL    H38 5016   2.604   1.245   7.024  1.2507  0.6365  0.5287
   20MOL    H39 5017   2.698   1.492   7.251  0.2401  0.4191  0.1803
   20MOL    H40 5018   2.596   1.434   7.387  0.9920 -2.1330 -0.3569
   20MOL    C41 5019   2.500   1.570   7.276  0.3994 -0.4313 -0.2649
   20MOL    C42 5020   2.532   1.693   7.355 -0.0195  0.4062 -0.1159
   20MOL    C43 5021   2.505   1.725   7.480 -0.6156 -0.7902  0.0282
   20MOL    C44 5022   2.571   1.848   7.538 -0.1646  0.0625 -0.2330
   20MOL    C45 5023   2.423   1.637   7.575  0.0898 -0.5750 -0.0509
   20MOL    H46 5024   2.406   1.536   7.320  0.5870 -0.2517  0.2830
   20MOL    H47 5025   2.474   1.597   7.174  0.1612 -0.6173 -0.2534
   20MOL    H48 5026   2.596   1.760   7.299 -0.2032  0.8537  0.2102
   20MOL    H49 5027   2.606   1.921   7.465  0.0777 -0.6078 -0.7863
   20MOL    H50 5028   2.650   1.815   7.607  0.2832  1.4144 -0.0811
   20MOL    H51 5029   2.506   1.903   7.605  0.3660 -0.3661  0.6535
   20MOL    H52 5030   2.373   1.551   7.531  0.0002 -0.7366  0.3729
   20MOL    H53 5031   2.354   1.707   7.620 -0.3134 -0.6459 -0.5505
   20MOL    C54 5032   2.512   1.581   7.693  0.0687 -0.4581 -0.1965
   20MOL    C55 5033   2.441   1.474   7.775  0.0834 -0.4045 -0.3404
   20MOL    C56 5034   2.489   1.412   0.004  0.0771 -0.1217  0.4312
   20MOL    C57 5035   2.409   1.302   0.079 -0.7958 -0.3235 -0.7832
   20MOL    C58 5036   2.636   1.426   0.045 -1.0968 -0.1467 -0.1533
   20MOL    H59 5037   2.538   1.663   7.759 -1.3681 -0.2990  0.1929
   20MOL    H60 5038   2.604   1.534   7.660  1.1197  0.8361  0.8632
   20MOL    H61 5039   2.336   1.466   7.753 -0.1582  0.1451  0.5889
   20MOL    H62 5040   2.474   1.215   0.091 -1.8435 -0.6949  2.7257
   20MOL    H63 5041   2.318   1.267   0.030  0.8522 -1.8442 -2.8901
   20MOL    H64 5042   2.383   1.333   0.180 -0.3769  1.1994 -1.1263
   20MOL    H65 5043   2.675   1.516   7.876 -1.9569  0.1520 -0.2921
   20MOL    H66 5044   2.692   1.340   0.009 -0.5819  0.9156 -1.9317
   20MOL    C67 5045   2.647   1.460   0.192 -0.3371  0.0079 -0.3522
   20MOL    C68 5046   2.795   1.478   0.226  0.6641  0.6190 -0.0303
   20MOL    C69 5047   2.863   1.599   0.246 -0.1578  0.7618 -0.0343
   20MOL    C70 5048   3.006   1.592   0.305 -0.1637  0.0629 -0.2540
   20MOL    C71 5049   2.802   1.733   0.234 -0.2920  0.8051 -0.6847
   20MOL    H72 5050   2.629   1.370   0.251  0.6689  0.1288  0.1469
   20MOL    H73 5051   2.585   1.543   0.223 -0.0644 -0.4214  1.3864
   20MOL    H74 5052   2.845   1.385   0.248 -0.9767 -0.4419 -0.7664
   20MOL    H75 5053   3.061   1.678   0.268  1.1318 -0.8010 -0.3635
   20MOL    H76 5054   3.048   1.496   0.276  2.6124  0.0156  3.6475
   20MOL    H77 5055   3.014   1.576   0.412  0.6633 -0.1954 -0.3519
   20MOL    H78 5056   2.718   1.726   0.165  0.6416 -0.0096 -1.7500
   20MOL    H79 5057   2.872   1.793   0.177  0.3622 -1.7152 -2.6092
   20MOL    C80 5058   2.772   1.804   0.366 -0.8676 -0.6134 -0.3706
   20MOL    C81 5059   2.721   1.948   0.346 -0.3289 -0.8310 -0.2466
   20MOL    C82 5060   2.758   2.065   0.401 -0.0315 -0.4766 -0.1935
   20MOL    C83 5061   2.866   2.069   0.503 -0.3998 -0.2066 -0.0960
   20MOL    C84 5062   2.697   2.197   0.355  0.2482  0.1454  0.3249
   20MOL    H85 5063   2.863   1.802   0.426  0.6499 -0.9644 -2.6500
   20MOL    H86 5064   2.691   1.756   0.421  0.4902 -2.8399 -0.2498
   20MOL    H87 5065   2.642   1.955   0.273 -1.2219  2.1206  0.9431
   20MOL    H88 5066   2.868   1.982   0.568  1.9035 -0.2077 -0.1307
   20MOL    H89 5067   2.852   2.148   0.577  0.0029 -0.7545  0.5666
   20MOL    H90 5068   2.967   2.088   0.465  0.3901 -0.2345  1.9407
   20MOL    H91 5069   2.627   2.236   0.430  0.8908  0.5576  0.7131
   20MOL    H92 5070   2.638   2.169   0.268 -0.6993  2.4042  0.1908
   20MOL    C93 5071   2.806   2.299   0.319 -0.1860 -0.4262 -0.4436
   20MOL    C94 5072   2.764   2.419   0.241 -0.3530 -0.0887 -0.4473
   20MOL    C95 5073   2.767   2.551   0.263  0.7105  0.2768 -0.2382
   20MOL    C96 5074   2.740   2.645   0.154 -0.5501  0.5667  0.7070
   20MOL    C97 5075   2.806   2.608   0.398 -0.3598 -0.1330  0.0299
   20MOL    H98 5076   2.879   2.244   0.259  1.0956 -0.7829  1.4326
   20MOL    H99 5077   2.860   2.322   0.410  1.0559  1.4615 -1.6234
   20MOL   H100 5078   2.717   2.398   0.146 -1.3309  1.4081 -0.3136
   20MOL   H101 5079   2.659   2.610   0.090  1.0763 -0.2059 -0.9746
   20MOL   H102 5080   2.714   2.741   0.200  1.2104  0.8257  1.1972
   20MOL   H103 5081   2.834   2.659   0.100 -1.7821 -2.7287 -2.5183
   20MOL   H104 5082   2.860   2.701   0.381  0.8310 -0.9679 -0.8783
   20MOL   H105 5083   2.886   2.554   0.449  0.6118  2.2988  1.1622
   20MOL   C106 5084   2.679   2.643   0.480 -0.8853 -0.5812  0.6579
   20MOL   C107 5085   2.702   2.733   0.596  0.2967  0.2685 -0.1681
   20MOL   C108 5086   2.730   2.866   0.600  0.6222  0.7612  0.3374
   20MOL   C109 5087   2.777   2.933   0.474 -0.5337  0.2264 -0.7208
   20MOL   C110 5088   2.753   2.943   0.729 -0.7766 -0.6787  0.2243
   20MOL   H111 5089   2.639   2.554   0.528 -2.6607  0.7901  1.7694
   20MOL   H112 5090   2.596   2.682   0.421  0.8361  0.9028 -0.8125
   20MOL   H113 5091   2.673   2.685   0.688 -1.2387  1.0722 -0.2082
   20MOL   H114 5092   2.737   2.887   0.384 -0.0339  0.3802 -1.0244
   20MOL   H115 5093   2.735   3.034   0.477 -0.4698  0.2192  2.3177
   20MOL   H116 5094   2.883   2.957   0.482 -0.5825 -0.0211  0.9431
   20MOL   H117 5095   2.843   3.003   0.719 -0.4368 -1.0017  1.2746
   20MOL   H118 5096   2.754   2.878   0.817 -0.6769 -0.4700  0.3758
   20MOL   C119 5097   2.635   3.044   0.757 -0.7263  0.2941 -0.1844
   20MOL   C120 5098   2.499   2.982   0.769  0.2305 -0.3360  0.3211
   20MOL   C121 5099   2.418   2.949   0.871  0.0677  0.0740 -0.1128
   20MOL   C122 5100   2.282   2.878   0.844 -0.0893 -0.4441 -0.2195
   20MOL   C123 5101   2.448   2.961   1.021 -0.0392 -0.5864  0.3147
   20MOL   H124 5102   2.634   3.119   0.678 -0.4668  0.7200  0.2160
   20MOL   H125 5103   2.647   3.103   0.847  1.3591 -1.3620  0.6694
   20MOL   H126 5104   2.462   2.948   0.673  0.0737  0.7171  0.0013
   20MOL   H127 5105   2.275   2.848   0.739  1.8220 -1.5272 -0.0808
   20MOL   H128 5106   2.194   2.929   0.881  1.0764 -0.5574  2.8975
   20MOL   H129 5107   2.275   2.784   0.900 -0.6189 -0.7998 -0.8811
   20MOL   H130 5108   2.548   2.999   1.037 -0.8613  1.3458  1.0600
   20MOL   H131 5109   2.446   2.862   1.069  0.3671 -0.2091  1.1188
   20MOL   C132 5110   2.361   3.053   1.099  0.7043  0.0322  0.7129
   20MOL   C133 5111   2.402   3.068   1.247  0.3677  0.4332  0.2640
   20MOL   C134 5112   2.497   3.147   1.300  0.3107 -0.1762  0.0358
   20MOL   C135 5113   2.526   3.139   1.449  0.1921 -0.2591 -0.1013
   20MOL   C136 5114   2.591   3.238   1.220 -0.0749 -0.5445  0.5999
   20MOL   H137 5115   2.255   3.038   1.084  0.4533  1.7036  0.6432
   20MOL   H138 5116   2.372   3.152   1.055  1.7969 -0.3873  0.0324
   20MOL   H139 5117   2.356   2.999   1.316  0.7929 -0.1798 -0.0570
   20MOL   H140 5118   2.617   3.079   1.453 -0.6685 -1.5269  0.5888
   20MOL   H141 5119   2.452   3.078   1.501 -0.4428  1.2440  0.7953
   20MOL   H142 5120   2.541   3.239   1.491  0.8032 -0.8422  1.1109
   20MOL   H143 5121   2.605   3.198   1.119  0.0267 -0.4420  0.5727
   20MOL   H144 5122   2.690   3.234   1.265 -0.3588 -2.0947  1.1060
   20MOL   C145 5123   2.553   3.387   1.215 -0.5005  0.4367 -0.6946
   20MOL   C146 5124   2.659   3.453   1.129  0.2610 -0.6891 -0.0087
   20MOL   C147 5125   2.728   3.565   1.151 -0.6080  0.7503  0.9213
   20MOL   C148 5126   2.834   3.614   1.058 -0.4914 -0.2066 -0.2203
   20MOL   C149 5127   2.720   3.648   1.278 -0.0454 -0.3483  0.2072
   20MOL   H150 5128   2.550   3.437   1.312 -0.4044 -1.8535  0.5385
   20MOL   H151 5129   2.458   3.404   1.163  0.0406  4.7312 -0.4412
   20MOL   H152 5130   2.671   3.409   1.031  1.7152 -0.5155  0.0813
   20MOL   H153 5131   2.822   3.553   0.968 -0.5153  1.7908 -1.5899
   20MOL   H154 5132   2.934   3.603   1.101 -0.5445 -2.1315 -0.5302
   20MOL   H155 5133   2.817   3.716   1.025  0.6379 -0.2401 -0.9202
   20MOL   H156 5134   2.618   3.646   1.317 -0.5680  0.0119 -1.1347
   20MOL   H157 5135   2.735   3.752   1.248  1.2081 -0.8575 -0.9857
   20MOL   C158 5136   2.832   3.621   1.375 -0.3806 -0.1149 -0.0372
   20MOL   C159 5137   2.801   3.707   1.506 -0.2773 -0.3106  0.8468
   20MOL   C160 5138   2.718   3.665   1.601 -0.4238  0.2633  0.0345
   20MOL   C161 5139   2.639   3.541   1.594  0.7931 -0.2552 -0.0751
   20MOL   C162 5140   2.685   3.746   1.728  0.0639  1.0400  0.3759
   20MOL   H163 5141   2.928   3.645   1.330 -0.6805  1.0615 -0.0620
   20MOL   H164 5142   2.840   3.514   1.392  1.3696  0.0710  0.4177
   20MOL   H165 5143   2.840   3.808   1.516  0.1135 -0.3285 -0.4068
   20MOL   H166 5144   2.562   3.550   1.517 -1.4097  0.5275  2.1426
   20MOL   H167 5145   2.583   3.519   1.685 -0.0841 -2.7462 -1.1371
   20MOL   H168 5146   2.697   3.453   1.567  0.1358 -0.3178 -1.3487
   20MOL   H169 5147   2.704   3.691   1.821  1.2291 -2.6646 -1.9528
   20MOL   H170 5148   2.578   3.760   1.712  0.1234  0.7252 -0.3065
   20MOL   C171 5149   2.758   3.878   1.746  0.1346 -0.4143 -0.0666
   20MOL   C172 5150   2.701   3.964   1.857  0.6728 -0.5574 -0.3868
   20MOL   C173 5151   2.766   4.043   1.952 -0.0905  0.6812 -0.2792
   20MOL   C174 5152   2.916   4.068   1.968  0.7120  0.2620  0.3508
   20MOL   C175 5153   2.683   4.122   2.047 -0.0140  0.1319 -0.7331
   20MOL   H176 5154   2.727   3.932   1.656  0.1119 -1.1277 -0.4971
   20MOL   H177 5155   2.867   3.865   1.744  0.0677 -0.9992  0.0413
   20MOL   H178 5156   2.594   3.963   1.864  0.7946  2.2320  3.1156
   20MOL   H179 5157   2.926   4.176   1.977 -1.7913  0.8361 -2.7334
   20MOL   H180 5158   2.978   4.021   1.892  1.0970  1.6357 -0.2062
   20MOL   H181 5159   2.948   4.012   2.056  0.3088 -0.9159 -0.2456
   20MOL   H182 5160   2.734   4.133   2.143 -0.2032 -0.6156 -0.5452
   20MOL   H183 5161   2.610   4.052   2.085  3.1640 -1.5776  2.5861
   20MOL   C184 5162   2.630   4.259   2.005  0.0487  0.1418 -0.2082
   20MOL   C185 5163   2.577   4.322   2.127 -0.3619  0.1922 -0.3436
   20MOL   C186 5164   2.448   4.349   2.163  0.6758 -0.2050  0.5889
   20MOL   C187 5165   2.414   4.413   2.296 -0.0435 -0.6289 -0.7124
   20MOL   C188 5166   2.325   4.311   2.082 -0.4073  0.0770 -0.2679
   20MOL   H189 5167   2.554   4.245   1.928 -1.1744 -1.0196  1.1804
   20MOL   H190 5168   2.715   4.304   1.955  1.2700 -0.5599  1.1973
   20MOL   H191 5169   2.654   4.349   2.198 -1.1349  1.8944 -0.1495
   20MOL   H192 5170   2.499   4.431   2.361 -0.5670 -1.2894  0.1493
   20MOL   H193 5171   2.338   4.360   2.353  1.9721  0.6130  3.3125
   20MOL   H194 5172   2.362   4.506   2.270 -0.2557 -0.2450  1.0407
   20MOL   H195 5173   2.349   4.279   1.981  0.1275 -0.8715  0.1535
   20MOL   H196 5174   2.268   4.403   2.077 -1.4522 -0.5103  0.5614
   20MOL   C197 5175   2.243   4.198   2.139 -0.1380  0.2369 -0.1288
   20MOL   C198 5176   2.311   4.059   2.104  0.3130  0.2094 -0.6101
   20MOL   C199 5177   2.371   3.968   2.186 -0.0029  0.8291 -0.2199
   20MOL   C200 5178   2.408   3.832   2.132 -0.8007  0.1802 -0.2682
   20MOL   C201 5179   2.385   3.996   2.333 -0.5326  0.6771  0.1113
   20MOL   H202 5180   2.147   4.200   2.088  0.0562 -1.3751 -0.5804
   20MOL   H203 5181   2.209   4.212   2.242  1.3853  0.6869  0.3292
   20MOL   H204 5182   2.297   4.044   1.998  0.6991  1.9100 -0.9287
   20MOL   H205 5183   2.488   3.782   2.186 -0.7465 -0.4863 -0.9528
   20MOL   H206 5184   2.456   3.849   2.036  0.6826  2.7497  0.8817
   20MOL   H207 5185   2.329   3.762   2.104 -0.8865 -0.8029  2.2887
   20MOL   H208 5186   2.375   4.102   2.357 -1.5009  0.4150  0.8842
   20MOL   H209 5187   2.488   3.964   2.350 -0.9208 -1.0501 -0.7035
   20MOL   C210 5188   2.275   3.918   2.408 -0.1720  0.3032  0.3312
   20MOL   C211 5189   2.311   3.915   2.548 -1.0279 -0.5464 -0.0345
   20MOL   C212 5190   2.237   3.918   2.660 -0.2201  0.2716  0.3883
   20MOL   C213 5191   2.305   3.916   2.792  0.0510  0.1896 -0.7639
   20MOL   C214 5192   2.085   3.923   2.652 -0.2328  0.0220  0.7767
   20MOL   H215 5193   2.258   3.815   2.377  0.7247  0.2080  0.1331
   20MOL   H216 5194   2.176   3.964   2.403 -0.9061 -0.9911  2.5334
   20MOL   H217 5195   2.412   3.897   2.581 -0.5280  0.6171 -0.8868
   20MOL   H218 5196   2.328   3.816   2.830 -0.2768  0.3026 -0.2556
   20MOL   H219 5197   2.252   3.974   2.868  0.8497 -0.4109  0.2663
   20MOL   H220 5198   2.398   3.972   2.784  0.3858 -0.2541 -0.0696
   20MOL   H221 5199   2.051   3.879   2.746 -2.0271 -0.7909 -0.2209
   20MOL   H222 5200   2.044   3.855   2.577 -1.5562  1.4764  0.1463
   20MOL   C223 5201   2.044   4.071   2.636  0.3393 -0.2554  0.1954
   20MOL   C224 5202   1.901   4.098   2.626 -0.3129 -0.0241  0.1530
   20MOL   C225 5203   1.843   4.222   2.610 -0.1835 -0.2892  0.0391
   20MOL   C226 5204   1.693   4.239   2.609  0.2146 -0.2078 -0.2179
   20MOL   C227 5205   1.916   4.350   2.582  0.1221  0.0499  0.4609
   20MOL   H228 5206   2.092   4.110   2.546  1.9631  0.9390  1.5404
   20MOL   H229 5207   2.098   4.135   2.707  0.3019 -1.7476  1.5964
   20MOL   H230 5208   1.842   4.008   2.620  0.9729 -0.7907 -1.2823
   20MOL   H231 5209   1.653   4.251   2.509  0.8276 -0.6199 -0.5140
   20MOL   H232 5210   1.658   4.320   2.674  1.1584 -0.2352  0.3276
   20MOL   H233 5211   1.644   4.150   2.648 -0.9806  0.9815  1.0931
   20MOL   H234 5212   2.020   4.346   2.614  0.1064 -0.5655  0.4464
   20MOL   H235 5213   1.860   4.436   2.619 -0.7252 -0.8931  1.4151
   20MOL   C236 5214   1.913   4.376   2.428 -0.1193 -0.7065  0.5702
   20MOL   C237 5215   1.985   4.506   2.382 -0.0286  0.2400 -0.0151
   20MOL   C238 5216   1.997   4.559   2.259 -0.9323  0.1296 -0.0529
   20MOL   C239 5217   2.085   4.685   2.239  0.4668  0.3842 -0.1249
   20MOL   C240 5218   1.933   4.493   2.135  0.5062  0.4404 -0.0722
   20MOL   H241 5219   1.808   4.394   2.401 -0.3912 -0.0579  2.0351
   20MOL   H242 5220   1.958   4.289   2.380  0.5861 -0.6287  1.0960
   20MOL   H243 5221   2.019   4.566   2.465  0.2048  0.3132 -0.1641
   20MOL   H244 5222   2.136   4.715   2.331  1.4933 -0.9598 -0.2404
   20MOL   H245 5223   2.033   4.771   2.196  0.2000 -0.5966 -1.7981
   20MOL   H246 5224   2.155   4.661   2.159 -0.2881  0.3986 -0.7921
   20MOL   H247 5225   1.922   4.385   2.149 -0.5548  0.6523  0.7925
   20MOL   H248 5226   1.994   4.510   2.046 -1.0571 -1.5123 -1.5438
   20MOL   C249 5227   1.796   4.558   2.103  0.0367 -0.3856 -0.1637
   20MOL   C250 5228   1.768   4.546   1.952  0.3160 -0.1766 -0.0448
   20MOL   C251 5229   1.730   4.647   1.871 -0.4234 -0.2016  0.8681
   20MOL   C252 5230   1.703   4.621   1.720 -0.7006  0.2551 -0.2851
   20MOL   C253 5231   1.710   4.787   1.914  0.2954 -0.0378  0.4519
   20MOL   H254 5232   1.806   4.665   2.119 -1.0117 -0.2885 -0.1340
   20MOL   H255 5233   1.714   4.514   2.160  1.7173 -1.6623  1.3410
   20MOL   H256 5234   1.781   4.445   1.916 -2.8573  0.1856 -2.4493
   20MOL   H257 5235   1.598   4.628   1.691 -0.8886 -3.1932 -0.6952
   20MOL   H258 5236   1.740   4.528   1.677  1.6926 -1.0647  4.3254
   20MOL   H259 5237   1.760   4.694   1.663 -0.9141  1.2387  0.7330
   20MOL   H260 5238   1.799   4.845   1.892 -0.9244  2.1556  1.2055
   20MOL   H261 5239   1.705   4.811   2.020 -0.5834 -0.0900  0.4290
   20MOL   H262 5240   1.622   4.823   1.859  1.1768 -0.6583 -1.4175
   21MOL     C1 5241   4.130   5.118   3.830 -0.0531  0.0108  0.6295
   21MOL     C2 5242   4.268   5.163   3.863  0.0857  0.2800  0.1824
   21MOL     C3 5243   4.347   5.124   3.966 -0.1039 -0.4444  0.5284
   21MOL     C4 5244   4.489   5.174   3.983 -0.1367 -0.1973 -0.3129
   21MOL     C5 5245   4.293   5.033   4.073  1.0760 -0.2928  0.3737
   21MOL     H6 5246   4.086   5.156   3.738  0.2975 -0.7033  0.1547
   21MOL     H7 5247   4.145   5.011   3.813 -0.1256  0.3499 -1.8653
   21MOL     H8 5248   4.317   5.221   3.786 -0.2908  1.5324  0.8688
   21MOL     H9 5249   4.487   5.245   4.066  2.3511  0.3953 -0.7371
   21MOL    H10 5250   4.520   5.247   3.907 -1.3226  1.4166  0.7034
   21MOL    H11 5251   4.565   5.101   4.007  0.3463  0.2921 -0.3429
   21MOL    H12 5252   4.185   5.045   4.081  1.0968  0.7713 -0.8348
   21MOL    H13 5253   4.324   5.062   4.173 -0.0340  2.0222  0.0694
   21MOL    H14 5254   4.064   5.138   3.914  1.7360  0.5247  1.9398
   21MOL    C15 5255   4.335   4.886   4.052 -0.6458 -0.3009 -0.0720
   21MOL    C16 5256   4.308   4.795   4.169  0.1065 -0.3737 -0.2944
   21MOL    C17 5257   4.205   4.707   4.181 -0.0593  0.0171 -0.5890
   21MOL    C18 5258   4.177   4.642   4.314 -0.8287 -0.5862 -0.1415
   21MOL    C19 5259   4.104   4.666   4.071 -0.9361 -0.0901  0.3640
   21MOL    H20 5260   4.444   4.878   4.046 -0.6979 -1.2354  0.1221
   21MOL    H21 5261   4.296   4.846   3.959 -0.7704  0.2977 -0.2806
   21MOL    H22 5262   4.366   4.819   4.256 -1.1532 -1.1815  0.7860
   21MOL    H23 5263   4.077   4.676   4.342 -0.5012  1.2696 -1.2010
   21MOL    H24 5264   4.259   4.666   4.383 -1.6718 -0.3283  0.7895
   21MOL    H25 5265   4.179   4.533   4.305 -0.9136 -0.6975  1.0950
   21MOL    H26 5266   4.068   4.565   4.088  0.7368 -0.9055 -0.8634
   21MOL    H27 5267   4.141   4.660   3.969  0.4328  0.4365  0.8163
   21MOL    C28 5268   3.990   4.763   4.072  0.5550 -0.5033 -0.5769
   21MOL    C29 5269   3.886   4.731   3.964 -0.3293 -0.2943 -0.4060
   21MOL    C30 5270   3.758   4.696   3.984 -0.0181  0.5767 -0.4583
   21MOL    C31 5271   3.674   4.659   3.865  0.4142 -0.6204  0.0946
   21MOL    C32 5272   3.695   4.676   4.121 -0.8573  0.5573 -0.4267
   21MOL    H33 5273   4.046   4.855   4.055  0.1173 -0.0268  0.5607
   21MOL    H34 5274   3.940   4.768   4.168  2.7161 -1.0911  0.6133
   21MOL    H35 5275   3.922   4.747   3.863  2.8649  0.8264  0.8732
   21MOL    H36 5276   3.612   4.746   3.845  1.0408 -0.4362 -1.0490
   21MOL    H37 5277   3.625   4.564   3.889  0.8071 -1.9214 -3.9907
   21MOL    H38 5278   3.735   4.649   3.776 -0.1354 -1.0209 -0.2412
   21MOL    H39 5279   3.596   4.721   4.125 -0.8230  0.5652  0.3935
   21MOL    H40 5280   3.750   4.713   4.208 -0.2306 -1.9864  0.2915
   21MOL    C41 5281   3.674   4.529   4.158 -0.0194 -0.8496  0.3918
   21MOL    C42 5282   3.636   4.514   4.303  0.1044  0.4176  0.4151
   21MOL    C43 5283   3.712   4.485   4.406 -0.4642 -0.9657  0.1684
   21MOL    C44 5284   3.638   4.455   4.538  0.4882 -0.0580 -1.0789
   21MOL    C45 5285   3.860   4.452   4.408 -0.2740 -0.1247  0.2320
   21MOL    H46 5286   3.765   4.470   4.145  0.8603  0.5491  0.0064
   21MOL    H47 5287   3.591   4.488   4.101 -0.3993 -0.5795  0.7498
   21MOL    H48 5288   3.535   4.547   4.322  0.4928  1.4392  0.7853
   21MOL    H49 5289   3.678   4.510   4.623  1.4960  0.3379 -1.7989
   21MOL    H50 5290   3.643   4.350   4.569 -1.8187 -0.6177 -2.4791
   21MOL    H51 5291   3.538   4.494   4.526  1.1882  1.9090 -0.6550
   21MOL    H52 5292   3.903   4.492   4.500 -1.2216 -0.2048  0.7219
   21MOL    H53 5293   3.908   4.490   4.318  1.4390 -1.5837  0.5099
   21MOL    C54 5294   3.891   4.308   4.427  0.6271 -0.3848 -0.7869
   21MOL    C55 5295   4.045   4.285   4.430  0.0653  0.2592  0.5045
   21MOL    C56 5296   4.115   4.219   4.339 -0.1875  1.0406  1.0110
   21MOL    C57 5297   4.266   4.229   4.336 -0.5432  0.5741  0.1221
   21MOL    C58 5298   4.059   4.142   4.225  0.5832  0.6290 -0.0590
   21MOL    H59 5299   3.854   4.260   4.336  1.0475  2.5273 -2.5733
   21MOL    H60 5300   3.844   4.268   4.516 -0.7794  0.2387 -1.2287
   21MOL    H61 5301   4.101   4.356   4.489 -1.2602  0.7627  1.1724
   21MOL    H62 5302   4.303   4.306   4.269 -0.4606  0.5481  0.1359
   21MOL    H63 5303   4.306   4.129   4.318 -2.2487 -0.7683  3.3551
   21MOL    H64 5304   4.302   4.252   4.436 -0.1362  0.6942 -0.0527
   21MOL    H65 5305   3.952   4.118   4.231  0.5745  1.0312  1.6709
   21MOL    H66 5306   4.111   4.048   4.208 -0.2860 -0.1329  1.3859
   21MOL    C67 5307   4.067   4.227   4.095 -0.0821  0.9705  0.1489
   21MOL    C68 5308   3.989   4.157   3.989  0.4644  0.1837 -0.3930
   21MOL    C69 5309   3.961   4.195   3.861 -0.1867 -0.0257  0.7241
   21MOL    C70 5310   3.859   4.120   3.769  0.1774 -0.3859  0.4560
   21MOL    C71 5311   4.003   4.330   3.801  0.6940 -0.4713 -0.1185
   21MOL    H72 5312   4.170   4.250   4.069 -0.6045  2.7847 -0.3429
   21MOL    H73 5313   4.029   4.327   4.117  1.4368  1.7523 -0.7119
   21MOL    H74 5314   3.942   4.066   4.024  1.3429  0.9237  2.8842
   21MOL    H75 5315   3.882   4.133   3.664 -0.0833 -3.3171 -0.0055
   21MOL    H76 5316   3.758   4.158   3.789  1.2722  2.3175  1.0857
   21MOL    H77 5317   3.844   4.016   3.799 -0.8249 -0.5238 -0.5088
   21MOL    H78 5318   4.053   4.390   3.877 -1.5273 -0.3484  1.2727
   21MOL    H79 5319   3.915   4.386   3.769 -0.6960 -3.1337 -1.1312
   21MOL    C80 5320   4.103   4.317   3.683 -0.1184 -0.1243  0.1005
   21MOL    C81 5321   4.231   4.240   3.719 -0.0273 -0.2214 -0.1312
   21MOL    C82 5322   4.344   4.279   3.781  0.0043  0.4452 -0.0610
   21MOL    C83 5323   4.363   4.421   3.840  0.1642 -0.1865 -0.1974
   21MOL    C84 5324   4.463   4.189   3.808  0.4724  0.6676  0.2538
   21MOL    H85 5325   4.124   4.422   3.663  1.0182  0.2152  2.8290
   21MOL    H86 5326   4.063   4.265   3.595 -2.1236 -2.8761  2.5342
   21MOL    H87 5327   4.229   4.141   3.677  2.1497 -0.2948 -0.1102
   21MOL    H88 5328   4.356   4.411   3.948  0.1080  4.0560  0.2562
   21MOL    H89 5329   4.280   4.487   3.815  0.1333 -0.5950 -1.2022
   21MOL    H90 5330   4.462   4.446   3.802  1.2264 -2.3295  1.0780
   21MOL    H91 5331   4.547   4.222   3.747  1.6839  0.2994  1.7146
   21MOL    H92 5332   4.445   4.087   3.775 -0.2168  1.5142 -2.0845
   21MOL    C93 5333   4.508   4.188   3.956 -0.8010  0.3432  0.2260
   21MOL    C94 5334   4.600   4.069   3.985  0.3318 -0.1961  0.0092
   21MOL    C95 5335   4.578   3.956   4.055  0.2327  0.3483  0.3342
   21MOL    C96 5336   4.689   3.851   4.073 -0.1108 -0.4277 -0.3820
   21MOL    C97 5337   4.444   3.914   4.115  0.0978  0.0508 -0.0959
   21MOL    H98 5338   4.417   4.185   4.017 -1.8597 -1.0160 -1.3502
   21MOL    H99 5339   4.560   4.276   3.994 -0.6918 -1.0166  3.3856
   21MOL   H100 5340   4.701   4.078   3.948  0.2842 -1.8840 -0.5409
   21MOL   H101 5341   4.788   3.889   4.051  0.7297 -2.0609  0.4718
   21MOL   H102 5342   4.700   3.804   4.171  0.2575  0.4843  0.0139
   21MOL   H103 5343   4.669   3.773   3.999  1.4172 -1.2161  0.0158
   21MOL   H104 5344   4.365   3.989   4.116  0.1933  0.1692 -1.4119
   21MOL   H105 5345   4.460   3.885   4.219  1.0052  0.3677 -0.1453
   21MOL   C106 5346   4.396   3.797   4.026 -0.5964  0.9334 -0.5733
   21MOL   C107 5347   4.252   3.768   4.062  0.0132 -0.1943 -0.9912
   21MOL   C108 5348   4.140   3.787   3.991  0.8352  0.3957 -0.2102
   21MOL   C109 5349   4.148   3.856   3.857 -0.3107 -0.1009 -0.0904
   21MOL   C110 5350   3.999   3.738   4.036 -0.8984 -0.5062 -0.0976
   21MOL   H111 5351   4.463   3.712   4.039  1.9926  2.7629 -1.3279
   21MOL   H112 5352   4.408   3.815   3.919 -0.9933 -2.4348 -1.2317
   21MOL   H113 5353   4.244   3.727   4.161 -1.0208 -2.7892 -2.0948
   21MOL   H114 5354   4.069   3.932   3.858  0.3028  0.5727 -1.5770
   21MOL   H115 5355   4.236   3.918   3.841 -1.3432  1.1111 -1.1688
   21MOL   H116 5356   4.123   3.782   3.781 -2.8967  1.6028 -0.9699
   21MOL   H117 5357   3.958   3.836   4.061  0.6519  0.5490 -1.5865
   21MOL   H118 5358   4.008   3.682   4.129  2.7558 -2.5969 -1.5994
   21MOL   C119 5359   3.912   3.675   3.932 -0.0559 -0.1676 -0.0875
   21MOL   C120 5360   3.964   3.543   3.889  0.9666  0.0928  0.4540
   21MOL   C121 5361   3.897   3.424   3.888  0.4679 -0.0955  0.1449
   21MOL   C122 5362   3.962   3.308   3.831 -0.1042 -0.0840 -0.0024
   21MOL   C123 5363   3.756   3.406   3.937 -0.0923 -0.6116 -0.5745
   21MOL   H124 5364   3.919   3.742   3.846  2.1013 -0.2413  0.0094
   21MOL   H125 5365   3.807   3.659   3.958  0.1609  0.1558  1.0336
   21MOL   H126 5366   4.065   3.547   3.850  1.0553  1.8062  0.7848
   21MOL   H127 5367   3.942   3.223   3.896 -2.5439  0.2735 -0.2190
   21MOL   H128 5368   4.070   3.316   3.824 -0.1584 -0.5670 -1.7318
   21MOL   H129 5369   3.916   3.298   3.732 -3.2914 -2.2163  1.5895
   21MOL   H130 5370   3.714   3.325   3.878 -0.9388 -1.2194  0.8425
   21MOL   H131 5371   3.701   3.496   3.906  0.8226  0.7544  1.6222
   21MOL   C132 5372   3.741   3.398   4.087  0.0683  0.1550 -0.4264
   21MOL   C133 5373   3.600   3.372   4.140 -0.3098  0.4891 -0.3012
   21MOL   C134 5374   3.567   3.334   4.264  0.5004 -0.2620  0.1122
   21MOL   C135 5375   3.421   3.339   4.304  0.4159 -0.1484 -0.4762
   21MOL   C136 5376   3.657   3.300   4.387  0.4474  0.1910 -0.0297
   21MOL   H137 5377   3.765   3.496   4.128  1.8130 -0.2085 -0.5304
   21MOL   H138 5378   3.814   3.331   4.133  2.4402  4.3225  2.2384
   21MOL   H139 5379   3.525   3.391   4.065 -0.9013 -3.3193 -0.7664
   21MOL   H140 5380   3.395   3.425   4.367 -1.6670  0.6273 -2.3045
   21MOL   H141 5381   3.404   3.246   4.357 -0.3037  0.3355  0.1494
   21MOL   H142 5382   3.360   3.333   4.213 -0.2255 -0.4180 -0.0294
   21MOL   H143 5383   3.609   3.340   4.476 -0.4767  0.5218 -0.6744
   21MOL   H144 5384   3.747   3.359   4.370 -0.2916  1.2211 -0.4292
   21MOL   C145 5385   3.677   3.153   4.400 -0.0677 -0.2566  0.0938
   21MOL   C146 5386   3.807   3.120   4.477  0.1147  0.2848  0.8810
   21MOL   C147 5387   3.857   2.994   4.476  0.3997 -0.2833 -0.0076
   21MOL   C148 5388   3.982   2.956   4.560  0.8582  0.0576  0.1642
   21MOL   C149 5389   3.799   2.880   4.398  0.7459  0.5887  0.4046
   21MOL   H150 5390   3.688   3.105   4.302  0.5842  0.0118  0.0314
   21MOL   H151 5391   3.597   3.107   4.458 -0.9147  1.9118  0.6659
   21MOL   H152 5392   3.860   3.187   4.544 -1.0996  0.8396  1.2964
   21MOL   H153 5393   4.001   3.025   4.642  0.4637  1.1522 -0.6627
   21MOL   H154 5394   4.068   2.965   4.493 -0.1181 -1.6679 -1.3726
   21MOL   H155 5395   3.983   2.854   4.598  1.7676 -0.0485 -0.1268
   21MOL   H156 5396   3.691   2.893   4.402  0.7403  1.5517 -1.7653
   21MOL   H157 5397   3.816   2.789   4.455 -1.1210 -0.9747 -1.4556
   21MOL   C158 5398   3.868   2.859   4.261  0.8525  0.5154  0.2145
   21MOL   C159 5399   3.788   2.766   4.177 -0.1147 -0.1886  0.6518
   21MOL   C160 5400   3.793   2.754   4.043 -0.0518 -0.2966 -0.1008
   21MOL   C161 5401   3.875   2.839   3.954  0.6070  0.4255  0.4663
   21MOL   C162 5402   3.710   2.655   3.968 -0.7827 -0.7827  0.2995
   21MOL   H163 5403   3.970   2.820   4.263  0.6027 -0.3494 -2.1837
   21MOL   H164 5404   3.869   2.957   4.213 -0.5527  0.9064  0.9494
   21MOL   H165 5405   3.720   2.706   4.235  0.3789 -1.1054  0.2845
   21MOL   H166 5406   3.953   2.787   3.898  0.9458  0.0558  1.2623
   21MOL   H167 5407   3.925   2.918   4.010  2.4941 -0.4016 -0.0069
   21MOL   H168 5408   3.809   2.882   3.879 -0.4118  0.0922  1.1733
   21MOL   H169 5409   3.708   2.574   4.040  0.5195 -1.4323 -0.3719
   21MOL   H170 5410   3.760   2.626   3.875 -0.3148 -1.0919  0.6499
   21MOL   C171 5411   3.571   2.711   3.954  0.0327 -0.2251 -0.3046
   21MOL   C172 5412   3.562   2.819   3.845 -0.4326 -0.0026  0.0202
   21MOL   C173 5413   3.521   2.947   3.865  0.3145 -0.3475  0.6074
   21MOL   C174 5414   3.494   3.000   4.000 -0.2052 -0.0905 -0.2655
   21MOL   C175 5415   3.498   3.042   3.744 -0.0159  0.3267  0.6476
   21MOL   H176 5416   3.532   2.740   4.052  0.7877 -0.6728  0.1342
   21MOL   H177 5417   3.507   2.626   3.930 -1.4690  0.4473  1.2046
   21MOL   H178 5418   3.590   2.781   3.748 -0.2044  1.4269 -0.4861
   21MOL   H179 5419   3.389   2.990   4.028  0.3392 -2.1912  1.1561
   21MOL   H180 5420   3.534   3.101   3.999 -0.0709 -0.1279  0.5226
   21MOL   H181 5421   3.544   2.948   4.082  1.1687  0.7454 -0.5549
   21MOL   H182 5422   3.487   2.978   3.657  1.1117  0.7005  0.2220
   21MOL   H183 5423   3.579   3.109   3.717  2.5890 -1.8459  2.8082
   21MOL   C184 5424   3.376   3.122   3.746  0.9822 -0.8510  0.1516
   21MOL   C185 5425   3.318   3.132   3.608 -0.0099  0.3144 -0.0694
   21MOL   C186 5426   3.196   3.093   3.564 -0.1337  0.6251  0.0836
   21MOL   C187 5427   3.167   3.098   3.417 -0.4040  0.2317 -0.3689
   21MOL   C188 5428   3.087   3.018   3.648 -0.7015  0.2052 -0.3217
   21MOL   H189 5429   3.399   3.217   3.794  0.7680 -0.5446 -0.3443
   21MOL   H190 5430   3.305   3.073   3.813  0.0933 -1.3121 -1.1058
   21MOL   H191 5431   3.388   3.176   3.538 -0.2166 -1.0713 -1.1736
   21MOL   H192 5432   3.210   3.017   3.358 -1.4856 -0.5288 -0.1361
   21MOL   H193 5433   3.221   3.183   3.378 -0.9533  1.0521  0.6249
   21MOL   H194 5434   3.060   3.106   3.395 -0.4276  0.7366 -0.0653
   21MOL   H195 5435   3.116   3.027   3.752  3.5212  1.5252 -1.5330
   21MOL   H196 5436   3.086   2.914   3.614  2.0230 -0.4390  1.4659
   21MOL   C197 5437   2.950   3.080   3.643  0.3845 -0.2727 -0.0838
   21MOL   C198 5438   2.848   3.006   3.737 -0.1787  0.6032 -0.3427
   21MOL   C199 5439   2.758   2.908   3.695  0.0788 -0.6515  0.3977
   21MOL   C200 5440   2.665   2.839   3.791 -0.5622 -0.2472  1.1705
   21MOL   C201 5441   2.763   2.864   3.552  0.4301 -0.1016  0.5149
   21MOL   H202 5442   2.911   3.081   3.541  0.9344 -0.5101 -0.2985
   21MOL   H203 5443   2.961   3.184   3.674  1.7781 -0.7070  0.9530
   21MOL   H204 5444   2.843   3.048   3.836  0.2984  2.0729 -0.9289
   21MOL   H205 5445   2.696   2.866   3.892  1.0898  0.4251  0.4877
   21MOL   H206 5446   2.690   2.733   3.785 -0.2489 -0.0712 -0.9445
   21MOL   H207 5447   2.563   2.868   3.766  0.2018  1.0285 -0.5655
   21MOL   H208 5448   2.758   2.756   3.540  1.4594  0.0946 -2.1028
   21MOL   H209 5449   2.863   2.879   3.512  0.7597  0.0667  1.4101
   21MOL   C210 5450   2.646   2.923   3.466  0.0357  0.6628  0.3274
   21MOL   C211 5451   2.641   2.861   3.329  0.2811 -0.6758 -0.5271
   21MOL   C212 5452   2.564   2.764   3.279  0.3988  1.0430 -0.4834
   21MOL   C213 5453   2.568   2.725   3.139  0.1841 -0.0466  1.3779
   21MOL   C214 5454   2.460   2.690   3.364  0.4920  0.6593 -0.7600
   21MOL   H215 5455   2.636   3.031   3.458 -0.3941  0.6561  0.7206
   21MOL   H216 5456   2.551   2.892   3.511  0.4906  0.2568  1.0301
   21MOL   H217 5457   2.706   2.911   3.259 -0.4247 -2.8872 -2.8732
   21MOL   H218 5458   2.471   2.744   3.093  1.6412  0.6318 -1.5591
   21MOL   H219 5459   2.585   2.618   3.123 -0.4120 -0.0454  0.6789
   21MOL   H220 5460   2.648   2.772   3.082  0.3029 -0.0749  1.5206
   21MOL   H221 5461   2.501   2.693   3.465 -0.4235 -0.7447 -0.3258
   21MOL   H222 5462   2.461   2.584   3.341  0.6436  0.4744  0.0669
   21MOL   C223 5463   2.311   2.729   3.374 -0.4377  0.4168 -0.0994
   21MOL   C224 5464   2.229   2.631   3.455  0.4536  0.2984  0.0882
   21MOL   C225 5465   2.198   2.627   3.581 -0.0783 -0.8118 -0.0691
   21MOL   C226 5466   2.104   2.523   3.645  0.1002  0.2610 -0.1599
   21MOL   C227 5467   2.253   2.729   3.679  0.4078  0.2535 -0.0243
   21MOL   H228 5468   2.266   2.734   3.275 -1.0047  0.6572  0.1652
   21MOL   H229 5469   2.291   2.831   3.407  1.3228  0.5495  0.5902
   21MOL   H230 5470   2.176   2.555   3.399 -0.2312  2.1523 -1.8810
   21MOL   H231 5471   2.088   2.436   3.582  1.4151  0.5367 -0.8806
   21MOL   H232 5472   2.010   2.570   3.674  0.1814  0.3226  0.0082
   21MOL   H233 5473   2.142   2.493   3.743 -0.8747  0.9232  0.4399
   21MOL   H234 5474   2.338   2.788   3.643  0.9563 -0.8459 -0.5335
   21MOL   H235 5475   2.299   2.670   3.758  1.6313 -0.3445 -1.1465
   21MOL   C236 5476   2.153   2.823   3.738 -0.0963  0.3886  0.0260
   21MOL   C237 5477   2.208   2.899   3.856 -0.5164  0.0297 -0.0629
   21MOL   C238 5478   2.197   2.861   3.984  0.5413  0.1222 -0.7257
   21MOL   C239 5479   2.256   2.947   4.097  0.3412 -0.5687  0.2615
   21MOL   C240 5480   2.128   2.734   4.027 -0.1674 -0.1104  0.2337
   21MOL   H241 5481   2.064   2.767   3.766 -0.7067  1.1760 -0.3133
   21MOL   H242 5482   2.126   2.900   3.666  3.0271  3.5949  2.1194
   21MOL   H243 5483   2.243   2.998   3.831  0.1727 -0.6713 -1.9761
   21MOL   H244 5484   2.349   2.903   4.133 -0.6859 -1.7608  1.5011
   21MOL   H245 5485   2.184   2.945   4.178 -1.5090  1.1052 -1.2737
   21MOL   H246 5486   2.258   3.054   4.074 -2.2174  0.1467  3.0305
   21MOL   H247 5487   2.184   2.705   4.116  0.0427  0.0611  0.1590
   21MOL   H248 5488   2.155   2.656   3.956 -0.1948 -0.0305  0.1367
   21MOL   C249 5489   1.980   2.718   4.054 -0.0567 -0.0840  0.0919
   21MOL   C250 5490   1.947   2.576   4.088  0.1250  0.6616  0.0482
   21MOL   C251 5491   1.870   2.524   4.186 -0.3282 -0.6129 -0.5294
   21MOL   C252 5492   1.846   2.372   4.187 -0.0741 -0.2540  0.2666
   21MOL   C253 5493   1.831   2.601   4.315  0.5986  0.1346  0.9281
   21MOL   H254 5494   1.931   2.746   3.961  1.1847  3.1863  0.3384
   21MOL   H255 5495   1.955   2.789   4.133  0.6804 -0.0935  0.3373
   21MOL   H256 5496   1.985   2.505   4.016  1.2806  0.9030  0.4053
   21MOL   H257 5497   1.941   2.336   4.226  0.1833  1.3217  1.1619
   21MOL   H258 5498   1.837   2.338   4.084 -3.8241 -0.7000  0.6528
   21MOL   H259 5499   1.763   2.338   4.250 -0.5876  0.0200 -0.2656
   21MOL   H260 5500   1.876   2.700   4.324 -1.5265  1.1710  0.5212
   21MOL   H261 5501   1.861   2.547   4.404 -3.9080  0.2106  2.6275
   21MOL   H262 5502   1.723   2.615   4.311  0.3364 -1.6107  1.4914
   22MOL     C1 5503   3.489   4.492   7.614  0.4873  0.0099  0.0498
   22MOL     C2 5504   3.414   4.394   7.521 -0.6351  0.1521 -0.4587
   22MOL     C3 5505   3.394   4.397   7.386  0.9403  0.0965  0.1153
   22MOL     C4 5506   3.311   4.282   7.322 -0.6159 -0.1831  0.2306
   22MOL     C5 5507   3.445   4.514   7.303 -0.2534  0.6316  0.5510
   22MOL     H6 5508   3.533   4.441   7.700  2.7899  0.2447 -0.9460
   22MOL     H7 5509   3.569   4.534   7.553  1.5796 -1.3341  0.5201
   22MOL     H8 5510   3.379   4.306   7.573 -0.0619  0.2249  0.0608
   22MOL     H9 5511   3.363   4.250   7.232  1.6361  0.3035  1.3330
   22MOL    H10 5512   3.214   4.316   7.285  0.2769  3.2475  0.9182
   22MOL    H11 5513   3.302   4.198   7.391  3.8487 -1.7787 -0.9713
   22MOL    H12 5514   3.501   4.485   7.214  0.1861 -2.0745  1.6694
   22MOL    H13 5515   3.527   4.572   7.344  1.0007 -0.9603  0.3334
   22MOL    H14 5516   3.415   4.563   7.651  0.3335  0.8150 -1.7634
   22MOL    C15 5517   3.318   4.599   7.258  0.2010 -0.2543  0.3878
   22MOL    C16 5518   3.228   4.640   7.376 -0.6932  0.1314 -0.8152
   22MOL    C17 5519   3.101   4.663   7.385 -0.2979  0.0061 -0.2784
   22MOL    C18 5520   3.027   4.683   7.511  0.1669 -0.7731  0.3041
   22MOL    C19 5521   3.007   4.659   7.259  0.0166 -0.4184  0.0867
   22MOL    H20 5522   3.249   4.546   7.194 -2.1681  0.7999  2.0037
   22MOL    H21 5523   3.347   4.690   7.204 -2.0243 -0.3297 -0.9842
   22MOL    H22 5524   3.273   4.652   7.473 -1.7217 -0.0290 -0.3215
   22MOL    H23 5525   2.919   4.678   7.491 -0.0124  0.0064  1.0658
   22MOL    H24 5526   3.040   4.783   7.552  1.2619  0.4182 -2.8365
   22MOL    H25 5527   3.054   4.624   7.599  1.0757  1.8521  1.8256
   22MOL    H26 5528   2.925   4.598   7.296 -0.0098  0.8005  2.1507
   22MOL    H27 5529   3.048   4.594   7.182  1.7273 -1.7379  2.0477
   22MOL    C28 5530   2.971   4.795   7.203 -0.0667 -0.1510 -0.8495
   22MOL    C29 5531   2.868   4.794   7.090  0.2510  0.0891 -0.7313
   22MOL    C30 5532   2.770   4.882   7.056  0.0813  0.0726 -1.0581
   22MOL    C31 5533   2.689   4.865   6.924 -0.0162  0.2388 -0.4750
   22MOL    C32 5534   2.735   5.008   7.145 -0.3673 -0.6860 -1.4688
   22MOL    H33 5535   3.057   4.854   7.171  1.2305 -0.9350  1.1168
   22MOL    H34 5536   2.923   4.847   7.286 -0.6054 -0.8954 -0.6885
   22MOL    H35 5537   2.864   4.704   7.030  0.7333 -0.0005 -0.6300
   22MOL    H36 5538   2.652   4.763   6.918  1.1009 -0.3045  1.4342
   22MOL    H37 5539   2.747   4.891   6.835 -0.5367  1.2476 -0.5231
   22MOL    H38 5540   2.606   4.935   6.918  0.6692  0.9418 -2.0911
   22MOL    H39 5541   2.748   5.105   7.098 -2.8147  1.4494  2.0987
   22MOL    H40 5542   2.805   5.014   7.228 -1.5391 -1.7515 -0.3861
   22MOL    C41 5543   2.610   4.971   7.226 -0.2913  0.2759  0.5142
   22MOL    C42 5544   2.541   5.092   7.295 -0.0317  0.3556 -0.5583
   22MOL    C43 5545   2.550   5.126   7.426  0.1872 -0.1859  0.6810
   22MOL    C44 5546   2.476   5.239   7.482  0.1582 -0.2152  0.4125
   22MOL    C45 5547   2.635   5.044   7.533  0.4287  0.6668 -1.1997
   22MOL    H46 5548   2.620   4.884   7.291 -0.1694 -1.8676 -2.2411
   22MOL    H47 5549   2.544   4.940   7.144 -2.9958 -0.0784  2.7254
   22MOL    H48 5550   2.487   5.160   7.231 -0.7416  0.4229  0.0951
   22MOL    H49 5551   2.408   5.214   7.564  0.3201 -3.4824 -0.3766
   22MOL    H50 5552   2.413   5.287   7.407 -0.1813 -0.3475  0.6095
   22MOL    H51 5553   2.532   5.322   7.525  0.0752 -0.8107  1.7016
   22MOL    H52 5554   2.628   4.937   7.516 -1.8706  0.2677  1.8333
   22MOL    H53 5555   2.596   5.021   7.632  1.8203 -0.6151 -0.9244
   22MOL    C54 5556   2.777   5.100   7.549 -1.0035 -0.3078 -0.2187
   22MOL    C55 5557   2.864   5.020   7.644 -0.2289 -0.6385 -0.7651
   22MOL    C56 5558   2.863   5.017   7.780  0.5236 -0.0017 -0.6715
   22MOL    C57 5559   2.957   4.935   7.862  0.1795 -0.0952  0.5168
   22MOL    C58 5560   2.768   5.094   7.868 -0.0549  0.6645  0.0216
   22MOL    H59 5561   2.777   5.196   7.601  2.6813 -0.5659  0.4048
   22MOL    H60 5562   2.834   5.107   7.457  0.4745  2.1730  0.8088
   22MOL    H61 5563   2.934   4.953   7.597  1.4600 -1.2072  2.3876
   22MOL    H62 5564   2.909   4.847   0.026  0.1930 -0.5531 -0.4030
   22MOL    H63 5565   2.985   4.994   0.070 -0.2724  0.2233  0.4448
   22MOL    H64 5566   3.042   4.896   7.806  0.4787 -0.8199  1.4526
   22MOL    H65 5567   2.746   5.030   0.075 -0.3951  3.0773  1.8111
   22MOL    H66 5568   2.680   5.126   7.813  1.2830  0.0609 -2.5180
   22MOL    C67 5569   2.826   5.229   0.040  0.9012 -0.1449 -0.8894
   22MOL    C68 5570   2.723   5.294   0.129 -0.1491  0.1170 -0.4814
   22MOL    C69 5571   2.746   5.358   0.245  0.2490  0.5464 -0.3016
   22MOL    C70 5572   2.632   5.417   0.316  0.3244 -0.2796 -0.4188
   22MOL    C71 5573   2.883   5.382   0.307  0.4450  0.8917  0.0080
   22MOL    H72 5574   2.843   5.299   7.838  0.0518  0.0425 -0.9150
   22MOL    H73 5575   2.920   5.216   0.093  0.1878 -0.0455  0.4506
   22MOL    H74 5576   2.624   5.290   0.085  0.6902 -0.5703 -2.3830
   22MOL    H75 5577   2.629   5.515   0.267 -1.1192 -0.4663 -0.7292
   22MOL    H76 5578   2.654   5.413   0.423  1.5468  0.9340 -0.6154
   22MOL    H77 5579   2.540   5.369   0.282  0.1819 -0.4098  0.1509
   22MOL    H78 5580   2.961   5.360   0.234  1.2488  3.2796  0.1062
   22MOL    H79 5581   2.893   5.322   0.398 -2.0157  0.6339  0.1335
   22MOL    C80 5582   2.906   5.527   0.350 -0.4098 -0.3238 -0.2202
   22MOL    C81 5583   3.042   5.548   0.425 -0.4908  0.7386  0.4663
   22MOL    C82 5584   3.049   5.561   0.555  0.0544  0.0660  0.3074
   22MOL    C83 5585   2.922   5.559   0.639 -0.3517 -0.5901  0.4048
   22MOL    C84 5586   3.174   5.584   0.633 -0.7692 -0.1688 -0.0347
   22MOL    H85 5587   2.818   5.562   0.403 -1.4377 -0.7460 -1.6261
   22MOL    H86 5588   2.906   5.588   0.260  0.3437 -0.6576 -0.4544
   22MOL    H87 5589   3.135   5.538   0.371 -1.1381  0.8572 -0.6969
   22MOL    H88 5590   2.849   5.630   0.599 -0.1029 -0.1687  0.6887
   22MOL    H89 5591   2.952   5.608   0.731 -0.5223  2.0674 -0.8936
   22MOL    H90 5592   2.887   5.457   0.650 -0.3853 -0.4136  2.0452
   22MOL    H91 5593   3.252   5.528   0.580  0.4908  1.1507  0.3878
   22MOL    H92 5594   3.182   5.531   0.728 -0.5050 -0.0575  0.0063
   22MOL    C93 5595   3.206   5.735   0.656 -0.2430 -0.2952 -0.6764
   22MOL    C94 5596   3.300   5.760   0.774  0.3157 -0.8110 -0.1558
   22MOL    C95 5597   3.282   5.844   0.881  0.0123 -0.0637  0.3376
   22MOL    C96 5598   3.387   5.865   0.989 -0.0500 -0.3526 -0.1234
   22MOL    C97 5599   3.149   5.920   0.897 -0.9090  0.6299  0.2616
   22MOL    H98 5600   3.109   5.784   0.667  0.1901  0.3400  0.3707
   22MOL    H99 5601   3.262   5.771   0.570  0.0560  1.0245  0.0634
   22MOL   H100 5602   3.397   5.711   0.777  1.4586  1.4185  0.0659
   22MOL   H101 5603   3.427   5.966   0.993  0.5418 -0.5961  0.2294
   22MOL   H102 5604   3.337   5.848   1.084 -2.4805 -0.9145 -1.4643
   22MOL   H103 5605   3.473   5.799   0.977 -0.7116 -1.6222  1.7975
   22MOL   H104 5606   3.125   5.921   1.003 -2.0378 -0.8866  0.0250
   22MOL   H105 5607   3.060   5.876   0.852  0.9454 -2.8236 -0.1668
   22MOL   C106 5608   3.171   6.072   0.852  0.8115  0.3838  0.2865
   22MOL   C107 5609   3.046   6.148   0.879 -0.0178 -0.0436  0.1711
   22MOL   C108 5610   3.026   6.262   0.952  0.2353  0.2170  1.1654
   22MOL   C109 5611   3.135   6.342   1.014 -0.6528  0.2412  0.0395
   22MOL   C110 5612   2.887   6.312   0.979  0.1505  0.5959 -0.3768
   22MOL   H111 5613   3.180   6.074   0.744  0.8674 -0.3705  0.2719
   22MOL   H112 5614   3.257   6.112   0.905  1.7070  0.6472 -1.3387
   22MOL   H113 5615   2.962   6.101   0.831 -0.7848  1.7835 -0.3266
   22MOL   H114 5616   3.111   6.449   1.011  1.8919  0.8118 -1.0136
   22MOL   H115 5617   3.133   6.302   1.115  2.0205  1.3290  0.5564
   22MOL   H116 5618   3.233   6.318   0.973 -1.7537  1.2949 -3.4601
   22MOL   H117 5619   2.809   6.251   0.934  0.8587  0.2301 -1.1221
   22MOL   H118 5620   2.881   6.408   0.927 -0.1756  0.0987 -1.2555
   22MOL   C119 5621   2.858   6.323   1.122 -0.4918  0.8203 -0.1683
   22MOL   C120 5622   2.711   6.361   1.148  0.4168  0.1481  1.0414
   22MOL   C121 5623   2.661   6.471   1.206 -0.0442 -0.0234  0.4835
   22MOL   C122 5624   2.516   6.464   1.242 -0.3680 -0.2447  0.2429
   22MOL   C123 5625   2.744   6.598   1.242  0.4864  0.5576  0.0886
   22MOL   H124 5626   2.927   6.387   1.176  0.6705  0.3914 -1.1204
   22MOL   H125 5627   2.885   6.225   1.160  1.5781  1.7902  0.9448
   22MOL   H126 5628   2.646   6.277   1.127  0.7167  0.4668 -1.3086
   22MOL   H127 5629   2.480   6.363   1.262 -1.4181 -0.2377 -1.5058
   22MOL   H128 5630   2.471   6.508   1.154  1.0211  0.8284  0.0525
   22MOL   H129 5631   2.498   6.522   1.333 -0.2178  0.4890 -0.1970
   22MOL   H130 5632   2.840   6.599   1.191  0.7013  1.3485  0.4999
   22MOL   H131 5633   2.767   6.593   1.348  0.7678  0.8193  0.0404
   22MOL   C132 5634   2.666   6.731   1.226 -0.0644  0.5788 -0.1499
   22MOL   C133 5635   2.744   6.846   1.286  0.4321 -0.5483 -0.0872
   22MOL   C134 5636   2.855   6.908   1.234 -0.1697 -0.3270  0.3335
   22MOL   C135 5637   2.938   7.008   1.315 -0.3570 -0.0403 -0.4122
   22MOL   C136 5638   2.900   6.885   1.090  0.1473 -0.3938 -0.3797
   22MOL   H137 5639   2.570   6.732   1.279 -0.2632  1.4748 -0.5221
   22MOL   H138 5640   2.642   6.743   1.121 -2.1019 -0.1751  0.2105
   22MOL   H139 5641   2.727   6.858   1.392 -0.8616 -1.3154 -0.1911
   22MOL   H140 5642   3.044   6.984   1.301 -0.5096 -1.3408  0.6672
   22MOL   H141 5643   2.913   6.990   1.419 -1.7848 -2.8934 -1.2135
   22MOL   H142 5644   2.923   7.112   1.284 -1.4911 -0.0493  0.0893
   22MOL   H143 5645   2.837   6.811   1.040  0.1701 -0.4039 -0.3935
   22MOL   H144 5646   2.998   6.837   1.091 -0.5915 -1.9305  0.1402
   22MOL   C145 5647   2.903   7.016   0.997 -0.2866  0.4466  0.5126
   22MOL   C146 5648   2.973   6.999   0.863  0.5657 -0.0154  0.0995
   22MOL   C147 5649   2.985   7.090   0.765 -0.6791  0.5647 -0.3919
   22MOL   C148 5650   3.056   7.058   0.630 -0.0856  0.0494 -0.7745
   22MOL   C149 5651   2.909   7.213   0.761  0.1596 -0.0105  0.0360
   22MOL   H150 5652   2.942   7.102   1.052  2.2537 -0.5711  0.3490
   22MOL   H151 5653   2.797   7.032   0.977 -1.2505 -2.8471  2.5980
   22MOL   H152 5654   3.023   6.906   0.837 -1.7799 -1.5926  1.0918
   22MOL   H153 5655   2.986   7.050   0.548 -0.8795 -1.4057  0.0149
   22MOL   H154 5656   3.125   6.974   0.642  2.6088  2.4160  1.0047
   22MOL   H155 5657   3.118   7.146   0.618 -1.6800  1.6617  2.1647
   22MOL   H156 5658   2.820   7.206   0.822  0.8327 -1.1401  0.9062
   22MOL   H157 5659   2.884   7.221   0.655 -1.9253 -1.0912  0.4318
   22MOL   C158 5660   2.991   7.332   0.801  0.2731 -0.8761  0.1026
   22MOL   C159 5661   2.905   7.452   0.816  0.3208 -0.2952 -0.1692
   22MOL   C160 5662   2.869   7.528   0.918  0.9139 -0.3319 -0.0236
   22MOL   C161 5663   2.924   7.515   1.058 -0.6607  0.2914 -0.6202
   22MOL   C162 5664   2.777   7.651   0.905 -0.6284  0.9572  0.0473
   22MOL   H163 5665   3.070   7.350   0.727  1.2582  0.0262  1.3480
   22MOL   H164 5666   3.037   7.314   0.898 -1.9864  0.6481  1.4913
   22MOL   H165 5667   2.850   7.472   0.725  0.7500 -1.8173 -0.7742
   22MOL   H166 5668   3.021   7.468   1.047 -1.0157 -0.4408 -0.6869
   22MOL   H167 5669   2.875   7.446   1.128 -0.7468 -1.0336 -1.9608
   22MOL   H168 5670   2.938   7.612   1.104 -0.4417  0.3280 -0.7675
   22MOL   H169 5671   2.707   7.661   0.988 -0.1060  0.7562  0.5199
   22MOL   H170 5672   2.711   7.637   0.820 -1.1290  0.7596  0.4705
   22MOL   C171 5673   2.864   7.779   0.896 -0.0755  0.1008  0.5899
   22MOL   C172 5674   2.768   0.019   0.875 -0.0485 -0.2291 -0.1376
   22MOL   C173 5675   2.765   0.111   0.777  0.2015  0.1511 -0.2880
   22MOL   C174 5676   2.863   0.121   0.663 -0.3602  0.4081 -0.4933
   22MOL   C175 5677   2.657   0.216   0.772 -0.2474 -0.5549 -0.0673
   22MOL   H176 5678   2.924   7.774   0.805 -0.6001 -2.1624  0.3429
   22MOL   H177 5679   2.938   7.792   0.974  0.8039 -0.6009 -0.1191
   22MOL   H178 5680   2.692   0.027   0.951  0.8142  0.8993  0.6202
   22MOL   H179 5681   2.811   0.123   0.567 -0.7613  1.0065 -0.2675
   22MOL   H180 5682   2.940   0.045   0.671  0.5137  1.6046  4.0021
   22MOL   H181 5683   2.918   0.214   0.676  0.7494 -0.5964  2.2934
   22MOL   H182 5684   2.699   0.315   0.757 -1.3846 -0.1131 -0.4223
   22MOL   H183 5685   2.608   0.214   0.869  2.7791 -0.6092  1.5073
   22MOL   C184 5686   2.549   0.189   0.664 -0.4956 -0.0355 -0.7442
   22MOL   C185 5687   2.422   0.263   0.697 -0.3558 -0.3741 -0.2375
   22MOL   C186 5688   2.342   0.334   0.614  0.1436  0.7439 -1.0736
   22MOL   C187 5689   2.211   0.397   0.668 -0.0289  0.6136  0.0798
   22MOL   C188 5690   2.362   0.335   0.468 -0.1571  0.3733  0.2845
   22MOL   H189 5691   2.531   0.082   0.664  1.6551 -0.4085  0.0317
   22MOL   H190 5692   2.585   0.223   0.567 -0.0593 -1.5334 -1.1079
   22MOL   H191 5693   2.402   0.259   0.803 -0.7663  1.9869 -0.2088
   22MOL   H192 5694   2.195   0.492   0.618 -0.0292 -0.0680 -1.2354
   22MOL   H193 5695   2.221   0.413   0.776  0.6658  0.1941  0.0828
   22MOL   H194 5696   2.123   0.332   0.665 -0.0443  0.6392 -0.0119
   22MOL   H195 5697   2.267   0.313   0.418  0.8651 -0.1799 -1.4728
   22MOL   H196 5698   2.424   0.249   0.445  0.4198  1.0953 -0.9133
   22MOL   C197 5699   2.430   0.454   0.403 -0.1102  0.1409  1.1818
   22MOL   C198 5700   2.414   0.456   0.257 -0.3147  0.3215  0.2287
   22MOL   C199 5701   2.344   0.545   0.182  0.2039  0.1327  0.3746
   22MOL   C200 5702   2.339   0.527   0.034  0.2297  0.0291 -0.0699
   22MOL   C201 5703   2.284   0.685   0.226  0.2151  0.1799 -0.1053
   22MOL   H202 5704   2.537   0.453   0.427  0.2026 -2.6994 -0.1178
   22MOL   H203 5705   2.391   0.549   0.439  1.1556  1.0117  0.2932
   22MOL   H204 5706   2.455   0.370   0.207 -0.0495 -0.9269  2.5173
   22MOL   H205 5707   2.370   0.425   0.011 -0.4085 -0.6184  1.8754
   22MOL   H206 5708   2.406   0.597   7.862  0.8796 -0.8817 -0.4661
   22MOL   H207 5709   2.239   0.541   7.874  0.7262 -0.8598 -1.6967
   22MOL   H208 5710   2.316   0.751   0.145  1.4961 -0.2315  0.0490
   22MOL   H209 5711   2.325   0.726   0.318  0.0303  2.1648 -0.8907
   22MOL   C210 5712   2.138   0.704   0.222 -0.5489  0.6735 -0.6032
   22MOL   C211 5713   2.074   0.634   0.342  0.2722 -0.0268  0.4984
   22MOL   C212 5714   1.987   0.686   0.430 -0.0115  0.0823  0.0031
   22MOL   C213 5715   1.927   0.611   0.541 -0.1903  0.1646 -0.0636
   22MOL   C214 5716   1.945   0.824   0.419  0.6310  0.2980 -0.3500
   22MOL   H215 5717   2.092   0.667   0.131  0.1886 -1.4827 -0.1269
   22MOL   H216 5718   2.128   0.812   0.212 -1.2542  0.5825 -0.9431
   22MOL   H217 5719   2.107   0.532   0.343 -1.6877 -0.8116 -3.5341
   22MOL   H218 5720   1.819   0.626   0.538 -0.3009 -0.8027 -1.3620
   22MOL   H219 5721   1.951   0.642   0.643  1.3489  1.6431 -0.8547
   22MOL   H220 5722   1.962   0.507   0.541 -1.2040 -0.2354 -3.9010
   22MOL   H221 5723   1.842   0.845   0.448  0.6134  0.5538 -0.5907
   22MOL   H222 5724   1.938   0.862   0.317 -1.8139 -2.1430 -1.1591
   22MOL   C223 5725   2.030   0.906   0.516  0.2544  0.6266 -0.5542
   22MOL   C224 5726   1.983   1.049   0.523 -0.5828  0.2329  0.4077
   22MOL   C225 5727   2.049   1.156   0.481 -0.1121 -0.4635 -0.7630
   22MOL   C226 5728   1.977   1.294   0.476  0.0250  0.0056  0.7654
   22MOL   C227 5729   2.183   1.145   0.408  0.0723 -0.4991  0.4628
   22MOL   H228 5730   2.138   0.894   0.503  0.4243 -0.2454  1.5705
   22MOL   H229 5731   2.026   0.871   0.619  1.2729 -0.2091 -0.7878
   22MOL   H230 5732   1.890   1.064   0.576 -0.7624  1.8708 -0.3219
   22MOL   H231 5733   2.052   1.374   0.478  0.0280 -0.0039  1.3871
   22MOL   H232 5734   1.904   1.305   0.557 -0.7784 -2.3317  0.3829
   22MOL   H233 5735   1.930   1.312   0.380  0.6900  1.2334  0.6552
   22MOL   H234 5736   2.184   1.234   0.345 -3.0693 -0.9814 -0.3362
   22MOL   H235 5737   2.183   1.069   0.329 -1.4189  0.6579 -0.6816
   22MOL   C236 5738   2.308   1.149   0.496  0.2286 -0.3774 -0.1445
   22MOL   C237 5739   2.442   1.118   0.425  0.7170  0.1161 -0.8142
   22MOL   C238 5740   2.513   1.002   0.440  0.6942  0.2039  0.4527
   22MOL   C239 5741   2.650   0.999   0.380  0.4812 -0.8962 -0.2200
   22MOL   C240 5742   2.472   0.887   0.530 -0.0652 -0.1027  0.4323
   22MOL   H241 5743   2.303   1.085   0.584  1.4137  0.3998  0.4757
   22MOL   H242 5744   2.320   1.249   0.536  0.2858 -0.8088  0.9241
   22MOL   H243 5745   2.473   1.195   0.356 -0.1814  2.6736  1.5106
   22MOL   H244 5746   2.717   1.056   0.444 -0.0592  0.8781 -1.2040
   22MOL   H245 5747   2.663   1.043   0.281 -1.0997  1.6748  0.6679
   22MOL   H246 5748   2.678   0.894   0.370 -0.8936 -1.2488 -0.5115
   22MOL   H247 5749   2.505   0.796   0.480  1.9095  2.0942 -2.4192
   22MOL   H248 5750   2.364   0.878   0.540  0.1352 -0.5406  2.5016
   22MOL   C249 5751   2.537   0.895   0.673  0.1955  0.4019 -0.8432
   22MOL   C250 5752   2.485   0.785   0.762 -0.2085 -0.0975 -0.1532
   22MOL   C251 5753   2.554   0.702   0.836  0.1774 -0.1851  0.4406
   22MOL   C252 5754   2.481   0.593   0.912  0.0644 -0.2122  0.4922
   22MOL   C253 5755   2.703   0.701   0.867 -0.0146 -0.3753  0.7322
   22MOL   H254 5756   2.501   0.992   0.707 -1.3522  0.1074 -1.5818
   22MOL   H255 5757   2.645   0.895   0.681  0.1546 -3.5164  0.6653
   22MOL   H256 5758   2.377   0.775   0.760 -0.1166 -0.9390 -0.8551
   22MOL   H257 5759   2.485   0.613   1.019 -0.2557  2.0667  0.1100
   22MOL   H258 5760   2.525   0.495   0.895  0.5107 -0.1674  1.3518
   22MOL   H259 5761   2.376   0.591   0.885  0.2087  0.9901 -0.2108
   22MOL   H260 5762   2.717   0.693   0.975 -0.3433  1.3588  0.9090
   22MOL   H261 5763   2.752   0.793   0.836 -0.6689  0.5795  2.4484
   22MOL   H262 5764   2.751   0.618   0.814  0.7381 -0.7379  1.9706
   23MOL     C1 5765   2.027   6.793   1.796 -0.4438 -0.1448 -0.2399
   23MOL     C2 5766   2.006   6.679   1.690  0.4894 -0.1705 -0.6335
   23MOL     C3 5767   2.024   6.546   1.707 -0.4281  0.2420  0.3422
   23MOL     C4 5768   2.010   6.449   1.588 -0.5407  0.2724 -0.8618
   23MOL     C5 5769   2.067   6.476   1.838 -0.2221  0.0514 -1.0701
   23MOL     H6 5770   2.087   6.765   1.883 -0.8965  1.0286  0.4610
   23MOL     H7 5771   2.089   6.873   1.754 -1.1066  1.6150  2.0710
   23MOL     H8 5772   1.988   6.712   1.589 -1.7945  0.9283  0.0906
   23MOL     H9 5773   1.950   6.363   1.618 -0.7619  0.8262  0.3118
   23MOL    H10 5774   2.114   6.423   1.570 -0.7267 -1.1975  0.1419
   23MOL    H11 5775   1.975   6.503   1.499 -5.0196 -1.0663 -0.0496
   23MOL    H12 5776   2.135   6.547   1.885 -1.3129  0.6285 -0.3320
   23MOL    H13 5777   2.118   6.382   1.819  0.8009  0.5209 -0.7239
   23MOL    H14 5778   1.934   6.826   1.841 -1.0969  0.6261 -2.0920
   23MOL    C15 5779   1.947   6.443   1.926 -0.5301 -0.3445 -0.3100
   23MOL    C16 5780   1.975   6.364   2.056 -0.0895  0.7892 -0.0566
   23MOL    C17 5781   1.899   6.272   2.114 -0.5286  0.0677 -0.2888
   23MOL    C18 5782   1.934   6.215   2.251  0.8552  0.2522 -0.3928
   23MOL    C19 5783   1.774   6.226   2.054 -0.5092  1.2675  0.2637
   23MOL    H20 5784   1.871   6.396   1.862 -0.2560  0.0893 -0.9610
   23MOL    H21 5785   1.911   6.540   1.958  1.7949 -0.0121  1.3835
   23MOL    H22 5786   2.064   6.386   2.114  0.7881  1.7796 -1.7402
   23MOL    H23 5787   1.868   6.257   2.327  2.1488  2.8172 -0.6231
   23MOL    H24 5788   2.037   6.243   2.273  1.0724 -0.6355 -0.2675
   23MOL    H25 5789   1.929   6.107   2.260  2.7249  0.0714 -1.3563
   23MOL    H26 5790   1.776   6.117   2.062 -1.0102  1.3188  1.1297
   23MOL    H27 5791   1.778   6.238   1.946  0.6890 -1.7597 -0.0614
   23MOL    C28 5792   1.645   6.274   2.116 -0.5730 -0.4971 -0.5162
   23MOL    C29 5793   1.524   6.216   2.045  0.2981 -0.2900 -0.0340
   23MOL    C30 5794   1.455   6.113   2.087  0.5867 -0.4569  0.2288
   23MOL    C31 5795   1.329   6.070   2.017 -0.3259 -0.3187 -0.2873
   23MOL    C32 5796   1.487   6.025   2.207  0.0898  0.0633 -0.5155
   23MOL    H33 5797   1.631   6.382   2.109 -0.7229 -0.2457  2.7618
   23MOL    H34 5798   1.650   6.258   2.224  1.5701 -0.2678 -0.5584
   23MOL    H35 5799   1.493   6.269   1.956 -0.6042 -0.1252  0.3732
   23MOL    H36 5800   1.246   6.046   2.083 -0.4297 -2.6359 -1.1893
   23MOL    H37 5801   1.350   5.983   1.954 -2.1636  0.2920 -1.7958
   23MOL    H38 5802   1.291   6.142   1.944 -1.1055 -0.0963  0.3347
   23MOL    H39 5803   1.592   6.044   2.230 -0.2736  1.9655 -0.3681
   23MOL    H40 5804   1.469   5.920   2.187 -0.6800  0.1770 -0.4368
   23MOL    C41 5805   1.404   6.062   2.335  0.4277  0.1654 -0.3109
   23MOL    C42 5806   1.429   5.970   2.452 -0.0270 -0.0862 -0.0405
   23MOL    C43 5807   1.466   6.005   2.575  0.0563  0.0228 -0.2342
   23MOL    C44 5808   1.515   5.899   2.671 -0.4519 -0.1246 -0.0770
   23MOL    C45 5809   1.479   6.155   2.621  0.0671  0.4655 -0.5464
   23MOL    H46 5810   1.300   6.077   2.307 -0.2356  0.5950  2.3065
   23MOL    H47 5811   1.431   6.165   2.356 -0.1087  0.3306 -0.4173
   23MOL    H48 5812   1.422   5.865   2.429  3.1715 -0.5666  0.9277
   23MOL    H49 5813   1.475   5.905   2.772 -0.0654 -2.1905  0.2058
   23MOL    H50 5814   1.623   5.891   2.682 -0.7943 -0.8741  3.2318
   23MOL    H51 5815   1.480   5.805   2.629  3.0124 -2.2319  1.5831
   23MOL    H52 5816   1.423   6.229   2.564  1.0044 -1.2716 -3.8134
   23MOL    H53 5817   1.581   6.194   2.617  0.4458 -0.6178 -1.8491
   23MOL    C54 5818   1.433   6.184   2.757  0.2230 -0.0869 -0.3701
   23MOL    C55 5819   1.291   6.127   2.781 -0.1075 -0.1950 -0.1875
   23MOL    C56 5820   1.175   6.196   2.774 -0.2543 -0.3361 -0.3431
   23MOL    C57 5821   1.043   6.121   2.801 -0.1986  0.4483  0.5834
   23MOL    C58 5822   1.163   6.345   2.739  0.0198  0.6524 -0.2371
   23MOL    H59 5823   1.452   6.288   2.783 -2.6201  0.2901  0.4391
   23MOL    H60 5824   1.491   6.131   2.833  0.8773  1.5247  0.2655
   23MOL    H61 5825   1.288   6.023   2.809  0.8698  0.3007  1.8081
   23MOL    H62 5826   0.973   6.189   2.752 -0.2765 -0.8188 -1.0967
   23MOL    H63 5827   1.014   6.104   2.905 -2.7307  3.2134  0.4117
   23MOL    H64 5828   1.036   6.025   2.750  1.1708  1.5987 -1.8611
   23MOL    H65 5829   1.085   6.355   2.663 -0.7701  0.4732  0.5392
   23MOL    H66 5830   1.247   6.388   2.686 -0.8518 -0.3645 -2.5202
   23MOL    C67 5831   1.127   6.427   2.869 -0.7811 -0.5714 -0.4820
   23MOL    C68 5832   1.045   6.546   2.831 -0.3530 -0.5533  0.0206
   23MOL    C69 5833   1.075   6.675   2.834  0.0277  0.4146  0.5740
   23MOL    C70 5834   0.969   6.778   2.796 -0.0695  0.0057 -0.4491
   23MOL    C71 5835   1.208   6.737   2.877 -1.4293 -0.2522  0.2917
   23MOL    H72 5836   1.224   6.442   2.915 -0.3578 -3.1291 -0.4905
   23MOL    H73 5837   1.053   6.381   2.934 -0.5741 -0.3909 -0.1186
   23MOL    H74 5838   0.945   6.518   2.803  0.3655 -1.8846 -1.2996
   23MOL    H75 5839   0.990   6.828   2.702  0.2897 -1.4609 -1.1544
   23MOL    H76 5840   0.952   6.842   2.883  0.8488  0.5586 -0.6724
   23MOL    H77 5841   0.868   6.744   2.774 -1.1217  2.8456 -0.2933
   23MOL    H78 5842   1.262   6.672   2.946  2.2645  2.3100 -0.0114
   23MOL    H79 5843   1.189   6.824   2.939 -0.0869 -1.8172  3.0225
   23MOL    C80 5844   1.301   6.788   2.758  0.3830  0.1966 -0.6360
   23MOL    C81 5845   1.436   6.826   2.822 -0.3714 -0.3448 -0.9171
   23MOL    C82 5846   1.504   6.939   2.798 -0.7775  0.5391  0.1487
   23MOL    C83 5847   1.474   7.050   2.702  0.0243  0.8158  0.1233
   23MOL    C84 5848   1.647   6.953   2.855 -0.0415 -0.1512 -1.1549
   23MOL    H85 5849   1.248   6.864   2.701 -0.4197 -0.0998 -0.2995
   23MOL    H86 5850   1.321   6.701   2.696 -1.3683  0.1813 -1.2061
   23MOL    H87 5851   1.475   6.766   2.903  0.1853 -0.2126 -1.0813
   23MOL    H88 5852   1.534   7.015   2.618  1.3091 -3.5603  2.6538
   23MOL    H89 5853   1.488   7.146   2.750  2.8102  0.8861 -0.7833
   23MOL    H90 5854   1.371   7.048   2.666  0.2480 -0.2791 -0.4979
   23MOL    H91 5855   1.707   6.996   2.776 -1.5410  0.4641 -1.9640
   23MOL    H92 5856   1.699   6.859   2.878  0.2704  0.6665  1.7026
   23MOL    C93 5857   1.642   7.051   2.975 -0.2454  0.1905  0.9909
   23MOL    C94 5858   1.777   7.068   3.037  0.1862 -0.0315  0.2452
   23MOL    C95 5859   1.829   7.018   3.150  0.4368 -0.7320 -0.5642
   23MOL    C96 5860   1.972   7.044   3.201 -0.5563 -0.0090  0.1031
   23MOL    C97 5861   1.758   6.923   3.239 -0.3010  0.5812  0.6937
   23MOL    H98 5862   1.568   7.014   3.046 -0.8428 -0.9012 -0.1634
   23MOL    H99 5863   1.618   7.156   2.961 -0.4264  0.3675  2.5652
   23MOL   H100 5864   1.839   7.137   2.983 -0.5664  1.4631  1.2653
   23MOL   H101 5865   2.032   7.102   3.130 -0.8245 -1.5622 -1.4408
   23MOL   H102 5866   1.973   7.096   3.297 -1.3231 -0.5793  0.4233
   23MOL   H103 5867   2.030   6.953   3.211 -0.3045  0.3237  1.8044
   23MOL   H104 5868   1.651   6.938   3.232  0.0660  3.0846 -0.0612
   23MOL   H105 5869   1.788   6.949   3.341 -0.4980 -0.1690  0.9403
   23MOL   C106 5870   1.792   6.775   3.199 -0.8548 -0.6014  0.1212
   23MOL   C107 5871   1.745   6.678   3.304  0.1343 -0.6720 -0.7747
   23MOL   C108 5872   1.771   6.548   3.304  0.2201 -0.0449  0.4698
   23MOL   C109 5873   1.862   6.477   3.208 -0.3935  0.0728  0.2846
   23MOL   C110 5874   1.723   6.467   3.422 -0.4687 -0.1079 -0.5577
   23MOL   H111 5875   1.898   6.765   3.177 -1.1340 -0.9117 -1.1201
   23MOL   H112 5876   1.740   6.741   3.110 -2.5697 -3.4292  2.0975
   23MOL   H113 5877   1.664   6.712   3.366 -1.4701 -1.2249 -2.5342
   23MOL   H114 5878   1.803   6.412   3.143 -0.2055 -0.0697  0.2560
   23MOL   H115 5879   1.910   6.541   3.134  0.1237  1.4822  1.8018
   23MOL   H116 5880   1.950   6.432   3.252 -0.6283 -2.5597 -1.8098
   23MOL   H117 5881   1.706   6.372   3.372  2.3881  0.8392 -3.5145
   23MOL   H118 5882   1.646   6.508   3.487  0.0824  0.3859 -0.2046
   23MOL   C119 5883   1.833   6.442   3.522 -0.4264  0.0172 -0.1699
   23MOL   C120 5884   1.807   6.335   3.624  0.1099 -0.8809 -0.2606
   23MOL   C121 5885   1.754   6.347   3.750  0.7858  0.5278  0.1088
   23MOL   C122 5886   1.730   6.225   3.844  0.5635  0.1556 -0.3644
   23MOL   C123 5887   1.719   6.477   3.817 -0.2371 -0.7184  0.0289
   23MOL   H124 5888   1.863   6.535   3.570  2.3316 -1.6948  1.5114
   23MOL   H125 5889   1.930   6.421   3.477 -0.7253 -0.7473 -0.4685
   23MOL   H126 5890   1.818   6.235   3.586  1.2260 -0.6848 -0.4812
   23MOL   H127 5891   1.768   6.234   3.946 -1.9158  1.0587  0.5037
   23MOL   H128 5892   1.755   6.127   3.802 -0.7513 -0.0974 -0.5722
   23MOL   H129 5893   1.624   6.236   3.865  0.3177 -1.8735 -0.4502
   23MOL   H130 5894   1.618   6.466   3.858 -0.5400 -0.2522 -0.5972
   23MOL   H131 5895   1.734   6.563   3.752  0.2242 -0.5790  0.3109
   23MOL   C132 5896   1.822   6.513   3.931  0.1950 -0.1506  0.6310
   23MOL   C133 5897   1.791   6.638   4.012  0.1452 -0.2233 -0.5111
   23MOL   C134 5898   1.861   6.757   4.021 -0.1432  0.7445 -0.2235
   23MOL   C135 5899   1.808   6.869   4.116 -0.4137  0.0116 -0.6027
   23MOL   C136 5900   1.995   6.786   3.947 -0.0829  0.3181 -0.2395
   23MOL   H137 5901   1.919   6.524   3.882 -0.0230  0.9220  0.4347
   23MOL   H138 5902   1.826   6.426   3.997 -1.3740 -1.5293 -1.0142
   23MOL   H139 5903   1.702   6.625   4.073 -0.3507  1.1668 -0.9112
   23MOL   H140 5904   1.877   6.897   4.196  0.9352  0.4175 -1.8778
   23MOL   H141 5905   1.707   6.843   4.148 -0.6425  1.4694 -0.1123
   23MOL   H142 5906   1.792   6.962   4.061  3.1312  0.7392 -0.5614
   23MOL   H143 5907   1.981   6.877   3.888 -0.4904  0.6531  0.3637
   23MOL   H144 5908   1.997   6.710   3.870 -1.6727  2.0609 -2.0482
   23MOL   C145 5909   2.118   6.779   4.034 -0.2820 -0.3142  0.0328
   23MOL   C146 5910   2.236   6.803   3.951  0.0734 -0.1721  0.1266
   23MOL   C147 5911   2.316   6.911   3.952 -0.0470 -0.9602 -0.5665
   23MOL   C148 5912   2.421   6.938   3.845 -0.4353  0.8737  0.3827
   23MOL   C149 5913   2.292   7.034   4.045  0.2674  0.0654 -0.0172
   23MOL   H150 5914   2.129   6.678   4.074 -0.2147 -0.1260  0.4905
   23MOL   H151 5915   2.100   6.845   4.118 -0.8434 -0.3155 -0.0834
   23MOL   H152 5916   2.264   6.730   3.877 -0.5345 -0.6557  0.3704
   23MOL   H153 5917   2.515   6.965   3.893  0.5192  0.9936 -1.4876
   23MOL   H154 5918   2.386   7.010   3.771 -0.8697  0.4191  0.1419
   23MOL   H155 5919   2.445   6.852   3.781  1.8259  0.0054  2.3331
   23MOL   H156 5920   2.390   7.081   4.055 -0.0599  1.2070 -1.9053
   23MOL   H157 5921   2.268   7.010   4.149 -0.7634 -1.7468 -0.6420
   23MOL   C158 5922   2.194   7.136   3.984  0.3144  0.1692 -0.5039
   23MOL   C159 5923   2.202   7.268   4.055 -0.0385 -0.6945 -0.1487
   23MOL   C160 5924   2.220   7.383   3.989  0.0246 -0.6787 -0.1978
   23MOL   C161 5925   2.257   7.403   3.843 -0.2918  0.6109  0.6451
   23MOL   C162 5926   2.192   7.512   4.066 -0.0168  0.3325 -0.5972
   23MOL   H163 5927   2.091   7.099   3.995 -0.0288  1.0076 -0.8693
   23MOL   H164 5928   2.204   7.146   3.876  2.4726  0.7048 -0.2800
   23MOL   H165 5929   2.173   7.257   4.158  1.0006 -1.8611  0.0281
   23MOL   H166 5930   2.290   7.312   3.792  0.8825 -0.2131  2.8110
   23MOL   H167 5931   2.335   7.478   3.834 -0.4713  0.7059 -0.1199
   23MOL   H168 5932   2.174   7.441   3.784  0.7672  0.8116 -0.7283
   23MOL   H169 5933   2.152   7.496   4.166  0.7156  0.5958 -0.2588
   23MOL   H170 5934   2.114   7.560   4.007  0.4101  1.7233 -0.0491
   23MOL   C171 5935   2.318   7.594   4.093  0.0473 -0.0792  0.9719
   23MOL   C172 5936   2.296   7.689   4.211  0.0283 -0.3271  0.1170
   23MOL   C173 5937   2.237   7.806   4.208  0.4442 -0.3883 -0.1734
   23MOL   C174 5938   2.175   7.856   4.081 -0.7559  0.1740 -0.0955
   23MOL   C175 5939   2.223   0.009   4.330  0.5564  0.3515 -0.6803
   23MOL   H176 5940   2.362   7.658   4.017  2.0767 -0.2377  1.9677
   23MOL   H177 5941   2.396   7.520   4.112 -0.4699 -0.8415  0.1438
   23MOL   H178 5942   2.334   7.658   4.307 -0.3977 -0.7787  0.1365
   23MOL   H179 5943   2.204   7.804   3.990 -0.6180 -0.8559  0.5407
   23MOL   H180 5944   2.204   0.082   4.070  0.9360  0.0111  2.5166
   23MOL   H181 5945   2.066   7.851   4.079 -0.7008 -0.9596 -0.5413
   23MOL   H182 5946   2.257   0.112   4.317 -3.1027  1.7041  0.0018
   23MOL   H183 5947   2.287   7.849   4.409  0.2169  0.6546 -0.2556
   23MOL   C184 5948   2.077   0.006   4.380  0.4569  0.4118 -0.4712
   23MOL   C185 5949   2.052   0.080   4.512  0.6531  0.3919 -0.3757
   23MOL   C186 5950   1.958   0.052   4.605 -0.6096 -0.3780 -0.4130
   23MOL   C187 5951   1.946   0.141   4.728 -0.3448  0.0086  0.6382
   23MOL   C188 5952   1.857   7.817   4.590 -0.1891  0.1444 -0.3076
   23MOL   H189 5953   2.045   7.782   4.392 -2.2199  1.2614  0.2134
   23MOL   H190 5954   2.017   0.051   4.301 -0.7070 -2.0624 -1.0457
   23MOL   H191 5955   2.114   0.163   4.543  1.0769 -0.1192  0.1595
   23MOL   H192 5956   1.939   0.080   4.818 -1.6105 -0.3225  0.3234
   23MOL   H193 5957   1.849   0.190   4.723  0.0918  0.8822  0.7453
   23MOL   H194 5958   2.028   0.211   4.746 -0.5102  0.3274  0.1724
   23MOL   H195 5959   1.851   7.782   4.487  2.1208 -0.5118 -0.2599
   23MOL   H196 5960   1.765   7.855   4.636  0.1947  1.4428 -0.5795
   23MOL   C197 5961   1.888   7.695   4.677 -0.1581 -0.7948  0.3264
   23MOL   C198 5962   1.785   7.588   4.662 -0.1405 -0.4926  0.3443
   23MOL   C199 5963   1.713   7.514   4.746  0.0228 -0.0868  0.0111
   23MOL   C200 5964   1.615   7.410   4.691 -0.0918 -0.8880  0.1145
   23MOL   C201 5965   1.736   7.518   4.901  0.6453 -0.3100 -0.3326
   23MOL   H202 5966   1.906   7.723   4.781  2.1986 -1.4757  0.1245
   23MOL   H203 5967   1.974   7.635   4.646 -0.1326 -2.2660  3.0702
   23MOL   H204 5968   1.771   7.571   4.557  2.3671  0.7965 -0.2435
   23MOL   H205 5969   1.659   7.315   4.664  2.8745  0.2531  0.7157
   23MOL   H206 5970   1.564   7.445   4.602  2.6587  0.9671 -0.8169
   23MOL   H207 5971   1.544   7.380   4.768  0.2823 -1.5577  0.2026
   23MOL   H208 5972   1.830   7.565   4.928 -0.2467  1.6018 -0.4881
   23MOL   H209 5973   1.745   7.414   4.932  0.2063 -0.4572 -0.6819
   23MOL   C210 5974   1.619   7.600   4.972  0.5475  0.1886  1.0395
   23MOL   C211 5975   1.607   7.752   4.928  0.2162  0.2065 -0.0497
   23MOL   C212 5976   1.633   7.863   4.993 -0.2480  0.1266 -0.4909
   23MOL   C213 5977   1.613   0.120   4.928 -0.5415 -0.5328  0.1265
   23MOL   C214 5978   1.692   7.870   5.136 -0.0039  0.2868 -0.1804
   23MOL   H215 5979   1.648   7.599   5.077 -0.2958  1.4682  1.2941
   23MOL   H216 5980   1.520   7.556   4.957 -0.0304  1.3653  1.3700
   23MOL   H217 5981   1.578   7.763   4.825 -0.0606  3.4673  0.3137
   23MOL   H218 5982   1.586   0.108   4.823 -1.7158  0.4500  0.3057
   23MOL   H219 5983   1.710   0.169   4.916 -1.0884  0.3871 -0.5995
   23MOL   H220 5984   1.536   0.180   4.976 -0.6594  1.0082 -1.9459
   23MOL   H221 5985   1.663   7.787   5.200  1.2950 -0.4591 -0.5452
   23MOL   H222 5986   1.642   0.075   5.185  0.0852 -0.5244  1.3545
   23MOL   C223 5987   1.843   0.002   5.123 -0.1054 -0.4174 -0.1088
   23MOL   C224 5988   1.915   0.005   5.254  1.1979 -0.1563  0.2997
   23MOL   C225 5989   1.993   0.106   5.303  0.2626  0.2785  0.1957
   23MOL   C226 5990   2.075   0.101   5.430  0.1127 -0.3112  0.3352
   23MOL   C227 5991   2.023   0.226   5.215  0.2125 -0.3634 -0.2953
   23MOL   H228 5992   1.869   0.086   5.059  0.7600 -1.3645 -1.0092
   23MOL   H229 5993   1.885   7.794   5.073 -1.1939 -1.0640  0.1091
   23MOL   H230 5994   1.909   7.793   5.311 -2.5408  1.0947  2.0615
   23MOL   H231 5995   2.027   0.039   5.506  2.2396 -2.3110  0.1070
   23MOL   H232 5996   2.093   0.201   5.470 -1.0025 -0.2864  0.8130
   23MOL   H233 5997   2.168   0.055   5.398 -1.3149 -1.3427 -2.4765
   23MOL   H234 5998   2.029   0.312   5.281 -0.1496  0.5078 -1.3988
   23MOL   H235 5999   1.937   0.253   5.154  2.2154  1.9222 -2.2078
   23MOL   C236 6000   2.152   0.218   5.138 -0.3617 -0.2130 -0.2154
   23MOL   C237 6001   2.144   0.305   5.014  0.1294  0.1226 -0.1678
   23MOL   C238 6002   2.247   0.343   4.935 -0.0997  0.0249 -0.2915
   23MOL   C239 6003   2.228   0.418   4.805  0.1237 -0.6096  0.2801
   23MOL   C240 6004   2.390   0.290   4.946 -0.7513  0.6760 -0.2064
   23MOL   H241 6005   2.171   0.113   5.114 -0.9004 -0.5902  0.9764
   23MOL   H242 6006   2.233   0.246   5.204 -0.3070  0.2762 -0.4928
   23MOL   H243 6007   2.044   0.340   4.989 -0.5095  0.0074  2.1141
   23MOL   H244 6008   2.309   0.471   4.756 -2.0616 -0.1640 -3.0495
   23MOL   H245 6009   2.149   0.494   4.806 -0.7020 -1.4284 -0.8099
   23MOL   H246 6010   2.195   0.346   4.730  0.5659 -1.6086  1.0357
   23MOL   H247 6011   2.405   0.231   4.855 -1.3096  0.4782 -0.1693
   23MOL   H248 6012   2.393   0.222   5.031 -1.8375  2.6339  1.4083
   23MOL   C249 6013   2.498   0.397   4.952 -0.0981 -0.3386  0.1249
   23MOL   C250 6014   2.633   0.331   4.914 -0.3066  0.3907  0.9166
   23MOL   C251 6015   2.677   0.305   4.791  0.3632 -0.3029  0.1000
   23MOL   C252 6016   2.820   0.252   4.774  0.2014  0.1336 -0.0163
   23MOL   C253 6017   2.596   0.316   4.667 -0.1548 -0.5503  0.3963
   23MOL   H254 6018   2.510   0.454   5.044  0.5347 -1.7122  0.9033
   23MOL   H255 6019   2.481   0.474   4.877 -2.2157 -0.6538  0.2366
   23MOL   H256 6020   2.704   0.305   4.992  1.2367  1.8067  0.0345
   23MOL   H257 6021   2.869   0.251   4.872  1.8210  0.3512 -0.8030
   23MOL   H258 6022   2.885   0.300   4.701  2.4429 -0.8706  1.2650
   23MOL   H259 6023   2.820   0.148   4.739 -3.2371  0.2327 -0.5030
   23MOL   H260 6024   2.577   0.219   4.621  0.2542  0.5885 -2.2712
   23MOL   H261 6025   2.656   0.367   4.591 -0.3664 -1.5640 -0.4804
   23MOL   H262 6026   2.496   0.356   4.680  0.9894  2.8238 -0.7768
   24MOL     C1 6027   7.876   2.434   6.174 -0.2473 -0.3610  0.0905
   24MOL     C2 6028   7.744   2.417   6.100 -0.8399 -0.1635 -0.5356
   24MOL     C3 6029   7.636   2.367   6.156  0.9633 -0.7654 -0.1700
   24MOL     C4 6030   7.519   2.346   6.068 -0.7361 -0.0724  0.2748
   24MOL     C5 6031   7.613   2.339   6.304  0.7649 -0.2722  0.1533
   24MOL     H6 6032   7.875   2.529   6.229  1.7925 -1.1914  1.6461
   24MOL     H7 6033   0.014   2.352   6.244  0.3510 -0.1386  0.2143
   24MOL     H8 6034   7.742   2.443   5.995  0.4775  1.7055 -0.1138
   24MOL     H9 6035   7.470   2.444   6.066 -0.7673 -0.1061 -1.0715
   24MOL    H10 6036   7.457   2.261   6.097 -2.1033  1.4828  2.0821
   24MOL    H11 6037   7.549   2.334   5.964  1.1832  0.2799  0.7685
   24MOL    H12 6038   7.528   2.394   6.344  2.4308  2.8074 -0.3920
   24MOL    H13 6039   7.699   2.363   6.366 -1.6428 -0.4206  3.6674
   24MOL    H14 6040   0.077   2.417   6.101 -1.2029  1.0378 -1.3104
   24MOL    C15 6041   7.587   2.194   6.326  0.7198  0.0846 -0.8562
   24MOL    C16 6042   7.708   2.111   6.334 -0.1053  0.2132 -0.4339
   24MOL    C17 6043   7.769   2.069   6.449 -0.2559 -0.1512 -0.3633
   24MOL    C18 6044   0.020   1.984   6.443  0.0267 -0.3466 -0.0255
   24MOL    C19 6045   7.725   2.100   6.593  0.2533 -0.0084  0.0757
   24MOL    H20 6046   7.519   2.148   6.254 -0.0575 -1.2844  0.7165
   24MOL    H21 6047   7.527   2.179   6.415 -1.1690  1.8360 -1.7931
   24MOL    H22 6048   7.764   2.093   6.244 -0.3376  0.0498 -0.5474
   24MOL    H23 6049   7.878   1.889   6.492  1.6344  0.2229  1.8346
   24MOL    H24 6050   0.103   2.045   6.478 -0.6623  1.7915 -1.9760
   24MOL    H25 6051   0.041   1.973   6.337 -2.1490  0.1328 -0.5276
   24MOL    H26 6052   7.671   2.195   6.595  0.0521 -0.1325  0.7652
   24MOL    H27 6053   7.814   2.116   6.654 -0.8920 -0.0638  1.8153
   24MOL    C28 6054   7.644   1.991   6.663  0.4306 -0.1242  0.1707
   24MOL    C29 6055   7.652   2.002   6.816  0.0428 -0.0156  0.3284
   24MOL    C30 6056   7.557   2.026   6.903 -0.1344 -0.0478 -0.2154
   24MOL    C31 6057   7.581   2.037   7.053  0.0666  0.2553  0.8160
   24MOL    C32 6058   7.418   2.069   6.862  0.2456  0.6608 -0.3849
   24MOL    H33 6059   7.690   1.896   6.636 -2.2207 -0.9697 -1.4904
   24MOL    H34 6060   7.542   2.006   6.630  0.3093 -0.0335  0.5806
   24MOL    H35 6061   7.748   1.984   6.863  0.5042 -1.1548 -1.0214
   24MOL    H36 6062   7.510   1.965   7.093 -1.2419 -0.1897 -2.1679
   24MOL    H37 6063   7.555   2.136   7.091 -1.9378 -0.7195  2.0505
   24MOL    H38 6064   7.681   2.006   7.085  0.4170  0.3673 -0.1460
   24MOL    H39 6065   7.353   2.056   6.949  0.7216  1.7431  0.1420
   24MOL    H40 6066   7.377   2.013   6.778 -0.0967 -0.6003  0.6016
   24MOL    C41 6067   7.408   2.218   6.842  0.1824 -0.5505  0.3856
   24MOL    C42 6068   7.263   2.269   6.843  0.6540  0.0483  0.2131
   24MOL    C43 6069   7.183   2.299   6.741 -0.1104  0.7362  0.2819
   24MOL    C44 6070   7.038   2.343   6.771  0.1481  0.2523 -0.0379
   24MOL    C45 6071   7.214   2.306   6.593 -0.5334  0.0178 -0.3161
   24MOL    H46 6072   7.447   2.248   6.744  1.2417  0.2351  1.0261
   24MOL    H47 6073   7.472   2.270   6.913  0.2696  0.1139 -0.1629
   24MOL    H48 6074   7.212   2.268   6.938  0.4457  0.3988  0.1058
   24MOL    H49 6075   7.002   2.303   6.865  1.7528 -0.9723  0.0892
   24MOL    H50 6076   6.965   2.299   6.704  0.1163  2.7074 -1.7073
   24MOL    H51 6077   7.028   2.451   6.762 -1.6429  0.1526  0.5975
   24MOL    H52 6078   7.312   2.352   6.590  0.2170 -1.4374  1.5436
   24MOL    H53 6079   7.147   2.379   6.547  1.0530 -0.3925 -3.3883
   24MOL    C54 6080   7.203   2.162   6.530 -0.1347  0.0882 -0.3187
   24MOL    C55 6081   7.222   2.165   6.376  0.8122 -0.3469 -0.3437
   24MOL    C56 6082   7.135   2.117   6.284 -0.6182 -0.0654  0.4106
   24MOL    C57 6083   7.168   2.124   6.134 -0.4941 -0.0658  0.3078
   24MOL    C58 6084   6.997   2.056   6.313  0.2558 -0.3832 -0.6022
   24MOL    H59 6085   7.114   2.114   6.571  0.0224  0.2003  0.1446
   24MOL    H60 6086   7.280   2.098   6.573 -1.1796  0.7657  2.6515
   24MOL    H61 6087   7.317   2.207   6.351  1.1652 -0.9934 -0.1178
   24MOL    H62 6088   7.085   2.182   6.094  0.8043  2.5433  1.2640
   24MOL    H63 6089   7.171   2.024   6.091  0.2763  0.0342  0.1228
   24MOL    H64 6090   7.254   2.184   6.103  0.2184 -1.0664  0.3278
   24MOL    H65 6091   6.997   2.048   6.422  0.8518 -0.2155 -0.5879
   24MOL    H66 6092   6.996   1.955   6.273 -2.3432 -0.5951 -0.1243
   24MOL    C67 6093   6.880   2.151   6.264 -0.3183  0.3539 -0.8507
   24MOL    C68 6094   6.876   2.284   6.325 -0.7648 -0.7778 -0.5349
   24MOL    C69 6095   6.771   2.362   6.359 -0.1649 -0.6215 -0.1403
   24MOL    C70 6096   6.794   2.495   6.427 -0.2650  0.2279  0.3068
   24MOL    C71 6097   6.628   2.327   6.324 -0.5558  0.2245 -0.1018
   24MOL    H72 6098   6.783   2.105   6.288  1.0607 -2.3940 -0.2765
   24MOL    H73 6099   6.863   2.148   6.156 -1.0242  0.6523 -0.7506
   24MOL    H74 6100   6.975   2.320   6.347 -0.9599 -1.2672  1.2248
   24MOL    H75 6101   6.775   2.573   6.353 -1.4478 -0.0680  0.2994
   24MOL    H76 6102   6.896   2.509   6.464 -0.3101 -1.9749  1.3212
   24MOL    H77 6103   6.729   2.501   6.514  1.3243 -3.1875  1.8292
   24MOL    H78 6104   6.615   2.241   6.258  0.6552  0.0631 -0.1334
   24MOL    H79 6105   6.584   2.408   6.266 -3.4175 -0.6079  0.8051
   24MOL    C80 6106   6.555   2.302   6.452  0.4876  0.3277  0.3738
   24MOL    C81 6107   6.633   2.239   6.565  0.3968  0.0576  0.0720
   24MOL    C82 6108   6.644   2.106   6.598 -0.5837 -0.2562  0.1979
   24MOL    C83 6109   6.574   1.991   6.527  0.3383  0.4880  0.1367
   24MOL    C84 6110   6.712   2.061   6.724 -0.4282  0.4586 -0.5857
   24MOL    H85 6111   6.470   2.239   6.427 -0.0331  0.8991  0.6873
   24MOL    H86 6112   6.508   2.392   6.493 -0.2919 -0.2773  0.8204
   24MOL    H87 6113   6.693   2.307   6.624  1.5561 -0.5804 -0.3415
   24MOL    H88 6114   6.520   1.941   6.607 -1.2365  1.7700 -0.0850
   24MOL    H89 6115   6.663   1.934   6.504 -0.8975 -1.1202 -0.7399
   24MOL    H90 6116   6.512   2.005   6.438 -1.0125 -0.7950  0.8638
   24MOL    H91 6117   6.644   1.995   6.776  1.3629 -0.4309  0.6728
   24MOL    H92 6118   6.751   2.139   6.790  1.8465 -1.6147  0.5991
   24MOL    C93 6119   6.840   1.973   6.694 -0.2510  0.3730 -0.3144
   24MOL    C94 6120   6.927   1.946   6.815  0.6546  0.3672 -0.0568
   24MOL    C95 6121   7.031   1.857   6.824 -0.1743 -0.6995  0.3301
   24MOL    C96 6122   7.108   1.850   6.957  0.1459  0.6714  0.8763
   24MOL    C97 6123   7.085   1.776   6.707  0.9563  0.3163 -0.2264
   24MOL    H98 6124   6.897   2.039   6.629  0.3440 -1.4479 -1.6803
   24MOL    H99 6125   6.807   1.882   6.644 -2.4389  0.6864  0.5107
   24MOL   H100 6126   6.904   2.013   6.896 -0.4301  0.0483 -0.0950
   24MOL   H101 6127   7.211   1.831   6.924 -0.1821  0.9321 -0.3160
   24MOL   H102 6128   7.116   1.950   6.997  1.0343  1.9446 -2.2766
   24MOL   H103 6129   7.064   1.783   7.030 -2.4657  2.9215  1.4296
   24MOL   H104 6130   7.193   1.793   6.704  1.3070 -1.4964  1.6020
   24MOL   H105 6131   7.059   1.824   6.612  0.5545 -0.6403 -0.6065
   24MOL   C106 6132   7.036   1.634   6.698  0.1792 -0.1033  0.2756
   24MOL   C107 6133   7.130   1.542   6.618  0.4787 -0.1498 -0.9847
   24MOL   C108 6134   7.096   1.456   6.519 -0.6207 -1.0358  0.0099
   24MOL   C109 6135   6.956   1.444   6.456  0.6241 -0.5102  0.2970
   24MOL   C110 6136   7.198   1.372   6.446  0.4488 -1.1880  0.5141
   24MOL   H111 6137   6.932   1.623   6.669  0.0637 -1.5357  1.1608
   24MOL   H112 6138   7.041   1.606   6.804  1.4775 -1.2051 -0.0524
   24MOL   H113 6139   7.232   1.546   6.655 -0.1481  0.0287  0.7338
   24MOL   H114 6140   6.898   1.521   6.507  1.3470  0.3747 -0.1982
   24MOL   H115 6141   6.962   1.478   6.353 -0.1387 -1.3741 -0.0443
   24MOL   H116 6142   6.914   1.343   6.460 -1.0744  0.0971 -1.3247
   24MOL   H117 6143   7.182   1.379   6.338 -0.9178  1.3477  0.8504
   24MOL   H118 6144   7.162   1.273   6.473  2.6200 -1.3156  3.1977
   24MOL   C119 6145   7.346   1.384   6.481  0.0455  0.4991 -0.1459
   24MOL   C120 6146   7.425   1.290   6.388  0.7395 -0.6067  0.7529
   24MOL   C121 6147   7.466   1.167   6.419 -0.1941  0.1086  0.2493
   24MOL   C122 6148   7.522   1.077   6.309  0.0545 -0.2550  0.3715
   24MOL   C123 6149   7.470   1.104   6.556 -0.1531 -0.4712 -0.0006
   24MOL   H124 6150   7.366   1.362   6.585  0.5167 -3.0219 -0.9007
   24MOL   H125 6151   7.377   1.484   6.450  2.1716 -0.6699 -2.0048
   24MOL   H126 6152   7.424   1.328   6.287 -0.3039 -1.8687  0.2681
   24MOL   H127 6153   7.630   1.063   6.319  0.0279  0.1047  1.2539
   24MOL   H128 6154   7.489   1.098   6.207  1.3203 -0.4727 -0.0892
   24MOL   H129 6155   7.483   0.976   6.324 -1.9018  0.5059  0.5249
   24MOL   H130 6156   7.489   1.175   6.637  3.4853 -1.3138 -0.0277
   24MOL   H131 6157   7.557   1.040   6.559  1.7055  1.8922 -1.7055
   24MOL   C132 6158   7.346   1.019   6.574 -0.0824  0.2790  0.3249
   24MOL   C133 6159   7.355   0.927   6.698  0.0344 -0.3191  0.3995
   24MOL   C134 6160   7.336   0.969   6.824 -0.2507 -0.1199 -0.1225
   24MOL   C135 6161   7.344   0.864   6.928  1.3142  0.0037 -0.0649
   24MOL   C136 6162   7.298   1.113   6.865  0.0212  0.3722  0.0401
   24MOL   H137 6163   7.328   0.952   6.490 -0.5436  0.7711  0.0308
   24MOL   H138 6164   7.265   1.091   6.587 -0.4956 -0.1856  0.3470
   24MOL   H139 6165   7.382   0.824   6.678 -0.6237 -0.4906  0.4131
   24MOL   H140 6166   7.350   0.762   6.890  3.6158 -0.2683  0.8892
   24MOL   H141 6167   7.257   0.874   6.993  2.4455  1.7725  1.2447
   24MOL   H142 6168   7.437   0.890   6.979  0.2077  2.5837  0.6774
   24MOL   H143 6169   7.205   1.117   6.923  0.3376  2.5415  0.4356
   24MOL   H144 6170   7.289   1.173   6.775 -0.3129 -1.0939 -0.9290
   24MOL   C145 6171   7.394   1.179   6.964 -0.5124  0.3938 -0.3330
   24MOL   C146 6172   7.343   1.300   7.033  0.8558  0.0161 -0.1935
   24MOL   C147 6173   7.378   1.433   7.019 -0.3230  0.3659  0.0473
   24MOL   C148 6174   7.315   1.541   7.110  0.1429  0.4652 -0.5972
   24MOL   C149 6175   7.486   1.487   6.922  0.4137  0.8427 -0.1849
   24MOL   H150 6176   7.488   1.206   6.917 -0.6182 -1.2033 -1.4750
   24MOL   H151 6177   7.419   1.110   7.045  0.3456  0.4201 -0.5668
   24MOL   H152 6178   7.274   1.279   7.113  0.2567 -0.9961 -0.9781
   24MOL   H153 6179   7.281   1.623   7.048  1.1960  1.8687  0.6469
   24MOL   H154 6180   7.388   1.578   7.181 -0.3551 -1.0446  0.7424
   24MOL   H155 6181   7.229   1.511   7.169  0.1242  1.2980 -0.2059
   24MOL   H156 6182   7.427   1.539   6.846 -1.1971  0.3052  0.6668
   24MOL   H157 6183   7.548   1.410   6.875 -0.5999  0.1483 -0.3991
   24MOL   C158 6184   7.579   1.582   6.995 -0.0055  0.7881 -0.0453
   24MOL   C159 6185   7.700   1.610   6.905 -0.7371 -0.1744 -0.0682
   24MOL   C160 6186   7.833   1.605   6.929  0.3117  1.0194  0.3663
   24MOL   C161 6187   0.002   1.575   7.074  0.4002 -0.1173 -0.0097
   24MOL   C162 6188   0.048   1.623   6.812 -0.4462 -0.0824  0.3810
   24MOL   H163 6189   7.616   1.538   7.087  3.1037 -0.4356 -1.8109
   24MOL   H164 6190   7.524   1.675   7.012 -0.4654  0.5656 -0.2896
   24MOL   H165 6191   7.672   1.638   6.805 -0.3141  0.5198 -0.0009
   24MOL   H166 6192   7.824   1.496   7.122 -0.6344  1.8005  2.0030
   24MOL   H167 6193   7.879   1.665   7.136 -0.6309  0.1549 -0.4308
   24MOL   H168 6194   0.104   1.536   7.068 -0.2602 -2.3007  2.0063
   24MOL   H169 6195   7.870   1.655   6.725  2.2873  0.7184 -1.1589
   24MOL   H170 6196   0.087   1.525   6.786  1.2024  1.0568 -1.5464
   24MOL   C171 6197   0.161   1.727   6.826 -0.9592 -0.1769  0.1006
   24MOL   C172 6198   0.262   1.717   6.721  0.7501  0.3004 -0.1162
   24MOL   C173 6199   0.350   1.811   6.682 -0.3016 -0.2111  0.6533
   24MOL   C174 6200   0.369   1.939   6.757  0.2356 -0.3149  0.6089
   24MOL   C175 6201   0.451   1.792   6.570  0.1072  0.9159 -0.0231
   24MOL   H176 6202   0.217   1.687   6.911  1.6806  0.5452 -1.2401
   24MOL   H177 6203   0.137   1.832   6.836  3.1965  1.0608 -1.8187
   24MOL   H178 6204   0.254   1.622   6.668  1.5578 -0.2348  0.7026
   24MOL   H179 6205   0.293   1.958   6.834 -1.8263 -0.2529 -1.4073
   24MOL   H180 6206   0.356   2.018   6.684 -0.0154 -2.0762 -1.2775
   24MOL   H181 6207   0.465   1.949   6.808  0.4460 -1.5890  0.4646
   24MOL   H182 6208   0.447   1.691   6.528  1.9309  0.3705  1.0596
   24MOL   H183 6209   0.547   1.804   6.620 -0.0627 -1.2772  0.9015
   24MOL   C184 6210   0.434   1.886   6.451 -0.4371 -0.0278  0.0848
   24MOL   C185 6211   0.531   1.864   6.337 -0.5959 -0.5849 -0.1979
   24MOL   C186 6212   0.506   1.830   6.212  0.0724 -0.1280 -0.0356
   24MOL   C187 6213   0.621   1.804   6.118 -0.8159  0.0998  0.3830
   24MOL   C188 6214   0.374   1.799   6.150 -0.3437 -1.0191  0.0392
   24MOL   H189 6215   0.473   1.981   6.489  0.0622  0.1394 -0.8324
   24MOL   H190 6216   0.332   1.912   6.422  0.3138  3.2348  0.1272
   24MOL   H191 6217   0.636   1.877   6.358 -0.5070 -0.1038 -0.9092
   24MOL   H192 6218   0.716   1.837   6.162 -0.4383 -0.7065  0.1883
   24MOL   H193 6219   0.609   1.873   6.035 -0.8383 -0.1402  0.1890
   24MOL   H194 6220   0.620   1.698   6.094 -0.4095  0.1067  0.3347
   24MOL   H195 6221   0.295   1.820   6.222  0.5576 -0.3740  0.8538
   24MOL   H196 6222   0.366   1.693   6.126 -0.6806 -0.8032 -0.8367
   24MOL   C197 6223   0.354   1.900   6.035  0.8011  0.4530 -0.0830
   24MOL   C198 6224   0.384   2.041   6.075 -0.6981 -0.3429  0.1793
   24MOL   C199 6225   0.302   2.148   6.070  0.4361  0.1708  0.0438
   24MOL   C200 6226   0.361   2.281   6.124 -0.7971  0.4705 -0.0143
   24MOL   C201 6227   0.160   2.150   6.014 -0.3652 -0.4320  0.4179
   24MOL   H202 6228   0.253   1.877   6.001  0.3186  0.4226  1.3658
   24MOL   H203 6229   0.421   1.874   5.953 -2.0347 -1.6148 -1.8342
   24MOL   H204 6230   0.480   2.067   6.116 -0.6685  1.5258 -0.9810
   24MOL   H205 6231   0.312   2.325   6.211  1.4351 -0.2600  1.6565
   24MOL   H206 6232   0.364   2.350   6.040  1.7479  0.7571  0.2842
   24MOL   H207 6233   0.466   2.278   6.150 -1.3657 -0.6763  2.3172
   24MOL   H208 6234   0.089   2.193   6.085 -1.2676  0.1472 -0.8182
   24MOL   H209 6235   0.125   2.047   6.011 -0.1982 -0.4640 -1.0606
   24MOL   C210 6236   0.161   2.214   5.875  0.6024  0.5690 -0.8762
   24MOL   C211 6237   0.022   2.215   5.817 -0.8509  0.9173  0.2694
   24MOL   C212 6238   7.861   2.199   5.691  0.4383  0.0669  0.3456
   24MOL   C213 6239   7.712   2.213   5.648 -0.6352  0.4074 -1.0507
   24MOL   C214 6240   0.070   2.166   5.574  0.0161  0.2492  1.2526
   24MOL   H215 6241   0.233   2.159   5.814 -1.9970 -1.7431 -1.9607
   24MOL   H216 6242   0.196   2.317   5.878 -1.8617  1.4549 -1.2823
   24MOL   H217 6243   7.827   2.242   5.891 -1.4696 -0.7789  0.2879
   24MOL   H218 6244   7.642   2.211   5.731  1.3638 -1.0069  0.6605
   24MOL   H219 6245   7.693   2.126   5.584  0.6453  0.5170 -1.5881
   24MOL   H220 6246   7.700   2.302   5.587 -1.6669  0.8747 -0.1887
   24MOL   H221 6247   0.027   2.080   5.522 -0.6063 -0.8290  3.4716
   24MOL   H222 6248   0.171   2.147   5.611  0.8943  1.0235 -0.7249
   24MOL   C223 6249   0.080   2.283   5.476  0.3953  0.2946  0.7040
   24MOL   C224 6250   0.174   2.270   5.355 -0.3708 -0.1532  0.3304
   24MOL   C225 6251   0.287   2.337   5.324  0.5105 -0.0278  0.7791
   24MOL   C226 6252   0.372   2.303   5.199 -0.1126 -0.2266 -0.0239
   24MOL   C227 6253   0.343   2.443   5.416  0.0893 -0.3278 -0.1642
   24MOL   H228 6254   0.105   2.376   5.527 -1.6361  1.5002 -0.4314
   24MOL   H229 6255   7.865   2.317   5.432 -0.5329 -2.5644  0.3732
   24MOL   H230 6256   0.154   2.183   5.294  1.1025 -1.1125  1.1782
   24MOL   H231 6257   0.324   2.232   5.131  2.6696 -1.0508 -1.2310
   24MOL   H232 6258   0.463   2.254   5.235 -0.0690 -0.6253 -0.6633
   24MOL   H233 6259   0.406   2.389   5.143  0.1199 -0.2984  0.0051
   24MOL   H234 6260   0.255   2.494   5.454  0.3233  0.8568 -1.1950
   24MOL   H235 6261   0.390   2.518   5.353 -0.9695  0.9747  0.5717
   24MOL   C236 6262   0.429   2.393   5.527  0.5014  0.5152 -0.9762
   24MOL   C237 6263   0.412   2.470   5.658  0.6587 -0.2289 -0.2544
   24MOL   C238 6264   0.503   2.535   5.735  0.5755  0.1462 -0.3843
   24MOL   C239 6265   0.455   2.581   5.873  0.3644  0.0963  0.1286
   24MOL   C240 6266   0.655   2.549   5.709  0.4444  0.2229  0.2425
   24MOL   H241 6267   0.535   2.387   5.502  1.2430  0.6864  1.9393
   24MOL   H242 6268   0.403   2.291   5.555  0.6381  0.6990 -0.1709
   24MOL   H243 6269   0.316   2.467   5.708  0.6444 -0.4670 -0.2971
   24MOL   H244 6270   0.536   2.551   5.939  0.2151  1.6887  1.0483
   24MOL   H245 6271   0.355   2.545   5.898 -0.4629  2.4422  0.3166
   24MOL   H246 6272   0.457   2.690   5.877 -0.9619  0.1941 -1.2748
   24MOL   H247 6273   0.684   2.464   5.649 -0.0232  1.5178 -1.8535
   24MOL   H248 6274   0.710   2.542   5.803  2.2716 -1.2714 -0.8975
   24MOL   C249 6275   0.698   2.679   5.637 -0.7858  0.9953  0.0130
   24MOL   C250 6276   0.843   2.694   5.635  0.3655  0.9292 -0.1977
   24MOL   C251 6277   0.913   2.802   5.670  0.6875  0.1992 -0.2134
   24MOL   C252 6278   1.061   2.793   5.690 -0.1580 -0.0699 -0.2391
   24MOL   C253 6279   0.858   2.936   5.717  0.1834  0.0932  0.9393
   24MOL   H254 6280   0.651   2.767   5.681  2.6358  1.3755  3.1423
   24MOL   H255 6281   0.660   2.670   5.535 -0.0834 -2.2306 -0.0086
   24MOL   H256 6282   0.909   2.613   5.606  2.1571  1.2671  2.6541
   24MOL   H257 6283   1.116   2.718   5.633  1.5855  0.4992  0.6710
   24MOL   H258 6284   1.091   2.790   5.795  0.4505  2.1727 -0.3293
   24MOL   H259 6285   1.091   2.892   5.655 -2.0003  1.4362  2.2867
   24MOL   H260 6286   0.884   2.942   5.823 -0.0140 -0.2792  1.0114
   24MOL   H261 6287   0.750   2.944   5.710  0.2780 -0.6163 -2.0310
   24MOL   H262 6288   0.904   3.019   5.663  2.9886 -2.6172 -1.0154
   25MOL     C1 6289   3.699   6.943   0.253  0.7367 -0.2272 -0.4019
   25MOL     C2 6290   3.560   6.986   0.292 -0.0514 -0.2938 -0.0286
   25MOL     C3 6291   3.492   6.945   0.399  0.3193 -0.5856  0.4338
   25MOL     C4 6292   3.363   7.002   0.431  0.1651 -0.2922  0.1849
   25MOL     C5 6293   3.549   6.850   0.505 -0.2923  0.2865  0.5422
   25MOL     H6 6294   3.722   6.840   0.280 -0.3271 -0.2617  0.3927
   25MOL     H7 6295   3.702   6.958   0.145  1.0890  1.9821 -0.1128
   25MOL     H8 6296   3.521   7.063   0.228  1.7124  1.2796  0.7512
   25MOL     H9 6297   3.299   6.939   0.493  1.4564 -2.9703 -1.0828
   25MOL    H10 6298   3.314   7.041   0.342  1.8896  1.2556 -0.1185
   25MOL    H11 6299   3.391   7.085   0.495  0.4392  0.6772 -1.1784
   25MOL    H12 6300   3.540   6.904   0.600  0.4083  1.9402 -0.3073
   25MOL    H13 6301   3.655   6.837   0.484 -0.1556 -1.5304  2.2599
   25MOL    H14 6302   3.771   7.006   0.306  0.5626 -0.4136  0.0617
   25MOL    C15 6303   3.479   6.711   0.512 -0.0220  0.2868 -0.1211
   25MOL    C16 6304   3.518   6.665   0.649 -0.0116  0.0146 -0.9815
   25MOL    C17 6305   3.451   6.578   0.728  1.3527 -0.5514  0.2878
   25MOL    C18 6306   3.502   6.542   0.866  0.1252 -0.4026  0.0970
   25MOL    C19 6307   3.320   6.505   0.687  0.5376 -0.5405 -0.3438
   25MOL    H20 6308   3.512   6.635   0.441  0.7237 -0.2308  0.7824
   25MOL    H21 6309   3.373   6.735   0.502  0.5157  2.2477 -1.3163
   25MOL    H22 6310   3.613   6.705   0.679 -0.6165  0.2958  0.6091
   25MOL    H23 6311   3.434   6.565   0.948  1.6135  1.1591  0.9197
   25MOL    H24 6312   3.597   6.595   0.878 -0.6840  0.5933  2.4640
   25MOL    H25 6313   3.518   6.434   0.866  2.1448 -0.1286 -0.2823
   25MOL    H26 6314   3.281   6.565   0.605 -1.4769 -0.2694  0.7692
   25MOL    H27 6315   3.241   6.505   0.763  0.5760  0.4788 -0.2954
   25MOL    C28 6316   3.352   6.361   0.650  0.0706  0.3632 -0.0852
   25MOL    C29 6317   3.417   6.336   0.520  0.1896  0.0026  0.2842
   25MOL    C30 6318   3.386   6.240   0.430 -0.5215 -0.3318  0.8222
   25MOL    C31 6319   3.464   6.224   0.298 -0.3717 -0.2906  0.3836
   25MOL    C32 6320   3.281   6.130   0.450  0.6010  0.6247 -0.2592
   25MOL    H33 6321   3.261   6.301   0.647  0.7309 -0.9245  3.1385
   25MOL    H34 6322   3.403   6.321   0.738  1.5545  1.8730 -0.2247
   25MOL    H35 6323   3.499   6.398   0.485  1.5037 -1.4873  0.6621
   25MOL    H36 6324   3.565   6.185   0.308  0.1566  0.3680 -2.0648
   25MOL    H37 6325   3.473   6.317   0.242  0.7221  0.8751  2.4383
   25MOL    H38 6326   3.405   6.163   0.230 -1.2581  0.0923  0.8020
   25MOL    H39 6327   3.278   6.094   0.553  1.5788  2.0851  0.2946
   25MOL    H40 6328   3.316   6.040   0.400 -1.0368  0.8261 -1.8565
   25MOL    C41 6329   3.143   6.150   0.388 -1.3490  0.5593 -0.2718
   25MOL    C42 6330   3.037   6.061   0.448  0.0639  0.0082 -0.6816
   25MOL    C43 6331   2.913   6.090   0.486  0.6452  0.3405  0.1106
   25MOL    C44 6332   2.831   5.985   0.560 -0.9719  0.3543  0.2356
   25MOL    C45 6333   2.848   6.233   0.468 -0.0020  0.4526 -0.3701
   25MOL    H46 6334   3.163   6.134   0.283  0.7536 -0.5504  0.2702
   25MOL    H47 6335   3.113   6.255   0.380 -0.4788  0.9121  0.7922
   25MOL    H48 6336   3.075   5.964   0.473  1.7921  1.2192  1.6061
   25MOL    H49 6337   2.891   5.894   0.567 -0.2231  0.8559  0.4499
   25MOL    H50 6338   2.744   5.960   0.500  0.6892  0.2874 -2.2028
   25MOL    H51 6339   2.807   6.019   0.661  0.9203  2.3485  0.0522
   25MOL    H52 6340   2.740   6.228   0.471 -0.0375  1.6074  1.4499
   25MOL    H53 6341   2.869   6.259   0.365  2.9902 -1.1002 -0.2329
   25MOL    C54 6342   2.916   6.334   0.568  1.2122 -0.0564  0.2340
   25MOL    C55 6343   2.878   6.483   0.542 -0.0339  0.7064 -0.3251
   25MOL    C56 6344   2.941   6.578   0.471  0.2192  0.1055 -0.2110
   25MOL    C57 6345   2.884   6.718   0.460  0.3095  0.6635 -0.6087
   25MOL    C58 6346   3.079   6.567   0.411 -0.3698 -0.5926  0.2341
   25MOL    H59 6347   3.025   6.326   0.566  1.2723  1.1590 -2.9060
   25MOL    H60 6348   2.892   6.306   0.671  3.1391 -1.7788  0.2579
   25MOL    H61 6349   2.785   6.516   0.585 -0.1812 -0.1873  0.0597
   25MOL    H62 6350   2.853   6.743   0.359 -1.1040 -0.4158 -0.4506
   25MOL    H63 6351   2.952   6.794   0.499  0.4136  0.6174 -0.6985
   25MOL    H64 6352   2.799   6.739   0.525  0.6141  1.3773 -0.4370
   25MOL    H65 6353   3.133   6.481   0.451 -1.7175 -1.1497  0.9145
   25MOL    H66 6354   3.146   6.651   0.429  1.0371 -0.7127 -4.0977
   25MOL    C67 6355   3.067   6.569   0.254 -0.1524  0.4446  0.1556
   25MOL    C68 6356   3.213   6.572   0.204 -0.3992  0.2937 -0.4115
   25MOL    C69 6357   3.265   6.656   0.108 -0.7652  0.0898 -0.1587
   25MOL    C70 6358   3.416   6.654   0.078  0.4044  0.7252  0.2447
   25MOL    C71 6359   3.182   6.763   0.038 -0.0296 -0.3154  0.4175
   25MOL    H72 6360   3.000   6.640   0.206 -1.0501  0.3892  1.3095
   25MOL    H73 6361   3.023   6.473   0.230 -0.7585  0.3380  1.6432
   25MOL    H74 6362   3.280   6.507   0.258 -0.3751  0.0427 -0.7415
   25MOL    H75 6363   3.451   6.553   0.100 -2.6055 -1.3451 -3.6890
   25MOL    H76 6364   3.476   6.728   0.130  0.2249  0.8033  0.3404
   25MOL    H77 6365   3.437   6.657   7.850 -0.0059 -0.5574  0.1224
   25MOL    H78 6366   3.082   6.727   0.013 -0.0712 -0.1341  0.3229
   25MOL    H79 6367   3.229   6.788   7.822  0.2819 -0.2981  0.5758
   25MOL    C80 6368   3.189   6.899   0.113 -0.1248  0.6657  0.2097
   25MOL    C81 6369   3.116   7.007   0.048 -1.1292  0.2545 -0.0443
   25MOL    C82 6370   3.031   7.090   0.114 -0.2314  0.0858  0.0541
   25MOL    C83 6371   2.990   7.080   0.262 -0.5946 -0.5911 -0.1842
   25MOL    C84 6372   2.971   7.207   0.045  0.4181  0.0235  0.8134
   25MOL    H85 6373   3.296   6.921   0.121 -0.0160  0.7273 -1.2506
   25MOL    H86 6374   3.150   6.877   0.212 -0.1227  0.4994  0.1732
   25MOL    H87 6375   3.141   7.011   7.822 -0.7185  2.5125  0.1042
   25MOL    H88 6376   3.003   6.977   0.296  0.5274 -0.9651 -1.7099
   25MOL    H89 6377   2.883   7.100   0.276 -0.8534 -2.3813  0.6000
   25MOL    H90 6378   3.041   7.142   0.335 -1.2687  1.0191 -1.0298
   25MOL    H91 6379   2.984   7.190   7.817 -0.5360  2.0676  0.3331
   25MOL    H92 6380   3.031   7.294   0.068  1.5482 -0.4884 -0.1472
   25MOL    C93 6381   2.818   7.219   0.067 -0.1733  0.4246  0.4830
   25MOL    C94 6382   2.749   7.306   7.847 -0.1503  0.4261 -0.3455
   25MOL    C95 6383   2.662   7.258   7.753  0.3712 -0.1839 -0.5298
   25MOL    C96 6384   2.585   7.351   7.650 -0.2253 -0.3245 -0.0721
   25MOL    C97 6385   2.607   7.115   7.736  0.0387 -0.1503 -0.0163
   25MOL    H98 6386   2.795   7.259   0.165 -0.6093  0.1794  0.4833
   25MOL    H99 6387   2.781   7.116   0.070  1.5387 -0.1695  2.9608
   25MOL   H100 6388   2.772   7.411   7.858  0.3886  0.2630  0.1323
   25MOL   H101 6389   2.477   7.348   7.667 -0.3000 -0.5354 -0.5828
   25MOL   H102 6390   2.621   7.454   7.656  1.3044 -0.8983  0.8870
   25MOL   H103 6391   2.619   7.324   7.550  0.0786  1.4356 -0.4603
   25MOL   H104 6392   2.690   7.050   7.765 -0.8468 -1.2773  0.0324
   25MOL   H105 6393   2.587   7.091   7.631  0.5077 -3.7520  0.6490
   25MOL   C106 6394   2.491   7.096   7.825 -0.5808  0.8249  0.4151
   25MOL   C107 6395   2.425   6.965   7.800  0.3666  0.4147  0.0924
   25MOL   C108 6396   2.350   6.892   0.004 -0.9759 -0.0221  0.1629
   25MOL   C109 6397   2.333   6.920   0.151 -0.3470  0.4256 -0.0518
   25MOL   C110 6398   2.295   6.762   7.833 -0.4579  0.3210 -0.3382
   25MOL   H111 6399   2.418   7.177   7.815 -0.7234  0.5145 -1.2233
   25MOL   H112 6400   2.529   7.099   0.048 -0.3159 -0.6650  0.3660
   25MOL   H113 6401   2.421   6.926   7.700  0.5087  1.4658 -0.3279
   25MOL   H114 6402   2.391   6.859   0.220 -0.1488  1.5792  0.8053
   25MOL   H115 6403   2.364   7.020   0.179 -1.1945  0.8431 -0.6076
   25MOL   H116 6404   2.228   6.929   0.177 -0.6141 -1.8251 -0.1875
   25MOL   H117 6405   2.333   6.677   0.011  0.3625  1.3574  0.6723
   25MOL   H118 6406   2.329   6.744   7.731 -0.8618  1.3657 -0.6590
   25MOL   C119 6407   2.145   6.747   7.840 -0.1250 -0.5270  0.5051
   25MOL   C120 6408   2.100   6.602   7.828 -0.2924 -0.9385  0.2008
   25MOL   C121 6409   2.086   6.524   0.055 -0.1313 -0.3062 -0.0519
   25MOL   C122 6410   2.037   6.387   0.043  0.6686  0.3536  0.2152
   25MOL   C123 6411   2.117   6.555   0.196 -0.5160 -0.1775  0.2904
   25MOL   H124 6412   2.097   6.796   7.755  2.9853  0.1134 -0.9589
   25MOL   H125 6413   2.102   6.791   0.051  0.0416  1.2153 -0.2467
   25MOL   H126 6414   2.066   6.579   7.728  0.9331  1.5450 -0.8438
   25MOL   H127 6415   2.107   6.314   0.085  1.0880 -0.3681 -1.6768
   25MOL   H128 6416   2.023   6.362   7.816  0.3846  0.5137  0.2165
   25MOL   H129 6417   1.937   6.369   0.083  0.9422 -1.3558  0.1873
   25MOL   H130 6418   2.195   6.631   0.197 -0.1902 -0.4993 -0.3882
   25MOL   H131 6419   2.169   6.472   0.243  1.9132  0.0491 -1.8487
   25MOL   C132 6420   1.991   6.595   0.274  0.9374  0.2301  0.6325
   25MOL   C133 6421   2.022   6.633   0.414  0.3726 -0.8999  0.2440
   25MOL   C134 6422   1.955   6.604   0.528  0.2964 -0.3414 -0.2053
   25MOL   C135 6423   2.025   6.631   0.664  0.2731  1.2868  0.3527
   25MOL   C136 6424   1.810   6.547   0.534  0.2111  0.0256  0.6818
   25MOL   H137 6425   1.918   6.514   0.276  1.0843  0.0430 -0.8318
   25MOL   H138 6426   1.948   6.679   0.219 -0.3742  0.4416  1.9426
   25MOL   H139 6427   2.125   6.664   0.423  0.2105 -0.0656 -0.7117
   25MOL   H140 6428   1.968   6.702   0.724  1.3020  1.4382  1.1727
   25MOL   H141 6429   2.129   6.663   0.654 -0.1713  2.4685 -0.5567
   25MOL   H142 6430   2.028   6.536   0.719  1.2533  0.1844 -1.5287
   25MOL   H143 6431   1.822   6.448   0.577  0.4721 -0.9627 -1.5944
   25MOL   H144 6432   1.774   6.532   0.432 -0.1160  0.4323  0.7354
   25MOL   C145 6433   1.714   6.638   0.613  0.1546 -0.0122 -0.4164
   25MOL   C146 6434   1.577   6.577   0.599  0.2107 -0.7481 -0.7815
   25MOL   C147 6435   1.460   6.648   0.588  0.1419  1.2602 -0.1612
   25MOL   C148 6436   1.328   6.578   0.621 -0.4407 -0.3419  0.2785
   25MOL   C149 6437   1.453   6.805   0.583 -0.2366  0.2358 -0.0718
   25MOL   H150 6438   1.722   6.742   0.581  0.2894  0.0347 -0.2328
   25MOL   H151 6439   1.737   6.641   0.720 -2.1516  1.8444  0.0656
   25MOL   H152 6440   1.579   6.469   0.604 -0.9323 -0.7056  0.8312
   25MOL   H153 6441   1.295   6.603   0.722 -0.0322 -1.4979  0.6992
   25MOL   H154 6442   1.334   6.470   0.631 -1.3062 -0.1569  3.2983
   25MOL   H155 6443   1.248   6.602   0.552  0.5436  1.1243 -0.3849
   25MOL   H156 6444   1.551   6.852   0.596  0.2116 -1.3412  2.3917
   25MOL   H157 6445   1.396   6.840   0.668 -2.1575 -1.6231 -0.5535
   25MOL   C158 6446   1.398   6.854   0.446 -0.0834 -0.3592  1.2874
   25MOL   C159 6447   1.464   6.815   0.323 -0.2592 -0.0314  0.0482
   25MOL   C160 6448   1.532   6.893   0.239  0.1761  0.1298 -0.2975
   25MOL   C161 6449   1.552   7.046   0.253  0.0834 -0.4552 -0.4718
   25MOL   C162 6450   1.600   6.854   0.105  0.0533 -0.2069  0.2703
   25MOL   H163 6451   1.393   6.963   0.450  2.2373 -0.0628 -2.0442
   25MOL   H164 6452   1.298   6.812   0.437  0.5080 -1.4332 -0.6165
   25MOL   H165 6453   1.459   6.710   0.295 -1.7000  0.5124 -1.8619
   25MOL   H166 6454   1.570   7.107   0.164  0.4732 -1.3473 -1.0122
   25MOL   H167 6455   1.642   7.052   0.313 -0.5879 -0.1353  0.5143
   25MOL   H168 6456   1.464   7.092   0.298  2.1532  0.9092  2.3151
   25MOL   H169 6457   1.704   6.882   0.093  0.0814 -0.9404 -1.4019
   25MOL   H170 6458   1.541   6.895   0.023  1.1745 -2.1951 -1.5785
   25MOL   C171 6459   1.589   6.703   0.072  0.4546 -0.0162  0.4499
   25MOL   C172 6460   1.623   6.658   7.807  0.2208  0.5330  0.7090
   25MOL   C173 6461   1.625   6.524   7.774  0.1720  0.0975  0.5179
   25MOL   C174 6462   1.593   6.426   7.876  0.8685  0.3127  0.0155
   25MOL   C175 6463   1.666   6.463   7.634 -0.1020  0.2006  0.3997
   25MOL   H176 6464   1.487   6.673   0.098 -0.8511  2.0574 -2.0209
   25MOL   H177 6465   1.661   6.642   0.127 -1.5528 -3.6988 -0.8407
   25MOL   H178 6466   1.663   6.736   7.743 -1.2016 -1.4990 -2.7695
   25MOL   H179 6467   1.513   6.362   7.839 -0.3195  0.8211  1.6449
   25MOL   H180 6468   1.573   6.459   0.099 -0.5929 -1.5985  0.3649
   25MOL   H181 6469   1.684   6.369   0.014  1.6735  1.4139 -0.5415
   25MOL   H182 6470   1.578   6.409   7.600 -0.2533 -0.6912  2.1796
   25MOL   H183 6471   1.752   6.399   7.652  1.7688  2.6343  0.3290
   25MOL   C184 6472   1.716   6.564   7.536 -0.0941  0.8428  0.2019
   25MOL   C185 6473   1.759   6.490   7.412  0.8940 -0.6716  0.4005
   25MOL   C186 6474   1.869   6.512   7.340 -0.1438  0.1551 -0.8647
   25MOL   C187 6475   1.891   6.430   7.222  0.0191  0.8740  0.2800
   25MOL   C188 6476   1.974   6.619   7.364 -0.4613 -0.6170  0.2465
   25MOL   H189 6477   1.805   6.603   7.585  0.0097  1.8553 -0.7804
   25MOL   H190 6478   1.639   6.634   7.502  0.6032  2.0925  1.1224
   25MOL   H191 6479   1.699   6.405   7.383 -0.2499  0.4965 -0.7066
   25MOL   H192 6480   1.875   6.487   7.130 -4.5906 -1.0781 -0.2801
   25MOL   H193 6481   1.825   6.345   7.207  0.2163  0.8156 -0.2791
   25MOL   H194 6482   1.991   6.388   7.225 -1.1622 -1.9586  3.2098
   25MOL   H195 6483   1.940   6.683   7.446 -0.6321 -0.4607  0.0537
   25MOL   H196 6484   1.992   6.669   7.269  2.1156  3.1063  2.5703
   25MOL   C197 6485   2.100   6.547   7.407 -0.0815 -0.1679  0.5691
   25MOL   C198 6486   2.198   6.648   7.448  0.6623 -0.1754 -0.0993
   25MOL   C199 6487   2.330   6.629   7.444  0.6409  0.3332  0.6870
   25MOL   C200 6488   2.426   6.749   7.462  0.1241 -0.7784 -0.2427
   25MOL   C201 6489   2.393   6.488   7.428 -0.0476 -0.0397  0.2766
   25MOL   H202 6490   2.141   6.484   7.328 -1.7440 -1.1391  0.4404
   25MOL   H203 6491   2.082   6.483   7.493 -0.4119 -2.1202 -0.9058
   25MOL   H204 6492   2.166   6.751   7.451 -0.6023 -0.6097  1.4237
   25MOL   H205 6493   2.367   6.839   7.477 -0.1127 -0.4656 -2.7913
   25MOL   H206 6494   2.474   6.762   7.365 -1.2010  0.0885 -0.7992
   25MOL   H207 6495   2.503   6.717   7.532  0.4409  1.0482  0.2731
   25MOL   H208 6496   2.501   6.494   7.413  0.1547  0.1694  1.7640
   25MOL   H209 6497   2.346   6.434   7.345 -4.2833  1.9456  1.2444
   25MOL   C210 6498   2.372   6.396   7.543 -0.7740  0.2770 -0.6147
   25MOL   C211 6499   2.480   6.294   7.542 -0.1840  0.5535 -0.4165
   25MOL   C212 6500   2.505   6.203   7.644  0.0646 -0.0364 -1.0061
   25MOL   C213 6501   2.609   6.093   7.634 -0.0243  0.0007 -0.3068
   25MOL   C214 6502   2.432   6.204   7.775 -0.0284 -0.4840 -0.8564
   25MOL   H215 6503   2.275   6.347   7.545 -0.2402 -0.7469  0.5331
   25MOL   H216 6504   2.381   6.443   7.641 -0.6094  0.2074 -0.5964
   25MOL   H217 6505   2.532   6.277   7.449 -1.4919 -0.4562 -0.9897
   25MOL   H218 6506   2.555   5.999   7.645 -3.0992  1.5979 -1.2464
   25MOL   H219 6507   2.690   6.096   7.706 -1.3665 -0.3050  1.2519
   25MOL   H220 6508   2.649   6.099   7.532 -2.3083  0.5131 -1.1994
   25MOL   H221 6509   2.391   6.103   7.781 -0.6783 -0.2017 -0.3838
   25MOL   H222 6510   2.345   6.269   7.777 -2.0322 -3.0730 -1.0954
   25MOL   C223 6511   2.523   6.234   0.015  0.2653  0.2701 -0.3434
   25MOL   C224 6512   2.442   6.220   0.145 -0.0635  0.3611  0.1358
   25MOL   C225 6513   2.455   6.294   0.255  0.2915  0.2095  0.0417
   25MOL   C226 6514   2.367   6.280   0.381 -0.3585  0.5964  0.2835
   25MOL   C227 6515   2.550   6.408   0.259  0.0292  1.3391 -0.0785
   25MOL   H228 6516   2.562   6.335   0.012 -2.1541  1.3419  2.0308
   25MOL   H229 6517   2.605   6.162   0.018  0.0703  0.0721  0.6416
   25MOL   H230 6518   2.385   6.128   0.143  1.6350 -0.6835 -2.7750
   25MOL   H231 6519   2.303   6.365   0.402 -0.5559  0.4976  0.0760
   25MOL   H232 6520   2.432   6.278   0.469 -0.8387 -0.7529  0.6271
   25MOL   H233 6521   2.298   6.196   0.373  0.0630  0.1093  1.5497
   25MOL   H234 6522   2.637   6.372   0.203 -0.0681 -1.3332  1.3919
   25MOL   H235 6523   2.578   6.440   0.359 -1.0282 -0.0147  0.6667
   25MOL   C236 6524   2.490   6.521   0.176  1.1480 -0.0500  0.0586
   25MOL   C237 6525   2.577   6.640   0.182 -0.6343  0.0665  0.4065
   25MOL   C238 6526   2.647   6.690   0.084  0.0022 -0.7623 -0.4358
   25MOL   C239 6527   2.714   6.824   0.107 -0.5229  0.2259 -0.0706
   25MOL   C240 6528   2.675   6.629   7.828 -0.3988  0.2915 -0.1973
   25MOL   H241 6529   2.399   6.556   0.225  0.0234 -0.5811 -1.6261
   25MOL   H242 6530   2.468   6.498   0.072  0.1280 -1.4521  0.5580
   25MOL   H243 6531   2.582   6.703   0.269 -0.0707  0.4985  0.0661
   25MOL   H244 6532   2.818   6.811   0.078 -0.3569  0.2360  0.5094
   25MOL   H245 6533   2.716   6.856   0.211  1.5020 -0.4439  0.1061
   25MOL   H246 6534   2.665   6.901   0.048  0.1376  0.7591  0.0788
   25MOL   H247 6535   2.676   6.706   7.751 -0.3327  2.2492  1.7096
   25MOL   H248 6536   2.591   6.567   7.799 -0.2069  0.2906 -0.7643
   25MOL   C249 6537   2.811   6.562   7.819  0.4794  0.4791 -0.8692
   25MOL   C250 6538   2.821   6.484   7.692 -0.7714 -0.3036  1.4633
   25MOL   C251 6539   2.904   6.515   7.590  0.6080 -0.1550  0.0275
   25MOL   C252 6540   2.924   6.428   7.476  0.4082 -0.0116 -0.8962
   25MOL   C253 6541   2.965   6.657   7.587  0.1882 -0.0486  0.1304
   25MOL   H254 6542   2.812   6.498   0.028  1.1142  0.8388 -0.6074
   25MOL   H255 6543   2.897   6.626   7.842  0.0017  0.3634  1.4099
   25MOL   H256 6544   2.758   6.397   7.680 -0.9195  0.2336 -2.0208
   25MOL   H257 6545   2.890   6.442   7.374  0.0178 -0.8863 -0.8937
   25MOL   H258 6546   2.882   6.331   7.504  0.1322 -0.1560 -1.8147
   25MOL   H259 6547   3.031   6.408   7.475 -0.0267 -2.8453  1.3099
   25MOL   H260 6548   2.893   6.735   7.611 -1.9561 -1.7636 -0.5050
   25MOL   H261 6549   3.011   6.674   7.490  2.0602  0.3240  1.0739
   25MOL   H262 6550   3.048   6.658   7.657  1.5979  0.6114 -1.5233
   26MOL     C1 6551   7.862   5.965   6.320 -0.4237  0.2135  0.3234
   26MOL     C2 6552   7.817   6.104   6.296  0.3729  0.3673  0.6231
   26MOL     C3 6553   7.723   6.177   6.358 -0.5344 -0.0159 -0.3386
   26MOL     C4 6554   7.701   6.323   6.320  0.0732  0.4433 -0.7273
   26MOL     C5 6555   7.639   6.136   6.478  0.3144  0.2064 -0.6597
   26MOL     H6 6556   7.842   5.933   6.422  3.0287  0.5575  1.1670
   26MOL     H7 6557   7.835   5.888   6.248 -1.6485  0.8493  0.0793
   26MOL     H8 6558   7.870   6.146   6.212  0.0431 -0.0027  0.2260
   26MOL     H9 6559   7.683   6.384   6.408 -2.2837 -0.8239 -0.2869
   26MOL    H10 6560   7.613   6.334   6.255 -0.5115 -0.5328 -0.1144
   26MOL    H11 6561   7.786   6.362   6.264 -0.5649  3.5483  0.3607
   26MOL    H12 6562   7.636   6.027   6.471 -2.2326  0.2778 -0.9597
   26MOL    H13 6563   7.541   6.182   6.467 -0.4163 -0.9350  0.8472
   26MOL    H14 6564   0.091   5.960   6.326 -0.2482  1.1764 -1.4725
   26MOL    C15 6565   7.711   6.174   6.608  0.5664 -0.1208  0.8742
   26MOL    C16 6566   7.637   6.132   6.735  0.1375 -0.4165  0.2088
   26MOL    C17 6567   7.572   6.214   6.820 -0.0867  0.4419 -0.1423
   26MOL    C18 6568   7.500   6.165   6.946 -0.1403  1.0316 -0.0442
   26MOL    C19 6569   7.567   6.363   6.819 -0.1509  0.2335 -0.1214
   26MOL    H20 6570   7.727   6.282   6.602 -1.7724  0.0685 -3.3052
   26MOL    H21 6571   7.814   6.138   6.610  0.8993  0.8132  1.4717
   26MOL    H22 6572   7.629   6.026   6.753  1.4485 -0.4699  0.5586
   26MOL    H23 6573   7.482   6.059   6.930  0.8609  1.2173 -2.6655
   26MOL    H24 6574   7.405   6.218   6.957 -0.8958 -0.5647  1.2361
   26MOL    H25 6575   7.563   6.172   7.035 -0.8296 -2.8515  0.7989
   26MOL    H26 6576   7.480   6.394   6.877  0.5468 -0.7189  1.4613
   26MOL    H27 6577   7.553   6.405   6.719  0.7669 -0.6564 -0.6235
   26MOL    C28 6578   7.685   6.440   6.882 -0.1503 -0.3721 -0.1601
   26MOL    C29 6579   7.668   6.590   6.878  1.1921 -0.8248 -0.1881
   26MOL    C30 6580   7.678   6.684   6.983  0.5539  0.4259 -0.1111
   26MOL    C31 6581   7.651   6.832   6.953  0.0831 -0.2694 -0.1804
   26MOL    C32 6582   7.714   6.651   7.130 -0.5193  0.7602 -0.0729
   26MOL    H33 6583   7.782   6.414   6.839 -0.5683 -0.0544 -1.2911
   26MOL    H34 6584   7.692   6.428   6.991 -1.9928 -1.5424 -0.1624
   26MOL    H35 6585   7.643   6.628   6.780 -0.5611  0.2234  0.6299
   26MOL    H36 6586   7.616   6.838   6.850  0.6256 -0.3715 -0.3717
   26MOL    H37 6587   7.731   6.903   6.976  0.4507 -1.1666  1.4038
   26MOL    H38 6588   7.567   6.877   7.005  2.2803 -0.1822  3.4768
   26MOL    H39 6589   7.794   6.722   7.151 -1.1736  1.0803  1.3935
   26MOL    H40 6590   7.742   6.548   7.150 -0.5482  0.9202  0.7997
   26MOL    C41 6591   7.589   6.678   7.220  0.3555  0.5143  0.5159
   26MOL    C42 6592   7.484   6.578   7.193  0.0764  0.6257  0.8183
   26MOL    C43 6593   7.435   6.477   7.277 -0.0411  0.4028 -0.2116
   26MOL    C44 6594   7.321   6.382   7.237 -1.1379 -0.5849 -0.2604
   26MOL    C45 6595   7.489   6.445   7.417 -0.4583  0.5478  0.6236
   26MOL    H46 6596   7.533   6.768   7.195  1.5064  1.0284 -0.2453
   26MOL    H47 6597   7.606   6.682   7.328 -0.2897 -1.7032  0.7180
   26MOL    H48 6598   7.439   6.594   7.096 -0.9429  0.2525  1.2286
   26MOL    H49 6599   7.251   6.420   7.162  0.7284  2.9232 -0.3219
   26MOL    H50 6600   7.267   6.356   7.328  0.7250  0.2815  1.1130
   26MOL    H51 6601   7.374   6.297   7.195  0.8711 -0.0877  1.2255
   26MOL    H52 6602   7.592   6.479   7.428 -0.1590  0.0124 -0.4272
   26MOL    H53 6603   7.486   6.337   7.428 -0.3063  0.1895 -2.3763
   26MOL    C54 6604   7.404   6.502   7.528 -0.0048 -0.2780 -0.2795
   26MOL    C55 6605   7.479   6.490   7.664 -0.0145  0.2359  0.5705
   26MOL    C56 6606   7.530   6.591   7.733  0.7718  0.3929 -0.0922
   26MOL    C57 6607   7.597   6.557   7.864  0.7258  0.1674 -0.0334
   26MOL    C58 6608   7.529   6.741   7.691  0.6371 -0.6701 -0.0064
   26MOL    H59 6609   7.305   6.455   7.528  0.0167 -0.3287  0.4293
   26MOL    H60 6610   7.384   6.608   7.516 -0.2741 -0.2399  0.4329
   26MOL    H61 6611   7.492   6.390   7.704  0.6879  0.2561  0.3910
   26MOL    H62 6612   7.691   6.507   7.842  0.0392 -0.4754 -1.5498
   26MOL    H63 6613   7.537   6.490   0.047 -1.6482  1.2372 -1.1199
   26MOL    H64 6614   7.603   6.649   0.044  0.5954 -0.7738  1.4506
   26MOL    H65 6615   7.538   6.747   7.582 -0.9772 -1.0195 -0.1724
   26MOL    H66 6616   7.615   6.799   7.722  1.6937 -2.3561  0.3228
   26MOL    C67 6617   7.406   6.807   7.744  0.0329  0.0541  0.1124
   26MOL    C68 6618   7.413   6.955   7.747  0.2203  0.4570 -0.6436
   26MOL    C69 6619   7.449   7.039   7.852 -0.2297 -0.4365  0.3549
   26MOL    C70 6620   7.465   7.192   7.833 -0.2498  0.5724 -0.3035
   26MOL    C71 6621   7.491   6.996   0.110  0.0970 -0.3494 -0.1629
   26MOL    H72 6622   7.371   6.767   7.839  0.7809 -0.9864 -0.0385
   26MOL    H73 6623   7.327   6.770   7.679  0.3122 -2.1459  0.9811
   26MOL    H74 6624   7.398   7.003   7.652  2.0867  0.2043 -1.0773
   26MOL    H75 6625   7.571   7.217   7.823  0.9059 -3.9973 -0.6291
   26MOL    H76 6626   7.430   7.236   0.047  0.8733  1.1757 -0.1587
   26MOL    H77 6627   7.412   7.216   7.740  0.8381 -3.1560 -1.9965
   26MOL    H78 6628   7.447   6.896   0.115  0.3128 -0.3393  2.3449
   26MOL    H79 6629   7.458   7.064   0.189  0.0723 -0.8893  0.2935
   26MOL    C80 6630   7.645   6.977   0.108 -0.1685  0.2081 -0.6235
   26MOL    C81 6631   7.690   6.893   0.225 -0.0648 -0.1528 -0.2438
   26MOL    C82 6632   7.774   6.926   0.320 -0.8940  0.0648 -0.7855
   26MOL    C83 6633   7.859   7.058   0.327  0.8730 -0.6098 -0.5359
   26MOL    C84 6634   7.794   6.834   0.442  0.4519  0.0579 -0.3948
   26MOL    H85 6635   7.683   7.079   0.115  0.1401  0.0786 -0.4127
   26MOL    H86 6636   7.681   6.931   0.016  1.9257  1.5300 -0.4963
   26MOL    H87 6637   7.638   6.800   0.237  1.7533 -1.1143  0.4715
   26MOL    H88 6638   7.869   7.109   0.231  2.0171  3.2111  1.4860
   26MOL    H89 6639   0.083   7.043   0.360  1.8571  2.2102 -2.0668
   26MOL    H90 6640   7.821   7.131   0.398 -0.6463 -2.2987  0.4130
   26MOL    H91 6641   0.009   6.862   0.490  0.1212  0.6971 -0.1185
   26MOL    H92 6642   7.785   6.729   0.415 -2.6087  0.3052 -0.4406
   26MOL    C93 6643   7.678   6.845   0.544  0.1356  0.0168  0.1119
   26MOL    C94 6644   7.700   6.947   0.656  0.0266 -0.7301  0.3014
   26MOL    C95 6645   7.640   7.067   0.649 -0.1969  0.4482 -0.5197
   26MOL    C96 6646   7.664   7.171   0.759  0.7683  0.1320 -0.8423
   26MOL    C97 6647   7.539   7.108   0.543  0.2517  0.2187 -1.2927
   26MOL    H98 6648   7.674   6.748   0.593  0.4507  0.3272  0.7460
   26MOL    H99 6649   7.583   6.843   0.490  1.2049 -1.2048 -1.7911
   26MOL   H100 6650   7.772   6.918   0.731 -0.7103 -2.5905  0.3362
   26MOL   H101 6651   7.572   7.193   0.812  1.2839  1.3072 -0.4430
   26MOL   H102 6652   7.745   7.147   0.827  0.9643  0.5451 -0.9297
   26MOL   H103 6653   7.692   7.261   0.704  1.6755  0.2437 -0.1953
   26MOL   H104 6654   7.578   7.065   0.450  3.3989 -0.7510  0.3999
   26MOL   H105 6655   7.561   7.214   0.525 -0.9912  1.0276  1.6722
   26MOL   C106 6656   7.388   7.092   0.591  0.1031 -0.0754 -0.2612
   26MOL   C107 6657   7.295   7.111   0.475  0.0271  0.4265 -0.2385
   26MOL   C108 6658   7.177   7.171   0.469  0.0226 -0.3192  0.0119
   26MOL   C109 6659   7.107   7.215   0.596 -0.6939  0.6548  1.3846
   26MOL   C110 6660   7.096   7.198   0.345  0.2400  0.4037 -0.6272
   26MOL   H111 6661   7.363   7.159   0.673 -1.7670 -0.2129 -0.6929
   26MOL   H112 6662   7.371   6.991   0.629  0.2726  0.4786  1.3071
   26MOL   H113 6663   7.344   7.066   0.390  1.0322  0.7832  0.1382
   26MOL   H114 6664   7.002   7.197   0.577 -0.6335  1.5153  0.1612
   26MOL   H115 6665   7.134   7.146   0.676  2.5820 -1.7433 -1.6050
   26MOL   H116 6666   7.130   7.315   0.635 -2.8225  2.4270 -1.6615
   26MOL   H117 6667   7.175   7.205   0.270  0.1987  0.9624 -0.6200
   26MOL   H118 6668   7.046   7.293   0.361 -0.5634 -0.2954  1.2619
   26MOL   C119 6669   6.987   7.095   0.305 -0.1851 -0.8868 -0.2666
   26MOL   C120 6670   6.933   7.109   0.162 -0.0235  0.3644 -0.3695
   26MOL   C121 6671   6.974   7.037   0.049 -0.0694 -0.2510 -0.6522
   26MOL   C122 6672   6.917   7.067   7.792  0.0808  0.6285  0.4862
   26MOL   C123 6673   7.072   6.919   0.045 -0.2764  0.1347 -0.3640
   26MOL   H124 6674   6.908   7.072   0.376 -1.7652  1.9541 -1.0208
   26MOL   H125 6675   7.038   6.998   0.309 -0.7524 -1.2366 -1.3643
   26MOL   H126 6676   6.862   7.189   0.148 -1.5787 -0.2319  3.2953
   26MOL   H127 6677   6.820   7.115   7.801 -1.5237 -1.9734 -2.0410
   26MOL   H128 6678   6.902   6.986   7.721  2.1672 -0.3515  1.1027
   26MOL   H129 6679   6.981   7.140   7.741  0.7296 -1.2160 -1.3731
   26MOL   H130 6680   7.142   6.921   0.129 -0.3047  0.8322 -0.3587
   26MOL   H131 6681   7.131   6.932   7.832 -0.6021 -1.5010 -0.8210
   26MOL   C132 6682   6.997   6.784   0.046  0.5689 -0.2422  0.3921
   26MOL   C133 6683   7.096   6.672   0.056 -0.5356  0.3865  0.3857
   26MOL   C134 6684   7.116   6.561   7.853  0.1919 -0.5576 -0.0953
   26MOL   C135 6685   7.212   6.451   0.018 -0.2104  0.1035  0.4690
   26MOL   C136 6686   7.056   6.565   7.713  0.8888  0.5281  0.1791
   26MOL   H137 6687   6.938   6.758   7.837 -0.8400  1.7148  0.7418
   26MOL   H138 6688   6.924   6.778   0.127  0.5197 -0.9446  0.3002
   26MOL   H139 6689   7.149   6.673   0.150  1.3630  1.9088 -0.6777
   26MOL   H140 6690   7.157   6.362   0.048  1.1977 -0.5870  1.0508
   26MOL   H141 6691   7.283   6.473   0.097  1.5210 -1.8293 -0.4896
   26MOL   H142 6692   7.268   6.411   7.812 -1.2072  2.9468 -1.5854
   26MOL   H143 6693   7.129   6.526   7.643 -0.3216 -1.2457 -0.1345
   26MOL   H144 6694   7.034   6.668   7.689  0.1160  0.5722  1.0357
   26MOL   C145 6695   6.925   6.487   7.701 -0.7893  0.1783  0.1931
   26MOL   C146 6696   6.867   6.486   7.559 -0.6576 -0.7084 -0.2544
   26MOL   C147 6697   6.754   6.557   7.526 -0.0695  0.0396  0.4105
   26MOL   C148 6698   6.702   6.546   7.386  0.0529  0.1069  0.1003
   26MOL   C149 6699   6.665   6.637   7.627 -0.0540 -0.1851  0.1786
   26MOL   H150 6700   6.849   6.511   7.775 -0.3434  1.1932  0.3285
   26MOL   H151 6701   6.943   6.380   7.715  0.8586  0.1748 -1.7585
   26MOL   H152 6702   6.926   6.433   7.486  0.4649 -1.7130  1.3458
   26MOL   H153 6703   6.756   6.469   7.331 -1.0976  0.9367 -2.2531
   26MOL   H154 6704   6.712   6.646   7.343  2.5753 -0.3466 -0.4734
   26MOL   H155 6705   6.598   6.514   7.388  0.6801 -1.9247  1.4955
   26MOL   H156 6706   6.716   6.656   7.722  1.3198  0.5771 -0.6975
   26MOL   H157 6707   6.573   6.584   7.651  1.4808 -1.2573  4.1870
   26MOL   C158 6708   6.637   6.784   7.578 -0.1718 -0.2014  0.1248
   26MOL   C159 6709   6.533   6.857   7.663 -0.5595 -1.0764  0.5580
   26MOL   C160 6710   6.510   6.990   7.668 -0.4710  0.2652  0.4326
   26MOL   C161 6711   6.596   7.086   7.590  0.0817 -0.8890 -0.2975
   26MOL   C162 6712   6.416   7.055   7.765 -0.3292 -0.1685  0.8785
   26MOL   H163 6713   6.598   6.791   7.477 -3.0096 -1.4475  1.0699
   26MOL   H164 6714   6.731   6.839   7.583 -0.3074  0.0725 -0.3243
   26MOL   H165 6715   6.487   6.792   7.737 -1.8464 -0.2618  0.4844
   26MOL   H166 6716   6.596   7.180   7.645 -0.6018 -1.8170  1.3182
   26MOL   H167 6717   6.551   7.099   7.492  1.2495  3.0990 -0.4027
   26MOL   H168 6718   6.700   7.054   7.578  0.7374  0.9537  0.1717
   26MOL   H169 6719   6.464   7.111   7.846 -0.1688  1.9230 -0.6181
   26MOL   H170 6720   6.368   6.972   7.817  1.3485 -0.5571  1.8563
   26MOL   C171 6721   6.303   7.132   7.682 -0.2885  0.3621  0.5386
   26MOL   C172 6722   6.208   7.200   7.779  0.1387 -0.1519 -1.0159
   26MOL   C173 6723   6.072   7.184   7.788 -0.4248  0.1587  0.0701
   26MOL   C174 6724   5.985   7.096   7.703 -0.2430 -1.1174 -0.3398
   26MOL   C175 6725   6.005   7.254   0.024 -0.0447 -0.0849 -0.0678
   26MOL   H176 6726   6.252   7.076   7.603  0.0605  1.7603 -0.6869
   26MOL   H177 6727   6.360   7.211   7.633 -0.9264 -0.7168 -2.0449
   26MOL   H178 6728   6.253   7.266   7.851 -0.6261 -0.5915 -0.1227
   26MOL   H179 6729   5.906   7.156   7.659 -1.0815 -1.3225  0.8727
   26MOL   H180 6730   5.939   7.028   7.775 -1.7229 -0.4528 -0.6406
   26MOL   H181 6731   6.036   7.049   7.619  1.0709  3.4361 -2.2746
   26MOL   H182 6732   6.072   7.332   0.059  1.9665 -0.5149 -2.8093
   26MOL   H183 6733   5.987   7.189   0.110  0.8669  0.0885  0.2525
   26MOL   C184 6734   5.871   7.320   7.867 -0.9996 -0.3559 -0.0741
   26MOL   C185 6735   5.813   7.391   0.104  0.7078  0.1133 -0.3108
   26MOL   C186 6736   5.742   7.334   0.200 -0.1614  0.8817 -0.2022
   26MOL   C187 6737   5.684   7.413   0.312 -0.3965  0.3818 -0.0124
   26MOL   C188 6738   5.692   7.196   0.191 -0.2659 -0.4473 -0.4257
   26MOL   H189 6739   5.796   7.248   7.834 -0.8484 -1.6195  2.1656
   26MOL   H190 6740   5.895   7.385   7.783  1.2121 -0.4171  0.4759
   26MOL   H191 6741   5.843   7.494   0.115 -0.3306  0.3204  0.7489
   26MOL   H192 6742   5.738   7.378   0.400 -1.0704 -3.5645 -1.0654
   26MOL   H193 6743   5.580   7.401   0.342 -0.3228 -0.2651 -0.0108
   26MOL   H194 6744   5.712   7.518   0.305 -1.6234  0.6409 -1.2547
   26MOL   H195 6745   5.684   7.156   0.292  0.5645 -0.7819 -0.4872
   26MOL   H196 6746   5.767   7.134   0.143 -0.4028 -0.4271 -0.6674
   26MOL   C197 6747   5.555   7.193   0.119  0.0562  1.0003 -0.4591
   26MOL   C198 6748   5.506   7.045   0.101  0.5196  0.1144 -0.3294
   26MOL   C199 6749   5.391   6.994   0.150 -0.0640 -0.2273 -0.8580
   26MOL   C200 6750   5.360   6.853   0.129  0.0890 -0.0890  0.8616
   26MOL   C201 6751   5.287   7.073   0.227 -0.3201  0.2355  0.8936
   26MOL   H202 6752   5.561   7.241   0.021 -1.2772 -1.2725 -1.6852
   26MOL   H203 6753   5.486   7.252   0.179 -0.1421  1.1355 -0.8183
   26MOL   H204 6754   5.576   6.993   0.038 -0.8770  0.0899 -1.8854
   26MOL   H205 6755   5.320   6.803   0.217  0.9442 -2.0365  0.1699
   26MOL   H206 6756   5.454   6.798   0.119  0.4418  0.8537 -1.4342
   26MOL   H207 6757   5.297   6.822   0.046  0.5094  0.6550  0.2588
   26MOL   H208 6758   5.196   7.017   0.206  0.6041 -1.7429  2.0328
   26MOL   H209 6759   5.275   7.175   0.192  2.7373  0.6883  0.9932
   26MOL   C210 6760   5.337   7.075   0.379  0.5946 -0.1370  0.0662
   26MOL   C211 6761   5.234   7.115   0.478 -0.4706  0.2865  0.5574
   26MOL   C212 6762   5.150   7.039   0.551  0.1288  0.3001  0.2643
   26MOL   C213 6763   5.049   7.108   0.644  0.3499  0.7926 -0.4564
   26MOL   C214 6764   5.155   6.890   0.551  0.1418  0.9596  0.1334
   26MOL   H215 6765   5.426   7.138   0.392 -0.2549  0.9349  0.7841
   26MOL   H216 6766   5.364   6.971   0.398  0.7554  0.0738  1.0224
   26MOL   H217 6767   5.218   7.221   0.467 -0.6562 -0.0192 -2.5246
   26MOL   H218 6768   4.952   7.061   0.629 -0.3767  1.0793  2.9328
   26MOL   H219 6769   5.036   7.213   0.618 -0.2364  1.0036  0.6279
   26MOL   H220 6770   5.069   7.096   0.751  2.3679  1.6174 -0.7181
   26MOL   H221 6771   5.196   6.853   0.457  1.9602  3.5823 -0.1465
   26MOL   H222 6772   5.053   6.854   0.534  0.1354  0.2495  1.6048
   26MOL   C223 6773   5.207   6.819   0.676 -0.2562  0.2718 -0.4882
   26MOL   C224 6774   5.204   6.668   0.648 -0.6602  0.1633 -0.4028
   26MOL   C225 6775   5.186   6.571   0.739  0.3048 -0.0073 -0.1911
   26MOL   C226 6776   5.179   6.423   0.687 -0.0074  0.2998  0.6297
   26MOL   C227 6777   5.144   6.592   0.885 -0.1514 -0.4052  0.3372
   26MOL   H228 6778   5.165   6.846   0.773 -1.7181  1.4358 -1.4240
   26MOL   H229 6779   5.314   6.839   0.681 -0.4234  0.7574  1.7647
   26MOL   H230 6780   5.213   6.642   0.544  1.6146 -1.8980  0.2685
   26MOL   H231 6781   5.223   6.356   0.760  1.2767 -1.0993 -1.3872
   26MOL   H232 6782   5.228   6.413   0.590 -0.4630  0.0075  0.4243
   26MOL   H233 6783   5.075   6.393   0.668  0.0887 -0.5364  1.4193
   26MOL   H234 6784   5.075   6.510   0.905 -0.7568  0.4091  1.6464
   26MOL   H235 6785   5.092   6.687   0.891  1.4482  0.5387 -0.4206
   26MOL   C236 6786   5.266   6.594   0.978  0.6063 -0.2653  0.9217
   26MOL   C237 6787   5.249   6.652   1.111  0.0795 -0.1813 -0.2532
   26MOL   C238 6788   5.241   6.587   1.229  0.5697  0.3501  0.7107
   26MOL   C239 6789   5.216   6.667   1.352  0.1202  0.0342 -0.4678
   26MOL   C240 6790   5.240   6.437   1.241  0.1326  0.0105 -0.8434
   26MOL   H241 6791   5.341   6.655   0.927 -0.0391  0.1566  0.4701
   26MOL   H242 6792   5.304   6.492   0.983  0.9277 -0.3649 -2.3617
   26MOL   H243 6793   5.248   6.760   1.110  0.8816 -0.1710 -0.0020
   26MOL   H244 6794   5.112   6.660   1.382 -0.1303 -1.4195 -1.6507
   26MOL   H245 6795   5.239   6.772   1.338 -0.8449  0.4684  1.0846
   26MOL   H246 6796   5.275   6.628   1.436 -0.2430  2.2252  0.8407
   26MOL   H247 6797   5.313   6.420   1.320 -1.3584  1.2343  0.8611
   26MOL   H248 6798   5.277   6.394   1.148 -0.0290 -1.1188 -0.3934
   26MOL   C249 6799   5.104   6.369   1.264  0.4188  0.4793 -0.8593
   26MOL   C250 6800   5.007   6.413   1.155  0.0944  1.3343  0.2185
   26MOL   C251 6801   4.889   6.350   1.124  0.8744  1.2033 -0.0013
   26MOL   C252 6802   4.799   6.408   1.014 -0.0183 -0.1860  0.5911
   26MOL   C253 6803   4.837   6.218   1.178 -0.2995 -0.3318  0.3613
   26MOL   H254 6804   5.061   6.385   1.363 -0.4421 -1.5918 -0.8802
   26MOL   H255 6805   5.126   6.263   1.251 -0.4472  0.2465 -0.4624
   26MOL   H256 6806   5.029   6.510   1.111 -1.1121  0.6686 -1.8976
   26MOL   H257 6807   4.700   6.426   1.055 -0.8996 -2.2551 -0.5439
   26MOL   H258 6808   4.788   6.341   0.929  1.5947 -0.5761  0.6792
   26MOL   H259 6809   4.845   6.500   0.977 -0.8452  0.1176  0.3110
   26MOL   H260 6810   4.907   6.171   1.247  0.3853 -0.0083 -0.1090
   26MOL   H261 6811   4.819   6.144   1.100 -1.3592  1.1803 -0.8457
   26MOL   H262 6812   4.736   6.226   1.218  0.0515 -0.1033  1.2245
   27MOL     C1 6813   3.933   1.043   2.392 -0.6814 -0.3472  0.2398
   27MOL     C2 6814   3.783   1.017   2.387 -0.2719 -1.0629 -0.4808
   27MOL     C3 6815   3.695   1.067   2.295 -0.2963  0.4178 -0.5301
   27MOL     C4 6816   3.547   1.021   2.313  0.3610 -0.3992 -0.5638
   27MOL     C5 6817   3.722   1.154   2.173 -0.2161 -0.0549  0.0780
   27MOL     H6 6818   3.967   1.063   2.493 -1.0086 -2.1513  0.7147
   27MOL     H7 6819   3.995   0.958   2.365 -0.4729  0.6711 -2.7845
   27MOL     H8 6820   3.750   0.952   2.467 -0.8272  1.3764  1.3458
   27MOL     H9 6821   3.546   0.969   2.409  1.3541 -0.6812 -0.7044
   27MOL    H10 6822   3.518   0.955   2.231 -0.3666  2.7555 -2.9221
   27MOL    H11 6823   3.483   1.109   2.318  1.2653  0.2722 -0.6804
   27MOL    H12 6824   3.796   1.230   2.199 -0.0024 -0.6400  1.2183
   27MOL    H13 6825   3.639   1.211   2.129  1.3466  1.8355 -0.4986
   27MOL    H14 6826   3.967   1.121   2.323  1.1256 -2.3218 -1.1512
   27MOL    C15 6827   3.785   1.070   2.060  0.1133  0.3362  0.3029
   27MOL    C16 6828   3.796   1.146   1.927  0.1757  0.1079 -0.6129
   27MOL    C17 6829   3.736   1.100   1.813 -0.4434 -0.2395 -0.6029
   27MOL    C18 6830   3.727   1.186   1.691  0.3688 -0.3271  0.4098
   27MOL    C19 6831   3.662   0.968   1.798 -0.3272  0.3198  0.2045
   27MOL    H20 6832   3.733   0.974   2.061  2.1440 -0.8370 -1.5849
   27MOL    H21 6833   3.887   1.039   2.083  0.7198  2.4815  0.5833
   27MOL    H22 6834   3.842   1.244   1.932  0.0847  0.1617 -0.8317
   27MOL    H23 6835   3.780   1.281   1.690  1.0743 -0.7008 -2.5241
   27MOL    H24 6836   3.623   1.217   1.688  0.4049 -0.3009 -0.7747
   27MOL    H25 6837   3.756   1.125   1.605 -1.2882 -1.1504  0.4251
   27MOL    H26 6838   3.708   0.890   1.858  1.4283 -0.9591 -2.6954
   27MOL    H27 6839   3.687   0.939   1.696  1.4126  1.0540  0.4011
   27MOL    C28 6840   3.508   0.973   1.818 -0.1374 -0.0406  0.6436
   27MOL    C29 6841   3.432   0.848   1.788 -0.2579  0.7458 -0.1138
   27MOL    C30 6842   3.309   0.809   1.832  0.2667  0.3980  0.7376
   27MOL    C31 6843   3.247   0.677   1.785 -0.5649 -0.2526 -0.0906
   27MOL    C32 6844   3.237   0.902   1.931 -0.4748 -0.0669  0.2748
   27MOL    H33 6845   3.459   1.046   1.754 -2.0004 -1.5133  0.3254
   27MOL    H34 6846   3.496   0.995   1.924  2.9829 -0.4175  1.1345
   27MOL    H35 6847   3.472   0.783   1.711 -0.6980  0.1363  0.1679
   27MOL    H36 6848   3.318   0.608   1.739  1.1381  1.2364  0.2392
   27MOL    H37 6849   3.189   0.709   1.698  2.1130  0.6880 -1.5833
   27MOL    H38 6850   3.192   0.621   1.860  3.3981 -4.2101  0.0759
   27MOL    H39 6851   3.129   0.888   1.919 -0.3231 -1.2769  0.2205
   27MOL    H40 6852   3.251   1.005   1.899  0.7946 -0.9230 -2.0018
   27MOL    C41 6853   3.278   0.877   2.081 -0.1087 -0.5275 -0.3529
   27MOL    C42 6854   3.200   0.771   2.163  0.2682  0.2702 -0.0828
   27MOL    C43 6855   3.187   0.754   2.299  0.2316  0.4521  0.3100
   27MOL    C44 6856   3.098   0.648   2.366  0.4832  0.5225 -0.1738
   27MOL    C45 6857   3.250   0.855   2.396  0.2850  0.3544 -0.0300
   27MOL    H46 6858   3.273   0.973   2.132  0.9708 -0.8296  0.3373
   27MOL    H47 6859   3.384   0.856   2.096  0.4851  2.4403 -0.1392
   27MOL    H48 6860   3.146   0.702   2.100  0.0011  1.0885 -0.7535
   27MOL    H49 6861   3.028   0.699   2.432 -1.2560  0.2328 -1.7538
   27MOL    H50 6862   3.165   0.586   2.426 -1.2059  0.9549  2.2434
   27MOL    H51 6863   3.046   0.578   2.301 -0.3496  0.7056  0.2795
   27MOL    H52 6864   3.354   0.869   2.365  0.1860  1.1449 -0.0146
   27MOL    H53 6865   3.254   0.800   2.490 -0.6825  1.5210  0.7018
   27MOL    C54 6866   3.165   0.981   2.418 -0.5315  0.0786  0.5751
   27MOL    C55 6867   3.205   1.056   2.545 -0.0991 -0.7104  0.0700
   27MOL    C56 6868   3.172   1.020   2.667  0.0266 -0.3081 -0.1983
   27MOL    C57 6869   3.227   1.107   2.784 -0.3213  0.0127 -0.5768
   27MOL    C58 6870   3.083   0.899   2.704 -0.5263  0.0896  0.5145
   27MOL    H59 6871   3.062   0.946   2.426  0.2947 -1.9675  2.8752
   27MOL    H60 6872   3.174   1.044   2.330 -0.2254  0.1369  0.6483
   27MOL    H61 6873   3.263   1.146   2.532  0.6936 -0.9827  1.6999
   27MOL    H62 6874   3.302   1.046   2.834  0.9079  4.2706  3.1105
   27MOL    H63 6875   3.147   1.133   2.853  1.6596 -1.2735  2.3033
   27MOL    H64 6876   3.284   1.191   2.745  0.4578 -0.5282 -0.6094
   27MOL    H65 6877   3.141   0.840   2.774  0.2894 -0.7887 -0.8855
   27MOL    H66 6878   3.071   0.844   2.610  0.2572 -0.2370  0.6034
   27MOL    C67 6879   2.950   0.934   2.774  0.5039  0.3913  0.4257
   27MOL    C68 6880   2.893   0.815   2.851 -0.4662  0.0433 -0.3475
   27MOL    C69 6881   2.855   0.808   2.982 -1.0653 -0.0328  1.1233
   27MOL    C70 6882   2.794   0.682   3.043  0.2385 -0.6912  0.0307
   27MOL    C71 6883   2.866   0.917   3.081 -0.5968 -0.1383 -0.1235
   27MOL    H72 6884   2.872   0.971   2.707  0.0981  2.4189  1.9628
   27MOL    H73 6885   2.960   1.018   2.843 -1.8198  0.3708  0.8401
   27MOL    H74 6886   2.878   0.732   2.784  0.3583 -0.9314  0.6526
   27MOL    H75 6887   2.751   0.622   2.964 -3.8899 -0.0558  1.6403
   27MOL    H76 6888   2.703   0.713   3.095 -0.4862  0.6673 -1.9973
   27MOL    H77 6889   2.863   0.625   3.105  1.0899 -0.2326 -0.4816
   27MOL    H78 6890   2.816   0.907   3.178 -0.3512  2.8375  0.3619
   27MOL    H79 6891   2.819   1.003   3.032 -0.3328  0.2472  0.2894
   27MOL    C80 6892   3.015   0.948   3.116 -0.1543  0.2307  0.8239
   27MOL    C81 6893   3.031   1.093   3.181 -0.1014 -0.1850  0.5778
   27MOL    C82 6894   3.087   1.122   3.301 -0.1347 -0.7953  0.3718
   27MOL    C83 6895   3.154   1.020   3.383  0.4961 -0.1976 -1.4647
   27MOL    C84 6896   3.100   1.269   3.351  0.2122  0.1881 -0.6731
   27MOL    H85 6897   3.079   0.957   3.029 -2.0456 -4.1927 -1.1465
   27MOL    H86 6898   3.059   0.873   3.181  0.8527  0.3940  0.3448
   27MOL    H87 6899   2.980   1.172   3.127  1.8159  0.8820  0.2752
   27MOL    H88 6900   3.257   1.014   3.346  1.1170  0.7096  0.0584
   27MOL    H89 6901   3.111   0.920   3.377  1.7304 -0.7984 -0.5875
   27MOL    H90 6902   3.151   1.043   3.490 -1.6771  0.0159 -1.5619
   27MOL    H91 6903   3.073   1.280   3.456  3.1584  3.9806 -0.1840
   27MOL    H92 6904   3.029   1.327   3.293 -0.2188  0.4563  0.1154
   27MOL    C93 6905   3.245   1.328   3.350  0.6530  0.4463 -0.1381
   27MOL    C94 6906   3.281   1.380   3.204 -0.4253 -0.5646 -0.1433
   27MOL    C95 6907   3.375   1.336   3.119  0.1807  1.0971  1.1077
   27MOL    C96 6908   3.412   1.403   2.990  0.0897 -0.0165 -0.0823
   27MOL    C97 6909   3.465   1.224   3.151  0.5094  0.2913 -0.3522
   27MOL    H98 6910   3.316   1.260   3.397 -0.0544  0.8144  1.4769
   27MOL    H99 6911   3.250   1.422   3.404  2.4005  1.2812 -1.6945
   27MOL   H100 6912   3.225   1.469   3.176 -0.4977 -0.1168  1.3883
   27MOL   H101 6913   3.503   1.459   3.011  0.0378 -0.9028  2.7346
   27MOL   H102 6914   3.427   1.326   2.915  0.9256  2.7935 -2.8795
   27MOL   H103 6915   3.331   1.464   2.950 -0.0407 -0.3636 -0.3506
   27MOL   H104 6916   3.466   1.193   3.256  0.0774  0.4234 -0.3081
   27MOL   H105 6917   3.564   1.268   3.139  0.5588 -0.0879 -1.3171
   27MOL   C106 6918   3.454   1.088   3.077  0.5556  0.1627 -0.4832
   27MOL   C107 6919   3.565   0.993   3.119  0.1449  0.0355 -0.5536
   27MOL   C108 6920   3.554   0.862   3.152 -0.1409  0.3312  0.3308
   27MOL   C109 6921   3.425   0.789   3.146  0.4255 -0.5547  0.2832
   27MOL   C110 6922   3.672   0.787   3.195 -0.3236 -0.3718 -0.6006
   27MOL   H111 6923   3.475   1.103   2.971 -1.2584  0.0293 -0.8802
   27MOL   H112 6924   3.355   1.048   3.097  1.3251 -1.5375 -0.0375
   27MOL   H113 6925   3.665   1.032   3.119 -0.1790  0.8632 -0.8247
   27MOL   H114 6926   3.344   0.860   3.127  0.6165 -0.3379  0.2778
   27MOL   H115 6927   3.417   0.704   3.079  1.6691 -0.4573  0.0049
   27MOL   H116 6928   3.422   0.744   3.245 -1.5390  0.1177  0.5453
   27MOL   H117 6929   3.643   0.755   3.296 -0.6764  1.4402 -0.1069
   27MOL   H118 6930   3.752   0.860   3.207 -0.3228 -0.4452 -0.1466
   27MOL   C119 6931   3.711   0.666   3.109 -0.3802  0.0024  0.0985
   27MOL   C120 6932   3.829   0.598   3.191 -0.1486  0.3782  0.1036
   27MOL   C121 6933   3.876   0.472   3.167  0.5336  0.4210 -0.2045
   27MOL   C122 6934   4.001   0.421   3.231 -0.2874 -0.2667 -0.5654
   27MOL   C123 6935   3.797   0.380   3.060  0.2975  0.2545  0.1351
   27MOL   H124 6936   3.740   0.696   3.009  0.2137 -1.2449 -0.1188
   27MOL   H125 6937   3.627   0.598   3.097 -0.8746  0.8019 -0.9447
   27MOL   H126 6938   3.887   0.668   3.249 -0.0254 -0.0093  0.4490
   27MOL   H127 6939   4.076   0.397   3.155  3.2976  0.5268  2.5794
   27MOL   H128 6940   3.979   0.323   3.273  0.1508 -0.7333 -1.4221
   27MOL   H129 6941   4.047   0.487   3.304  3.1515 -1.5865 -1.4319
   27MOL   H130 6942   3.691   0.406   3.059  0.3777  0.6263 -2.1417
   27MOL   H131 6943   3.808   0.282   3.105  2.3263 -0.1140 -1.0965
   27MOL   C132 6944   3.869   0.358   2.925  0.5052  0.0659 -0.2962
   27MOL   C133 6945   3.800   0.278   2.816 -0.3745  0.2524  0.4153
   27MOL   C134 6946   3.853   0.187   2.735  0.4417 -0.0981  0.2485
   27MOL   C135 6947   3.773   0.101   2.629  0.3226  0.1790  0.0588
   27MOL   C136 6948   3.999   0.147   2.741  0.5159 -0.0369 -0.1713
   27MOL   H137 6949   3.954   0.302   2.965 -0.6177  0.1875  2.3992
   27MOL   H138 6950   3.910   0.453   2.890 -0.5349  0.8713  0.6175
   27MOL   H139 6951   3.694   0.284   2.800 -0.2858 -1.4483 -0.9547
   27MOL   H140 6952   3.674   0.137   2.601 -0.8808 -2.4317  0.8199
   27MOL   H141 6953   3.788   7.875   2.651 -0.6690 -0.0534 -0.3372
   27MOL   H142 6954   3.835   0.104   2.540  1.7835  2.3177  1.1111
   27MOL   H143 6955   4.058   0.223   2.792  0.1452  1.2777 -1.6626
   27MOL   H144 6956   4.028   0.135   2.637  0.1707 -0.7899 -0.1885
   27MOL   C145 6957   4.014   0.010   2.821 -0.1567 -0.0018 -0.2167
   27MOL   C146 6958   4.158   7.842   2.827  0.3804 -0.0476 -0.4037
   27MOL   C147 6959   4.196   7.732   2.901 -0.6559 -0.1210 -1.0015
   27MOL   C148 6960   4.337   7.678   2.872  0.4878  0.3115 -0.4025
   27MOL   C149 6961   4.098   7.651   2.975  0.0148  0.3319 -0.2476
   27MOL   H150 6962   3.957   7.812   2.770 -0.6741  1.1257 -1.3718
   27MOL   H151 6963   3.969   0.028   2.919  1.5858 -0.9138  0.7702
   27MOL   H152 6964   4.232   7.878   2.757  0.1831  0.6568 -0.2578
   27MOL   H153 6965   4.379   7.661   2.971 -1.7962 -1.1353  0.3482
   27MOL   H154 6966   4.399   7.751   2.820  0.5898  0.6535  0.2009
   27MOL   H155 6967   4.338   7.579   2.825  1.4621  0.4454 -0.6778
   27MOL   H156 6968   3.995   7.678   2.948 -0.2132 -0.8222 -0.5422
   27MOL   H157 6969   4.107   7.654   3.083  3.7097  0.3883 -0.4842
   27MOL   C158 6970   4.094   7.508   2.921  0.3937 -0.6216 -1.1613
   27MOL   C159 6971   3.991   7.419   3.001  0.4217 -0.1437 -0.1289
   27MOL   C160 6972   3.880   7.353   2.952  0.1492 -0.3253 -0.1195
   27MOL   C161 6973   3.853   7.371   2.810 -0.3834  0.3237 -0.1426
   27MOL   C162 6974   3.782   7.276   3.034  1.0766 -0.6258 -0.1798
   27MOL   H163 6975   4.194   7.465   2.934  0.1114 -1.3922 -1.5474
   27MOL   H164 6976   4.066   7.519   2.817 -1.2538  0.6550 -0.6106
   27MOL   H165 6977   4.023   7.403   3.103  0.4908 -2.3987 -0.4803
   27MOL   H166 6978   3.911   7.322   2.732 -2.0475  0.4851 -1.5265
   27MOL   H167 6979   3.861   7.475   2.777  1.0693  0.4780  0.6781
   27MOL   H168 6980   3.746   7.360   2.789 -0.4100  0.5446 -0.1256
   27MOL   H169 6981   3.818   7.265   3.136 -0.4629 -1.6491  0.2737
   27MOL   H170 6982   3.760   7.183   2.983 -1.8483 -0.4417  0.6511
   27MOL   C171 6983   3.640   7.345   3.043 -0.8527  0.2627 -0.7895
   27MOL   C172 6984   3.539   7.245   3.105  0.4301 -0.6074  0.5680
   27MOL   C173 6985   3.430   7.190   3.040  0.4075  0.6683 -0.5038
   27MOL   C174 6986   3.405   7.192   2.893  0.3859 -0.0995 -0.1117
   27MOL   C175 6987   3.345   7.094   3.126 -0.1217 -0.1438  0.5985
   27MOL   H176 6988   3.598   7.373   2.946  0.4068  1.1661 -1.0912
   27MOL   H177 6989   3.636   7.442   3.092 -0.9290 -0.3521  0.4440
   27MOL   H178 6990   3.548   7.223   3.210  0.1820  0.3340  0.7912
   27MOL   H179 6991   3.358   7.101   2.856 -0.5660  0.4510 -0.2565
   27MOL   H180 6992   3.493   7.229   2.840 -0.5627 -0.3611 -1.8769
   27MOL   H181 6993   3.328   7.266   2.876  0.4115  0.3039  1.4231
   27MOL   H182 6994   3.387   7.093   3.227  3.4406 -0.2202 -0.8361
   27MOL   H183 6995   3.340   6.992   3.088 -0.4929  0.0985 -0.0093
   27MOL   C184 6996   3.194   7.141   3.127  0.0308  0.3693 -0.5741
   27MOL   C185 6997   3.163   7.251   3.232 -0.4552  0.9135 -0.1862
   27MOL   C186 6998   3.130   7.375   3.206  0.2071  0.2248 -0.3475
   27MOL   C187 6999   3.094   7.468   3.311  0.3785 -1.0170 -0.0339
   27MOL   C188 7000   3.110   7.431   3.064 -0.3737  0.4202 -0.2195
   27MOL   H189 7001   3.135   7.058   3.165  1.4839 -0.3290  0.1996
   27MOL   H190 7002   3.148   7.150   3.029 -1.9729  1.0914  0.4172
   27MOL   H191 7003   3.177   7.217   3.334  0.6129 -0.7027 -0.8475
   27MOL   H192 7004   3.112   7.426   3.410  2.1426  1.3584  0.6932
   27MOL   H193 7005   2.993   7.508   3.315  0.8455  0.2555 -0.8038
   27MOL   H194 7006   3.164   7.549   3.294 -0.3066 -0.3710  0.1951
   27MOL   H195 7007   3.140   7.353   2.994 -1.9723  0.4306 -0.9304
   27MOL   H196 7008   3.172   7.516   3.036  1.7925 -0.8595  0.5796
   27MOL   C197 7009   2.967   7.479   3.031  0.2050  0.5745 -0.2017
   27MOL   C198 7010   2.920   7.476   2.889  0.5342 -0.3510 -0.4885
   27MOL   C199 7011   2.798   7.512   2.844  0.1987 -0.1810  0.2058
   27MOL   C200 7012   2.760   7.490   2.697  0.2399 -0.4660  0.0471
   27MOL   C201 7013   2.700   7.573   2.940 -0.4852 -0.1914  0.3916
   27MOL   H202 7014   2.948   7.568   3.090 -1.7950 -1.4368  2.2604
   27MOL   H203 7015   2.906   7.404   3.081  1.4395  0.4839  1.2034
   27MOL   H204 7016   2.996   7.431   2.827  0.8105 -0.0772 -0.3468
   27MOL   H205 7017   2.823   7.418   2.646 -0.7086 -1.6237  0.4868
   27MOL   H206 7018   2.773   7.588   2.650 -0.2503  0.4014  1.6850
   27MOL   H207 7019   2.654   7.466   2.687  0.4934 -1.4889 -0.1984
   27MOL   H208 7020   2.732   7.592   3.043  1.0685 -1.1572  0.0938
   27MOL   H209 7021   2.610   7.511   2.943 -1.5025  1.1769 -0.9238
   27MOL   C210 7022   2.644   7.704   2.878 -0.2350 -0.1471 -0.1957
   27MOL   C211 7023   2.535   7.775   2.965  0.3733 -0.6013 -0.6347
   27MOL   C212 7024   2.545   0.001   3.051 -0.4832  0.1021  0.7631
   27MOL   C213 7025   2.430   0.071   3.106  0.3488  0.0916  0.1561
   27MOL   C214 7026   2.678   0.041   3.114 -0.2589  0.3703  0.0344
   27MOL   H215 7027   2.604   7.681   2.779 -1.7269 -2.7773  0.9831
   27MOL   H216 7028   2.732   7.765   2.857  1.2436 -1.8648  0.8637
   27MOL   H217 7029   2.435   7.738   2.946 -0.6127  1.2541  0.7588
   27MOL   H218 7030   2.459   0.163   3.158  0.9984  0.0842 -0.1823
   27MOL   H219 7031   2.373   0.010   3.176  0.8179 -2.4542 -1.6147
   27MOL   H220 7032   2.355   0.100   3.033  0.3924  5.2065  1.8982
   27MOL   H221 7033   2.753   7.847   3.086  0.1611  0.7948  0.0556
   27MOL   H222 7034   2.665   0.049   3.222  1.5564 -1.3111  0.3872
   27MOL   C223 7035   2.730   0.172   3.063  0.2939 -0.1470 -0.5104
   27MOL   C224 7036   2.868   0.208   3.115  0.2614 -0.1605  0.2357
   27MOL   C225 7037   2.985   0.197   3.046 -0.4472  0.2929 -0.5707
   27MOL   C226 7038   3.114   0.235   3.107 -0.5294  0.2494  0.3716
   27MOL   C227 7039   3.004   0.122   2.916  1.3501 -0.6130 -0.4741
   27MOL   H228 7040   2.656   0.242   3.101  0.1372 -0.1639 -0.7853
   27MOL   H229 7041   2.720   0.186   2.955 -0.3639 -0.9593 -0.5610
   27MOL   H230 7042   2.870   0.252   3.214  2.8523 -0.0718  0.1762
   27MOL   H231 7043   3.092   0.306   3.186 -0.3955 -0.3363  0.9384
   27MOL   H232 7044   3.182   0.283   3.037  2.5571 -0.5701  2.7102
   27MOL   H233 7045   3.159   0.146   3.151 -2.7268 -0.9233  0.2903
   27MOL   H234 7046   3.063   0.186   2.850  1.3389  0.4001  0.4953
   27MOL   H235 7047   2.910   0.108   2.862 -0.0874 -1.9531  2.2909
   27MOL   C236 7048   3.093   7.872   2.927 -0.4048 -0.2827  0.0243
   27MOL   C237 7049   3.113   7.809   2.786  0.0368 -0.4935 -1.3117
   27MOL   C238 7050   3.216   7.730   2.749  0.4720 -0.8567  0.3382
   27MOL   C239 7051   3.224   7.656   2.618 -0.0263  0.3827  0.0590
   27MOL   C240 7052   3.337   7.698   2.841  0.1131 -0.0286 -0.7181
   27MOL   H241 7053   3.031   7.802   2.984  0.7949 -0.8869  0.6045
   27MOL   H242 7054   3.187   0.002   2.981  0.1279 -1.7185 -0.6336
   27MOL   H243 7055   3.041   7.832   2.709  0.8395 -1.3962 -2.3614
   27MOL   H244 7056   3.249   7.551   2.629  0.3381  0.6955  2.3818
   27MOL   H245 7057   3.298   7.702   2.552  1.0840 -0.1732  0.9009
   27MOL   H246 7058   3.127   7.679   2.573  0.4855 -0.4784 -1.5209
   27MOL   H247 7059   3.354   7.591   2.843  4.0417  0.5354  2.2191
   27MOL   H248 7060   3.305   7.702   2.945  0.9733 -2.0382 -0.3687
   27MOL   C249 7061   3.468   7.769   2.809  0.0643  0.5531  0.8786
   27MOL   C250 7062   3.579   7.716   2.897  0.2258  0.6006  0.0315
   27MOL   C251 7063   3.633   7.776   3.008  0.7493  0.1249 -0.3171
   27MOL   C252 7064   3.750   7.707   3.072  0.2519  0.3981  0.3783
   27MOL   C253 7065   3.591   0.034   3.057 -0.2126 -0.1314 -0.4554
   27MOL   H254 7066   3.451   7.875   2.824 -1.4585  0.7653 -2.1210
   27MOL   H255 7067   3.505   7.754   2.708 -0.8862 -1.7307  0.8305
   27MOL   H256 7068   3.617   7.620   2.864  0.6594  1.3052 -1.5874
   27MOL   H257 7069   3.797   7.627   3.013  1.5940  0.6699  1.0687
   27MOL   H258 7070   3.718   7.680   3.172  0.7458  1.8159  0.9296
   27MOL   H259 7071   3.829   7.781   3.081  1.4076 -0.7766  0.1002
   27MOL   H260 7072   3.617   0.047   3.162 -0.7917 -0.5084 -0.2611
   27MOL   H261 7073   3.483   0.048   3.053 -0.0116  1.3162 -1.5910
   27MOL   H262 7074   3.650   0.112   3.008  0.1597  1.4067  2.3268
   28MOL     C1 7075   1.096   1.342   3.353  0.0269  0.0357  0.0771
   28MOL     C2 7076   1.110   1.269   3.481  0.1636 -0.3105 -0.7821
   28MOL     C3 7077   1.031   1.280   3.588  0.1235  0.1909 -0.3997
   28MOL     C4 7078   1.040   1.172   3.702  0.4564 -1.0027 -0.4606
   28MOL     C5 7079   0.901   1.359   3.590 -0.4328  0.3719  0.2402
   28MOL     H6 7080   1.196   1.375   3.326  1.1776 -2.4387  1.1747
   28MOL     H7 7081   1.046   1.276   3.283  0.1273  0.6763 -0.6069
   28MOL     H8 7082   1.188   1.194   3.474 -0.8565 -1.6255  1.3045
   28MOL     H9 7083   1.027   1.210   3.803 -0.9115 -1.8090 -0.3252
   28MOL    H10 7084   1.133   1.117   3.714  1.6177  0.8190 -0.8107
   28MOL    H11 7085   0.961   1.100   3.683 -0.3942 -0.4103  0.7275
   28MOL    H12 7086   0.820   1.294   3.623 -0.8211  0.0070 -1.3779
   28MOL    H13 7087   0.873   1.390   3.489 -0.8173  0.3111  0.3273
   28MOL    H14 7088   1.036   1.433   3.353  1.3092  0.8940 -0.5767
   28MOL    C15 7089   0.908   1.479   3.690 -0.7945 -0.1542 -1.0910
   28MOL    C16 7090   0.773   1.554   3.701  0.0189 -0.3174 -0.4022
   28MOL    C17 7091   0.761   1.682   3.745 -0.2649 -0.0712  0.3369
   28MOL    C18 7092   0.625   1.751   3.744 -0.2156  0.6633 -0.2433
   28MOL    C19 7093   0.874   1.775   3.787 -0.0961 -0.1617 -0.0999
   28MOL    H20 7094   0.976   1.552   3.647  1.1192 -0.3867  1.4355
   28MOL    H21 7095   0.947   1.452   3.788  0.4156  0.4446 -1.3932
   28MOL    H22 7096   0.687   1.488   3.695  0.4480 -1.2207  2.5691
   28MOL    H23 7097   0.606   1.782   3.846  2.0890  0.3502  0.2947
   28MOL    H24 7098   0.547   1.686   3.704 -0.0541  0.8497 -0.8707
   28MOL    H25 7099   0.623   1.841   3.682 -1.5965  1.2604  0.6382
   28MOL    H26 7100   0.854   1.879   3.762 -0.4675 -0.3573 -0.6137
   28MOL    H27 7101   0.974   1.755   3.749 -0.4946  1.8895 -2.3031
   28MOL    C28 7102   0.893   1.787   3.941 -0.2332 -0.7219 -0.2136
   28MOL    C29 7103   1.005   1.884   3.980 -0.2886 -0.7050  0.1517
   28MOL    C30 7104   0.998   1.986   4.066  0.2169 -0.0633  0.3824
   28MOL    C31 7105   1.116   2.069   4.118 -0.6929 -0.2507 -0.5325
   28MOL    C32 7106   0.869   2.028   4.139  0.1870 -0.8263  0.0640
   28MOL    H33 7107   0.930   1.693   3.983  1.8765  1.0738  2.0605
   28MOL    H34 7108   0.802   1.818   3.993  1.7362  1.8811  1.7851
   28MOL    H35 7109   1.102   1.863   3.939  0.3016  1.0622  0.6006
   28MOL    H36 7110   1.117   2.176   4.095 -0.1149 -0.1964 -0.2751
   28MOL    H37 7111   1.210   2.034   4.075 -1.1016 -2.6429  0.4658
   28MOL    H38 7112   1.132   2.070   4.226  1.5136  0.5478 -0.8294
   28MOL    H39 7113   0.791   2.021   4.062  0.4119 -0.3800 -0.2050
   28MOL    H40 7114   0.886   2.132   4.167  1.6597 -0.7293 -1.1658
   28MOL    C41 7115   0.839   1.958   4.274 -0.2621 -0.4261 -0.2897
   28MOL    C42 7116   0.713   2.013   4.334  1.1765 -0.0587  0.5670
   28MOL    C43 7117   0.587   1.974   4.308  0.1741 -0.3420  0.0107
   28MOL    C44 7118   0.470   2.049   4.369  0.1365  0.0096 -0.0426
   28MOL    C45 7119   0.552   1.850   4.221  0.9954 -0.5000  0.1205
   28MOL    H46 7120   0.924   1.977   4.341 -1.2608  1.9104  0.3551
   28MOL    H47 7121   0.842   1.850   4.259  0.6865 -0.5480  0.6913
   28MOL    H48 7122   0.736   2.101   4.392 -1.8255  1.3799 -0.3503
   28MOL    H49 7123   0.402   1.980   4.417  0.5787 -0.1450  0.3673
   28MOL    H50 7124   0.414   2.104   4.293  0.1488  1.3201  0.8707
   28MOL    H51 7125   0.494   2.110   4.456 -0.9850  1.5003 -0.7487
   28MOL    H52 7126   0.638   1.814   4.165  0.2681 -0.0603 -1.3036
   28MOL    H53 7127   0.474   1.887   4.153  0.6416 -2.2209 -0.4292
   28MOL    C54 7128   0.500   1.740   4.307  0.3094 -0.3520 -0.4655
   28MOL    C55 7129   0.401   1.647   4.247 -0.4997 -0.3338  0.4928
   28MOL    C56 7130   0.381   1.518   4.271  0.0379  0.3309  0.0111
   28MOL    C57 7131   0.271   1.447   4.197  0.1251  0.2407  0.6348
   28MOL    C58 7132   0.462   1.429   4.371  0.7036 -0.1761  0.0877
   28MOL    H59 7133   0.458   1.776   4.401 -0.1111  1.8328 -1.4574
   28MOL    H60 7134   0.585   1.680   4.339  0.5127  0.0243 -0.2964
   28MOL    H61 7135   0.332   1.691   4.176 -0.2933  0.6363  0.8915
   28MOL    H62 7136   0.196   1.408   4.266 -1.7444 -1.4521 -2.2145
   28MOL    H63 7137   0.319   1.368   4.140 -0.9441 -0.6001  0.8716
   28MOL    H64 7138   0.207   1.510   4.135 -1.0074  0.7569  2.2869
   28MOL    H65 7139   0.531   1.494   4.426  0.0699  0.3251  0.2965
   28MOL    H66 7140   0.519   1.354   4.316  1.0014 -0.5085  0.8439
   28MOL    C67 7141   0.372   1.360   4.471  0.3301 -0.4568  0.0804
   28MOL    C68 7142   0.449   1.322   4.595 -0.5048  0.3136  0.5593
   28MOL    C69 7143   0.412   1.333   4.722 -0.0245 -0.5700  0.1921
   28MOL    C70 7144   0.508   1.295   4.833  0.1127 -0.0925 -0.0690
   28MOL    C71 7145   0.278   1.386   4.765 -0.2359 -0.7691  0.5707
   28MOL    H72 7146   0.315   1.283   4.419  1.6475 -0.8154 -0.8575
   28MOL    H73 7147   0.296   1.432   4.502  0.6387  0.2499 -0.7753
   28MOL    H74 7148   0.544   1.273   4.582 -0.7881 -0.2802  0.6950
   28MOL    H75 7149   0.519   1.376   4.905  1.0164 -1.2617  1.1332
   28MOL    H76 7150   0.610   1.279   4.796  0.1134 -0.7711  0.1984
   28MOL    H77 7151   0.471   1.206   4.885  0.5497 -1.7494 -2.5261
   28MOL    H78 7152   0.239   1.319   4.841  1.4950 -2.4311  0.0272
   28MOL    H79 7153   0.201   1.381   4.687 -1.3450 -0.4247  1.6280
   28MOL    C80 7154   0.293   1.533   4.821  0.3945  0.1132  0.1237
   28MOL    C81 7155   0.162   1.605   4.845 -0.0780 -1.4834  0.0967
   28MOL    C82 7156   0.108   1.695   4.758  0.0840 -0.6363  0.2319
   28MOL    C83 7157   0.169   1.731   4.630  0.6069 -0.8957  0.8654
   28MOL    C84 7158   7.867   1.780   4.799 -0.0363 -0.1192 -0.1406
   28MOL    H85 7159   0.364   1.577   4.750 -0.9539 -0.3625 -1.5570
   28MOL    H86 7160   0.350   1.537   4.914  0.2525 -0.7499  0.2505
   28MOL    H87 7161   0.113   1.586   4.939 -1.1880 -2.4898 -0.6726
   28MOL    H88 7162   0.101   1.792   4.571  1.9484  0.5101  0.7307
   28MOL    H89 7163   0.201   1.656   4.557  0.0367  0.7631 -1.1360
   28MOL    H90 7164   0.249   1.802   4.650  0.4818 -0.2541 -0.8131
   28MOL    H91 7165   0.018   1.885   4.796 -0.7534  0.0991  0.1986
   28MOL    H92 7166   7.853   1.763   4.906 -0.0690 -0.8084 -0.2543
   28MOL    C93 7167   7.744   1.770   4.711 -0.3057  0.1779  0.1103
   28MOL    C94 7168   7.643   1.886   4.729 -0.7422 -0.0038  0.2879
   28MOL    C95 7169   7.628   1.992   4.647 -0.2077 -0.3360 -0.1288
   28MOL    C96 7170   7.528   2.099   4.678  0.0655  0.0314 -0.7496
   28MOL    C97 7171   7.697   2.017   4.514 -0.2258 -0.3157  0.0450
   28MOL    H98 7172   7.688   1.683   4.746  0.7827 -0.1634  1.0434
   28MOL    H99 7173   7.776   1.736   4.612  0.4738  0.4779  0.2565
   28MOL   H100 7174   7.582   1.888   4.818 -1.3193  0.9434 -0.1206
   28MOL   H101 7175   7.585   2.184   4.716 -0.3629  0.2202 -0.5285
   28MOL   H102 7176   7.482   2.124   4.582 -0.7355 -0.6990 -0.5572
   28MOL   H103 7177   7.448   2.079   4.749 -0.0898  0.7393 -0.7200
   28MOL   H104 7178   7.791   1.963   4.522 -0.2765 -0.1242  2.3815
   28MOL   H105 7179   7.713   2.125   4.513 -0.2634 -0.3176 -0.7134
   28MOL   C106 7180   7.630   1.963   4.393  0.4378  0.1877  0.2894
   28MOL   C107 7181   7.716   1.978   4.269  0.6992  0.4461 -0.2809
   28MOL   C108 7182   7.786   1.888   4.203  0.0972  0.0907 -0.6825
   28MOL   C109 7183   7.805   1.743   4.237  0.4509 -0.9602  0.0222
   28MOL   C110 7184   7.860   1.933   4.076 -1.0015  0.2084 -0.6286
   28MOL   H111 7185   7.539   2.020   4.372  0.1134  0.5382  2.4954
   28MOL   H112 7186   7.600   1.859   4.409  2.8988 -0.8588 -1.6066
   28MOL   H113 7187   7.720   2.081   4.235 -0.8508  1.0082  1.1960
   28MOL   H114 7188   7.808   1.685   4.145 -2.2128  0.5253 -1.0762
   28MOL   H115 7189   0.014   1.732   4.300 -0.0068 -1.6310  0.5488
   28MOL   H116 7190   7.715   1.701   4.283 -0.3803 -0.6384 -1.2656
   28MOL   H117 7191   0.080   1.889   4.086 -0.7547  1.2172  1.7397
   28MOL   H118 7192   0.005   2.039   4.083 -1.5351  0.1722  2.3901
   28MOL   C119 7193   7.796   1.895   3.946 -0.2158  0.3240  0.4253
   28MOL   C120 7194   7.845   1.983   3.827  0.0691  0.3148  0.1589
   28MOL   C121 7195   7.770   2.073   3.764 -0.8995  0.4288  0.6249
   28MOL   C122 7196   7.823   2.150   3.637  0.2767  0.6406  0.2119
   28MOL   C123 7197   7.629   2.110   3.806 -0.1476 -0.3150  0.9280
   28MOL   H124 7198   7.688   1.888   3.947 -0.2365  0.6251  1.8315
   28MOL   H125 7199   7.810   1.790   3.920 -0.1676 -0.5316  3.7641
   28MOL   H126 7200   0.069   1.967   3.798 -0.5524 -1.0734 -1.3414
   28MOL   H127 7201   7.803   2.115   3.536  1.1938  0.4556  0.0883
   28MOL   H128 7202   0.052   2.161   3.645  0.4713  0.5875 -2.0047
   28MOL   H129 7203   7.780   2.249   3.622  1.5317  1.0508 -0.7342
   28MOL   H130 7204   7.624   2.216   3.828 -1.8904  0.6256 -3.4413
   28MOL   H131 7205   7.613   2.070   3.906 -2.4148 -1.1638  0.2704
   28MOL   C132 7206   7.520   2.090   3.700 -0.2879 -0.0526 -0.4589
   28MOL   C133 7207   7.505   1.945   3.663 -0.6485 -0.1044 -0.1159
   28MOL   C134 7208   7.499   1.883   3.541  0.1775  0.7764 -0.0425
   28MOL   C135 7209   7.484   1.735   3.537 -0.4566  0.1375 -0.3990
   28MOL   C136 7210   7.503   1.953   3.412  0.8477 -0.6694  0.6658
   28MOL   H137 7211   7.540   2.156   3.615 -0.1074 -0.1519 -0.4944
   28MOL   H138 7212   7.421   2.120   3.733 -0.3800 -0.9352  0.0831
   28MOL   H139 7213   7.505   1.878   3.748  2.9331 -0.4702 -0.3546
   28MOL   H140 7214   7.481   1.687   3.635 -1.1594  0.5919 -0.1926
   28MOL   H141 7215   7.558   1.683   3.476  2.2782  0.3478  2.6041
   28MOL   H142 7216   7.392   1.709   3.486  1.2769 -0.4230 -3.3478
   28MOL   H143 7217   7.599   1.928   3.367 -0.7358 -1.9805 -2.0886
   28MOL   H144 7218   7.513   2.055   3.449  0.0166  0.0347 -1.0035
   28MOL   C145 7219   7.377   1.947   3.322 -0.0697 -0.3330  0.6688
   28MOL   C146 7220   7.375   2.054   3.213 -0.3242  0.2316 -0.9894
   28MOL   C147 7221   7.371   2.032   3.082  0.3740  0.3259 -0.2895
   28MOL   C148 7222   7.373   2.156   2.997  0.0691  0.4704  0.3866
   28MOL   C149 7223   7.372   1.900   3.006 -0.4715 -0.3006 -0.1170
   28MOL   H150 7224   7.293   1.960   3.391 -2.0586  1.0471 -1.9248
   28MOL   H151 7225   7.364   1.846   3.284 -1.5032  0.1346 -0.1280
   28MOL   H152 7226   7.378   2.157   3.244 -0.7596 -0.3529  1.0128
   28MOL   H153 7227   7.477   2.171   2.971 -0.1611 -0.5953 -1.1736
   28MOL   H154 7228   7.342   2.248   3.046  2.8701  1.3613  0.5572
   28MOL   H155 7229   7.313   2.145   2.907 -0.8808  5.1364  0.3319
   28MOL   H156 7230   7.316   1.892   2.912 -1.5605 -2.0665  0.6515
   28MOL   H157 7231   7.333   1.828   3.078 -1.3718  0.8071  0.5214
   28MOL   C158 7232   7.516   1.845   2.981  0.1779  0.7083 -0.3453
   28MOL   C159 7233   7.519   1.698   2.950 -0.4182 -0.0856  0.9592
   28MOL   C160 7234   7.517   1.598   3.042  0.0651  0.0980  0.4560
   28MOL   C161 7235   7.528   1.622   3.190  0.4404  0.7718  0.1009
   28MOL   C162 7236   7.524   1.453   2.998 -0.0679 -0.3051 -0.0321
   28MOL   H163 7237   7.575   1.863   3.071 -0.9526 -0.0928  0.5670
   28MOL   H164 7238   7.559   1.900   2.897 -0.8453  2.3538  0.1694
   28MOL   H165 7239   7.518   1.672   2.845  0.6037 -2.4138  1.4826
   28MOL   H166 7240   7.443   1.561   3.221  0.0766  1.3660  0.2845
   28MOL   H167 7241   7.515   1.725   3.223 -2.5326 -0.0486  1.6437
   28MOL   H168 7242   7.619   1.572   3.223 -0.5168 -2.0243 -1.2696
   28MOL   H169 7243   7.475   1.443   2.901  1.3323 -0.8456 -0.7023
   28MOL   H170 7244   7.476   1.394   3.075  0.1776 -1.1486 -0.5116
   28MOL   C171 7245   7.661   1.390   2.973 -0.0610  0.3717  0.1563
   28MOL   C172 7246   7.634   1.239   2.957  0.2798  0.6634 -0.1128
   28MOL   C173 7247   7.646   1.176   2.833 -0.2124  0.5308  0.3458
   28MOL   C174 7248   7.685   1.247   2.706  0.6075  0.0829 -0.4808
   28MOL   C175 7249   7.579   1.035   2.816 -0.0016  0.1324 -0.4102
   28MOL   H176 7250   7.730   1.394   3.057 -1.0139 -0.0863  0.9817
   28MOL   H177 7251   7.703   1.429   2.881  0.7994  0.2160  0.4781
   28MOL   H178 7252   7.595   1.187   3.043  0.2496  1.3794  0.3121
   28MOL   H179 7253   7.685   1.194   2.611 -0.2005  1.5959 -1.3431
   28MOL   H180 7254   7.783   1.296   2.707  0.7676 -0.1749 -2.3496
   28MOL   H181 7255   7.619   1.333   2.697 -0.6777 -0.9668 -1.1959
   28MOL   H182 7256   7.557   0.980   2.907  0.3347  0.1535 -0.3143
   28MOL   H183 7257   7.643   0.979   2.747 -1.3890 -1.8531 -0.1229
   28MOL   C184 7258   7.451   1.041   2.727 -0.6353  1.3189  0.2343
   28MOL   C185 7259   7.395   0.898   2.720  0.0228  0.1031 -0.1370
   28MOL   C186 7260   7.356   0.825   2.610 -0.1100 -0.0645 -0.4862
   28MOL   C187 7261   7.313   0.682   2.617 -0.2751  0.4664  0.3234
   28MOL   C188 7262   7.363   0.877   2.470 -0.4875 -0.2167  0.1764
   28MOL   H189 7263   7.464   1.082   2.627 -0.0675  2.2729  0.6967
   28MOL   H190 7264   7.370   1.100   2.771 -1.0249  1.0365 -0.0980
   28MOL   H191 7265   7.384   0.842   2.812  0.4696 -0.0588 -0.1793
   28MOL   H192 7266   7.298   0.667   2.724  2.7320  2.0662  1.0263
   28MOL   H193 7267   7.397   0.620   2.588  0.2716  2.5082 -2.6599
   28MOL   H194 7268   7.223   0.645   2.567  0.7835 -0.7471 -0.7049
   28MOL   H195 7269   7.373   0.985   2.465  0.4939 -0.4343 -3.4620
   28MOL   H196 7270   7.274   0.854   2.410 -0.0297  0.4567 -0.7681
   28MOL   C197 7271   7.500   0.840   2.412 -0.6060 -0.6323 -0.0322
   28MOL   C198 7272   7.501   0.841   2.260  0.3585 -0.4015  0.1117
   28MOL   C199 7273   7.565   0.928   2.175 -0.2714  0.8559  0.0075
   28MOL   C200 7274   7.573   0.922   2.027 -0.2346  0.2738  1.1765
   28MOL   C201 7275   7.621   1.061   2.228 -0.6627  0.0975  0.4668
   28MOL   H202 7276   7.537   0.740   2.437 -2.4458 -1.4225 -0.4257
   28MOL   H203 7277   7.571   0.906   2.461  0.0902 -1.6623  0.3794
   28MOL   H204 7278   7.460   0.749   2.222 -3.3567  0.4218  1.9895
   28MOL   H205 7279   7.542   0.822   1.997 -0.3186  0.5852  0.1966
   28MOL   H206 7280   7.677   0.936   1.995 -0.2179 -1.0171  0.6590
   28MOL   H207 7281   7.517   1.001   1.976  1.5495  2.4599  2.5031
   28MOL   H208 7282   7.726   1.056   2.198 -0.5652  1.3151  0.5612
   28MOL   H209 7283   7.633   1.068   2.336  1.9296  1.8347  0.1219
   28MOL   C210 7284   7.558   1.189   2.178  0.0251 -0.2535 -0.9399
   28MOL   C211 7285   7.409   1.204   2.211 -0.1420 -0.4170  0.0134
   28MOL   C212 7286   7.337   1.301   2.273 -1.1917 -0.6906 -0.2972
   28MOL   C213 7287   7.190   1.280   2.306  0.5404 -0.6282  0.5622
   28MOL   C214 7288   7.398   1.427   2.323  0.6140  0.0298  0.2550
   28MOL   H215 7289   7.561   1.181   2.069 -1.6829  0.4509 -1.0398
   28MOL   H216 7290   7.614   1.280   2.202 -0.2167 -0.5713  0.8887
   28MOL   H217 7291   7.358   1.112   2.186 -0.1211 -0.4583  0.1198
   28MOL   H218 7292   7.156   1.184   2.268 -0.6266  0.2522 -0.6386
   28MOL   H219 7293   7.130   1.356   2.256  0.5920 -1.4337 -0.7360
   28MOL   H220 7294   7.176   1.283   2.414  0.8286  0.7033  0.5695
   28MOL   H221 7295   7.319   1.501   2.316 -0.4293 -1.1742 -1.1681
   28MOL   H222 7296   7.484   1.462   2.266  1.3075 -0.8877  0.7071
   28MOL   C223 7297   7.436   1.410   2.471 -0.2999 -0.0369 -0.0879
   28MOL   C224 7298   7.448   1.540   2.540  0.0235 -0.0863  0.4340
   28MOL   C225 7299   7.341   1.618   2.581 -0.3966 -0.1684 -0.6367
   28MOL   C226 7300   7.368   1.750   2.639 -0.5077 -0.4751  0.0528
   28MOL   C227 7301   7.199   1.582   2.563 -0.6081  0.7278  0.7068
   28MOL   H228 7302   7.534   1.369   2.448 -0.5424  0.2474 -1.7044
   28MOL   H229 7303   7.369   1.344   2.526 -1.3473 -0.7257 -2.1139
   28MOL   H230 7304   7.544   1.590   2.549 -1.1403  2.2286  0.5871
   28MOL   H231 7305   7.334   1.830   2.574  0.8910 -0.7639 -1.0426
   28MOL   H232 7306   7.474   1.772   2.649 -0.5476 -0.2330 -0.0592
   28MOL   H233 7307   7.329   1.752   2.741 -2.1395  3.7693 -0.5595
   28MOL   H234 7308   7.173   1.501   2.495 -0.3799  1.1023  0.1645
   28MOL   H235 7309   7.148   1.671   2.526 -1.7415 -0.7216 -1.3470
   28MOL   C236 7310   7.142   1.531   2.699  0.0881  0.1103 -0.7374
   28MOL   C237 7311   6.989   1.518   2.678  0.2841  0.1764  0.2594
   28MOL   C238 7312   6.893   1.592   2.734  0.1558  0.2739 -0.2956
   28MOL   C239 7313   6.749   1.561   2.704 -0.8510  0.3479  0.1591
   28MOL   C240 7314   6.915   1.721   2.818 -0.2775 -0.0684 -0.0069
   28MOL   H241 7315   7.167   1.600   2.779 -0.3412  0.7964 -1.1888
   28MOL   H242 7316   7.179   1.436   2.738 -0.2403  0.2428 -0.0952
   28MOL   H243 7317   6.956   1.433   2.621  0.0086  0.3168  0.2106
   28MOL   H244 7318   6.751   1.460   2.663 -1.0372 -0.1204  1.2613
   28MOL   H245 7319   6.702   1.629   2.634 -0.2907  1.2770  0.6793
   28MOL   H246 7320   6.695   1.558   2.799  1.0331  1.2595  1.3024
   28MOL   H247 7321   6.844   1.785   2.765 -0.4174 -0.7547 -0.6527
   28MOL   H248 7322   7.017   1.756   2.801  1.3047 -2.9462  3.0792
   28MOL   C249 7323   6.880   1.707   2.969  0.4283  0.4851  0.2177
   28MOL   C250 7324   6.909   1.832   3.053 -0.5896  0.6329  0.2773
   28MOL   C251 7325   6.965   1.834   3.173 -0.9220  0.5512  1.1959
   28MOL   C252 7326   7.002   1.967   3.241 -0.4000  0.2847 -0.8242
   28MOL   C253 7327   6.987   1.718   3.259 -0.0503 -0.3162 -0.2730
   28MOL   H254 7328   6.921   1.613   3.005 -0.1040 -0.1095 -0.6950
   28MOL   H255 7329   6.772   1.698   2.980  0.2933  2.8768  1.1760
   28MOL   H256 7330   6.896   1.933   3.016 -0.4320  1.6326  2.8604
   28MOL   H257 7331   7.109   1.968   3.258 -0.5058  0.3031 -0.1158
   28MOL   H258 7332   6.938   1.978   3.329 -0.7233 -0.4984 -0.9560
   28MOL   H259 7333   6.997   2.054   3.176  1.0637  1.5934  0.7685
   28MOL   H260 7334   7.007   1.621   3.213 -1.5218 -0.8451  0.2030
   28MOL   H261 7335   6.893   1.708   3.313 -0.3050  2.3401 -0.1701
   28MOL   H262 7336   7.066   1.738   3.332  0.2644  0.1398 -0.7301
   29MOL     C1 7337   0.312   6.213   1.811  0.2300  0.4977  0.0474
   29MOL     C2 7338   0.334   6.075   1.767  0.2790  0.1903 -0.1054
   29MOL     C3 7339   0.252   5.966   1.780 -0.4253  0.3366  0.1435
   29MOL     C4 7340   0.282   5.836   1.707 -0.1327 -0.2151  0.3620
   29MOL     C5 7341   0.126   5.965   1.867 -0.8090 -0.4338  0.1142
   29MOL     H6 7342   0.232   6.225   1.885  2.9309 -1.3490  3.4477
   29MOL     H7 7343   0.407   6.240   1.858 -0.7674  0.4376  2.1699
   29MOL     H8 7344   0.422   6.063   1.706 -0.7027  1.5914 -1.8405
   29MOL     H9 7345   0.194   5.801   1.653  0.3747 -0.8141 -0.0824
   29MOL    H10 7346   0.317   5.760   1.777  3.2319  0.2760 -0.7064
   29MOL    H11 7347   0.361   5.840   1.632 -0.7985 -1.3611 -0.4110
   29MOL    H12 7348   0.033   5.958   1.811 -1.7822  0.4234  1.5813
   29MOL    H13 7349   0.117   6.061   1.917 -0.1547  0.5879 -1.6786
   29MOL    H14 7350   0.284   6.273   1.725  2.9276  0.3880 -0.9710
   29MOL    C15 7351   0.134   5.848   1.972 -0.1127  0.6170  0.1219
   29MOL    C16 7352   0.019   5.869   2.063 -0.4903 -0.3258  0.0003
   29MOL    C17 7353   0.005   5.825   2.195 -0.7693  0.7619 -0.6027
   29MOL    C18 7354   7.768   5.863   2.277 -0.6790 -0.0985  0.6105
   29MOL    C19 7355   0.114   5.738   2.265 -0.2233  0.4115  0.7457
   29MOL    H20 7356   0.225   5.836   2.031  0.2653 -1.0194 -0.7629
   29MOL    H21 7357   0.112   5.753   1.924 -0.3274  0.4760  0.4929
   29MOL    H22 7358   7.817   5.935   2.036 -0.2491 -0.2283 -0.4910
   29MOL    H23 7359   7.717   5.773   2.308 -1.1809 -0.5665 -1.4549
   29MOL    H24 7360   7.690   5.916   2.221 -2.6633 -3.8166 -0.3279
   29MOL    H25 7361   7.806   5.925   2.358 -0.6219  3.0670 -1.7140
   29MOL    H26 7362   0.142   5.788   2.358  2.0857  2.8896 -1.1986
   29MOL    H27 7363   0.206   5.733   2.208 -0.6141  2.4766 -0.1351
   29MOL    C28 7364   0.062   5.594   2.294  0.8137 -0.0539  0.6507
   29MOL    C29 7365   0.169   5.511   2.363 -0.1304  0.6766 -0.5794
   29MOL    C30 7366   0.202   5.384   2.349 -0.5296  0.2395  0.4473
   29MOL    C31 7367   0.326   5.330   2.423  0.4696 -0.2611  0.6899
   29MOL    C32 7368   0.135   5.285   2.261 -0.3448  0.0086  0.4311
   29MOL    H33 7369   0.029   5.549   2.201  0.2385 -0.4738  1.0528
   29MOL    H34 7370   7.851   5.592   2.355 -0.5301  1.6922 -1.2238
   29MOL    H35 7371   0.222   5.573   2.434  1.4604 -0.7004 -0.5428
   29MOL    H36 7372   0.408   5.309   2.353  0.3637  2.7230 -0.4410
   29MOL    H37 7373   0.307   5.231   2.464  0.4553 -1.0853 -1.2405
   29MOL    H38 7374   0.366   5.401   2.495  0.2424 -1.2669  1.8110
   29MOL    H39 7375   0.217   5.237   2.207 -0.1827 -0.4595  1.0940
   29MOL    H40 7376   0.072   5.332   2.185  2.6498  2.4133 -0.6822
   29MOL    C41 7377   0.047   5.179   2.336  0.1916  0.0907  0.7424
   29MOL    C42 7378   7.828   5.115   2.238  0.3422 -0.0396 -0.6576
   29MOL    C43 7379   7.702   5.076   2.241  0.7361 -0.4669  0.0625
   29MOL    C44 7380   7.638   4.984   2.131 -0.4194 -0.2501 -0.5806
   29MOL    C45 7381   7.613   5.089   2.361 -0.1577 -0.7377 -0.2744
   29MOL    H46 7382   7.878   5.226   2.422 -0.1931 -2.9676  2.2636
   29MOL    H47 7383   0.111   5.103   2.382 -1.1184 -0.4102  1.7545
   29MOL    H48 7384   0.000   5.077   2.150  0.5949  0.1118 -0.5766
   29MOL    H49 7385   7.560   5.028   2.070 -0.7190  3.1412  2.1157
   29MOL    H50 7386   7.581   4.899   2.170  0.7322 -0.7323  0.0974
   29MOL    H51 7387   7.714   4.945   2.064 -0.4210  0.1014 -0.7850
   29MOL    H52 7388   7.672   5.109   2.451 -0.1310  0.1942 -0.4884
   29MOL    H53 7389   7.569   4.992   2.381  0.0335 -1.5020 -3.3655
   29MOL    C54 7390   7.495   5.184   2.335  0.0578 -0.5444  0.0386
   29MOL    C55 7391   7.536   5.326   2.293  0.0496  0.1540 -0.1398
   29MOL    C56 7392   7.481   5.413   2.204 -0.2280 -0.1009 -0.1412
   29MOL    C57 7393   7.534   5.549   2.194 -0.3604 -0.6551 -0.0869
   29MOL    C58 7394   7.366   5.383   2.107  0.0632  1.0058 -0.0908
   29MOL    H59 7395   7.432   5.202   2.422 -0.0720 -0.3688 -0.0923
   29MOL    H60 7396   7.434   5.141   2.255  2.4884 -3.9962 -0.0350
   29MOL    H61 7397   7.612   5.361   2.362  1.0916  0.0630 -1.2333
   29MOL    H62 7398   7.618   5.564   2.261 -0.3031  0.0331 -0.3054
   29MOL    H63 7399   7.462   5.622   2.232 -0.0349 -0.9271  1.0748
   29MOL    H64 7400   7.557   5.578   2.092 -0.4156 -0.9203 -0.1754
   29MOL    H65 7401   7.282   5.449   2.125 -0.3881  1.0907 -2.3453
   29MOL    H66 7402   7.334   5.283   2.134  0.6837  1.9589  4.6115
   29MOL    C67 7403   7.416   5.394   1.961  0.1748 -0.0679  0.8854
   29MOL    C68 7404   7.298   5.358   1.866  0.6761  0.7367 -0.4336
   29MOL    C69 7405   7.266   5.238   1.808  0.1414  0.2707 -0.8284
   29MOL    C70 7406   7.169   5.221   1.699 -0.0492 -0.4013  0.2730
   29MOL    C71 7407   7.337   5.110   1.847 -0.2416  0.5141 -0.5750
   29MOL    H72 7408   7.513   5.352   1.935  2.0259  4.0171  0.7047
   29MOL    H73 7409   7.426   5.499   1.935 -1.4674 -0.0868  0.1569
   29MOL    H74 7410   7.248   5.447   1.830  2.2206  1.6935 -0.2454
   29MOL    H75 7411   7.126   5.317   1.671  0.9694  0.6320  2.1568
   29MOL    H76 7412   7.086   5.150   1.710  0.5552 -1.5349 -2.1530
   29MOL    H77 7413   7.216   5.181   1.609 -1.3876 -0.7471 -0.2944
   29MOL    H78 7414   7.409   5.139   1.924  0.0674  0.1947 -0.7392
   29MOL    H79 7415   7.399   5.081   1.763 -0.6864  0.5792 -0.9255
   29MOL    C80 7416   7.238   4.988   1.897  0.2985 -0.0026  0.4074
   29MOL    C81 7417   7.305   4.855   1.929 -0.3445  0.5331  0.1999
   29MOL    C82 7418   7.325   4.753   1.844 -0.6033 -0.5886 -0.1664
   29MOL    C83 7419   7.279   4.750   1.701  0.7294  0.1610 -0.4990
   29MOL    C84 7420   7.389   4.619   1.883 -0.2637 -0.2876 -0.7071
   29MOL    H85 7421   7.155   4.966   1.830  0.5683 -0.7438  0.3101
   29MOL    H86 7422   7.196   5.023   1.991  0.3139 -0.0047  0.4152
   29MOL    H87 7423   7.341   4.845   2.030 -2.2674 -1.5893  0.7047
   29MOL    H88 7424   7.282   4.852   1.661 -0.2104  0.0688 -0.8248
   29MOL    H89 7425   7.177   4.712   1.690  0.3699  0.5387  1.3566
   29MOL    H90 7426   7.343   4.681   1.646  0.6611 -0.1961 -0.1236
   29MOL    H91 7427   7.330   4.541   1.836 -0.2390 -0.7684  0.0596
   29MOL    H92 7428   7.375   4.611   1.991  0.4264 -2.1134 -0.7430
   29MOL    C93 7429   7.536   4.603   1.841 -0.0698  0.2923 -0.6375
   29MOL    C94 7430   7.599   4.482   1.904 -0.4027 -0.2997 -0.0156
   29MOL    C95 7431   7.610   4.371   1.832  0.8302  1.1070 -0.1449
   29MOL    C96 7432   7.675   4.248   1.896  0.0902 -0.2851 -0.5689
   29MOL    C97 7433   7.539   4.346   1.695 -0.0524  0.6749  0.0857
   29MOL    H98 7434   7.587   4.697   1.864 -1.8366  0.8212  1.2697
   29MOL    H99 7435   7.555   4.598   1.734  0.4159 -1.7169 -0.4769
   29MOL   H100 7436   7.633   4.479   2.007 -1.6153  3.8032  0.5987
   29MOL   H101 7437   7.772   4.276   1.938  0.3289 -0.9962 -0.6516
   29MOL   H102 7438   7.620   4.188   1.968  0.3239 -0.8506 -0.8609
   29MOL   H103 7439   7.710   4.179   1.820  2.2354 -1.7539  1.6645
   29MOL   H104 7440   7.476   4.430   1.667 -0.3374 -0.5729 -3.3080
   29MOL   H105 7441   7.475   4.260   1.711 -0.7827  1.1040 -0.5279
   29MOL   C106 7442   7.647   4.327   1.585 -0.1212  0.0600 -0.2910
   29MOL   C107 7443   7.583   4.302   1.454  0.2226  0.0467 -0.5265
   29MOL   C108 7444   7.572   4.389   1.362 -0.4633 -0.2761  0.4360
   29MOL   C109 7445   7.625   4.533   1.368  0.0688 -0.1607 -0.0663
   29MOL   C110 7446   7.493   4.356   1.238 -0.1301 -0.1642 -0.3229
   29MOL   H111 7447   7.717   4.244   1.597 -0.6033 -0.3694 -0.3911
   29MOL   H112 7448   7.720   4.408   1.576  0.8224 -0.8563 -1.0594
   29MOL   H113 7449   7.544   4.202   1.448  0.9468 -0.4471  2.2344
   29MOL   H114 7450   7.566   4.605   1.312  1.1127  0.4372 -0.4253
   29MOL   H115 7451   7.628   4.567   1.471 -0.8039 -0.2958 -0.0001
   29MOL   H116 7452   7.729   4.533   1.333 -0.1256 -1.5343 -0.6644
   29MOL   H117 7453   7.411   4.425   1.222  0.8108  1.3039  0.9728
   29MOL   H118 7454   7.447   4.257   1.245  1.7046 -0.9517  1.4865
   29MOL   C119 7455   7.580   4.356   1.108 -0.2269  0.4500  0.3072
   29MOL   C120 7456   7.494   4.322   0.982  0.6106  0.0874 -0.2340
   29MOL   C121 7457   7.422   4.410   0.909 -0.6427  0.8445  0.1980
   29MOL   C122 7458   7.348   4.370   0.784  0.1876 -0.1833  0.3381
   29MOL   C123 7459   7.415   4.559   0.931  0.0395 -0.2452 -0.4122
   29MOL   H124 7460   7.667   4.291   1.111  2.5739  3.9041 -2.3065
   29MOL   H125 7461   7.608   4.459   1.086  0.1587  0.5186  1.0911
   29MOL   H126 7462   7.499   4.218   0.953 -0.3147 -0.1277  0.3820
   29MOL   H127 7463   7.364   4.263   0.776  0.6812 -0.2057  1.6101
   29MOL   H128 7464   7.383   4.415   0.691  1.8061  0.0011  1.0314
   29MOL   H129 7465   7.244   4.390   0.811  0.6063  1.8817  0.5121
   29MOL   H130 7466   7.418   4.587   1.036 -1.0228 -0.8672 -0.2078
   29MOL   H131 7467   7.329   4.597   0.877  1.1931 -0.5059 -2.4935
   29MOL   C132 7468   7.534   4.634   0.864 -0.2615  0.3004  0.6368
   29MOL   C133 7469   7.517   4.783   0.865 -0.5319  0.3243 -0.4022
   29MOL   C134 7470   7.545   4.860   0.763 -0.2437  0.1704 -0.2924
   29MOL   C135 7471   7.511   5.010   0.776 -0.1719  0.3499  0.0896
   29MOL   C136 7472   7.603   4.801   0.630 -0.1777  0.0733  0.2270
   29MOL   H137 7473   7.534   4.596   0.762  0.0518  0.1185  0.7049
   29MOL   H138 7474   7.637   4.632   0.901  0.2053  2.8068 -0.4096
   29MOL   H139 7475   7.478   4.831   0.954 -1.2450 -0.3190 -0.3664
   29MOL   H140 7476   7.607   5.056   0.798  0.3325 -0.5088 -0.2731
   29MOL   H141 7477   7.432   5.016   0.851 -0.9098  0.3712 -0.6796
   29MOL   H142 7478   7.482   5.065   0.687 -0.1388  0.2077 -0.0090
   29MOL   H143 7479   7.666   4.714   0.647  1.2397  1.5225  2.6530
   29MOL   H144 7480   7.679   4.875   0.604  1.9471 -1.8215  0.8689
   29MOL   C145 7481   7.493   4.793   0.521  0.3164 -0.3095 -0.5393
   29MOL   C146 7482   7.542   4.765   0.387  0.4786  0.2816 -0.6226
   29MOL   C147 7483   7.546   4.856   0.287 -0.3505 -0.3246  0.1091
   29MOL   C148 7484   7.594   4.804   0.150 -0.6464  0.0171 -1.0806
   29MOL   C149 7485   7.493   5.002   0.294  0.6526  0.7992 -0.1454
   29MOL   H150 7486   7.436   4.885   0.525 -0.4355 -0.7947  0.3439
   29MOL   H151 7487   7.418   4.718   0.549 -0.7299  1.1549  0.6615
   29MOL   H152 7488   7.576   4.664   0.366 -0.8985 -0.4070  0.3996
   29MOL   H153 7489   7.646   4.709   0.158 -0.2060  0.4298  1.5931
   29MOL   H154 7490   7.645   4.890   0.106 -0.7820  1.6050  1.6959
   29MOL   H155 7491   7.505   4.799   0.088 -1.5505 -0.4923  0.2271
   29MOL   H156 7492   7.554   5.065   0.229 -1.4083  0.2097 -2.7244
   29MOL   H157 7493   7.506   5.046   0.393  2.3242 -0.3436  0.1688
   29MOL   C158 7494   7.348   5.005   0.239  0.2881 -0.2525  0.4997
   29MOL   C159 7495   7.311   5.150   0.216  0.5060 -0.8625  0.0445
   29MOL   C160 7496   7.232   5.200   0.119  0.1041  0.4635  0.5766
   29MOL   C161 7497   7.169   5.117   0.009 -0.2084 -0.3945  0.1799
   29MOL   C162 7498   7.224   5.356   0.107  0.7143  0.2479  0.1931
   29MOL   H163 7499   7.278   4.976   0.317  1.8517  1.6782  2.7244
   29MOL   H164 7500   7.331   4.947   0.149 -3.2607  1.0138  0.2963
   29MOL   H165 7501   7.339   5.217   0.295 -0.3368 -0.1169 -0.2870
   29MOL   H166 7502   7.062   5.097   0.003 -0.0019 -0.8431 -2.4798
   29MOL   H167 7503   7.228   5.026   7.874  0.2103  0.0135 -0.6789
   29MOL   H168 7504   7.199   5.170   7.798 -1.4984  0.5044  0.2779
   29MOL   H169 7505   7.249   5.375   0.003 -2.9917  0.5009 -0.7187
   29MOL   H170 7506   7.294   5.410   0.171 -1.8124  0.1156  3.2040
   29MOL   C171 7507   7.076   5.406   0.135 -0.0406 -0.5388 -0.4157
   29MOL   C172 7508   7.063   5.546   0.082 -0.0052  0.2391  0.1415
   29MOL   C173 7509   7.022   5.585   7.838  0.3560  0.3179 -0.0417
   29MOL   C174 7510   6.982   5.494   7.725  0.0476 -0.4082 -0.2541
   29MOL   C175 7511   6.990   5.730   7.803  0.2311 -0.1812 -0.1064
   29MOL   H176 7512   7.050   5.389   0.240  0.1485  0.5628 -0.1894
   29MOL   H177 7513   6.998   5.348   0.085 -0.8161 -0.2034  0.3951
   29MOL   H178 7514   7.080   5.616   0.162  2.9910 -1.1006  0.7335
   29MOL   H179 7515   7.021   5.533   7.631 -1.2280  0.9636 -0.2294
   29MOL   H180 7516   6.874   5.483   7.720 -0.1621  1.1450  0.4968
   29MOL   H181 7517   7.021   5.393   7.731 -0.1178 -0.5374 -1.1983
   29MOL   H182 7518   7.020   5.790   0.010  3.1629 -0.3291 -0.9590
   29MOL   H183 7519   6.883   5.742   7.792  0.2328  0.3922  0.4940
   29MOL   C184 7520   7.076   5.780   7.688  0.0061 -0.2681  0.0012
   29MOL   C185 7521   7.067   5.929   7.664 -0.7006  0.0870 -0.0321
   29MOL   C186 7522   7.172   6.013   7.670 -0.2890  0.7355 -0.3926
   29MOL   C187 7523   7.170   6.161   7.644  0.1429 -0.2764 -0.5803
   29MOL   C188 7524   7.317   5.963   7.688  0.9234  0.4018 -0.3462
   29MOL   H189 7525   7.050   5.726   7.596  1.4396 -1.5919  0.3442
   29MOL   H190 7526   7.180   5.754   7.707 -0.0460 -0.1109  0.4998
   29MOL   H191 7527   6.968   5.971   7.652  0.0503  1.8615 -0.2572
   29MOL   H192 7528   7.226   6.187   7.555 -1.8458  2.5932 -1.0665
   29MOL   H193 7529   7.203   6.212   7.735  0.2971 -0.7346 -0.3815
   29MOL   H194 7530   7.063   6.177   7.632 -0.0892 -0.9264  0.5582
   29MOL   H195 7531   7.346   5.884   7.619 -1.9519 -0.3260 -0.7946
   29MOL   H196 7532   7.319   5.925   7.791  0.0413  2.2543  0.3707
   29MOL   C197 7533   7.427   6.068   7.677 -0.1148  0.0900 -0.2577
   29MOL   C198 7534   7.560   6.006   7.721  0.3331  0.6518 -0.0224
   29MOL   C199 7535   7.685   6.034   7.682 -0.1811  0.5418 -0.4412
   29MOL   C200 7536   7.798   5.970   7.761 -0.3992 -0.2287  0.2421
   29MOL   C201 7537   7.720   6.141   7.581 -0.8429  0.0570  0.2346
   29MOL   H202 7538   7.404   6.138   7.757 -0.5628 -1.0612  0.6459
   29MOL   H203 7539   7.430   6.122   7.583 -0.4007  0.8420  0.1593
   29MOL   H204 7540   7.553   5.939   7.806  0.9765  0.7249  0.0880
   29MOL   H205 7541   7.780   5.887   7.830  1.1380  0.3209  1.3458
   29MOL   H206 7542   7.869   6.041   7.805  1.8918 -0.5656 -2.7668
   29MOL   H207 7543   7.855   5.930   7.678  0.7012  0.1248  0.8175
   29MOL   H208 7544   7.739   6.237   7.627  2.2383 -0.4636  0.1763
   29MOL   H209 7545   7.636   6.159   7.514 -0.6300  1.3777  0.3151
   29MOL   C210 7546   7.832   6.084   7.483 -0.5053  0.0428 -1.1418
   29MOL   C211 7547   7.836   6.156   7.346  0.0434  0.7796  0.0847
   29MOL   C212 7548   0.058   6.213   7.276  0.4615  0.8593 -0.1838
   29MOL   C213 7549   0.029   6.276   7.141 -0.6636 -0.5178 -0.0890
   29MOL   C214 7550   0.202   6.222   7.330 -0.4174 -0.3028 -0.3870
   29MOL   H215 7551   7.811   5.979   7.468 -0.8632 -0.1357  0.4734
   29MOL   H216 7552   0.049   6.078   7.535 -0.1280 -1.4636 -2.0048
   29MOL   H217 7553   7.739   6.161   7.298  0.1258  1.5827 -0.0024
   29MOL   H218 7554   7.802   6.269   7.116 -0.4045  0.0376 -1.3509
   29MOL   H219 7555   0.101   6.229   7.074  0.7435  0.6485  0.5762
   29MOL   H220 7556   0.049   6.383   7.134  0.7294 -0.7497  0.2357
   29MOL   H221 7557   0.269   6.189   7.250  0.8652 -0.7288  0.8486
   29MOL   H222 7558   0.216   6.150   7.410 -2.6735  0.7614  1.0077
   29MOL   C223 7559   0.243   6.364   7.355 -0.6080  0.3049  0.0117
   29MOL   C224 7560   0.182   6.415   7.482 -0.1768 -0.4796 -0.4732
   29MOL   C225 7561   0.107   6.523   7.488  0.1764  0.0820 -0.1349
   29MOL   C226 7562   0.039   6.565   7.619  0.1444  0.3879  0.3169
   29MOL   C227 7563   0.092   6.621   7.375 -0.0251  0.1332 -0.2613
   29MOL   H228 7564   0.241   6.426   7.265  0.9200  2.0277  1.1270
   29MOL   H229 7565   0.346   6.375   7.388 -0.2267 -0.1321 -1.0139
   29MOL   H230 7566   0.188   6.354   7.571  1.6778 -1.5668 -1.3028
   29MOL   H231 7567   0.028   6.492   7.700  0.6905 -1.4629 -1.2424
   29MOL   H232 7568   7.814   6.593   7.603 -0.0481 -1.0561 -1.0596
   29MOL   H233 7569   0.088   6.652   7.662  1.5552 -0.9016  1.3824
   29MOL   H234 7570   7.865   6.642   7.365 -0.5333 -1.3381  1.7999
   29MOL   H235 7571   0.088   6.566   7.281 -2.3291 -0.9976  0.4733
   29MOL   C236 7572   0.177   6.746   7.381 -0.0620 -0.5596 -0.2406
   29MOL   C237 7573   0.172   6.807   7.240  0.0679 -0.1358  0.0544
   29MOL   C238 7574   0.165   6.939   7.207  0.2635  0.3413  0.1938
   29MOL   C239 7575   0.156   6.986   7.063  0.2248 -0.1313 -0.4360
   29MOL   C240 7576   0.174   7.051   7.310 -0.4905  0.4600  0.6030
   29MOL   H241 7577   0.275   6.721   7.423 -1.1484 -0.9176  2.1639
   29MOL   H242 7578   0.120   6.809   7.448  0.6646  0.8005 -0.8798
   29MOL   H243 7579   0.164   6.734   7.161  3.3804 -1.9553  1.3043
   29MOL   H244 7580   0.120   6.897   7.010  0.2354  0.8952 -2.2174
   29MOL   H245 7581   0.242   7.026   7.010  0.5742 -0.7577 -0.3483
   29MOL   H246 7582   0.071   7.052   7.048 -1.4197 -2.5072 -1.9532
   29MOL   H247 7583   0.233   7.133   7.268 -1.7698  2.0008  1.7787
   29MOL   H248 7584   0.228   7.015   7.397 -0.7266  1.4610  1.1744
   29MOL   C249 7585   0.041   7.104   7.350 -0.3985 -0.4788 -0.3492
   29MOL   C250 7586   0.045   7.198   7.469 -0.4692  1.0756  0.2054
   29MOL   C251 7587   7.856   7.204   7.588  0.2614 -0.2510 -0.2661
   29MOL   C252 7588   7.878   7.314   7.691 -0.4021  0.1436  0.1879
   29MOL   C253 7589   7.751   7.104   7.625 -0.1213  0.1443  0.7127
   29MOL   H254 7590   7.866   7.019   7.392 -0.8296  0.4347  1.0064
   29MOL   H255 7591   0.003   7.153   7.261 -0.1061  1.7540  0.7078
   29MOL   H256 7592   0.121   7.268   7.438 -1.2609  1.8260 -0.0466
   29MOL   H257 7593   7.858   7.273   7.790  1.0321 -1.5218 -0.1647
   29MOL   H258 7594   7.815   7.401   7.674 -0.2068  0.6055  1.7929
   29MOL   H259 7595   0.103   7.346   7.694 -0.1483 -0.3396 -2.2357
   29MOL   H260 7596   7.738   7.025   7.551 -0.1942  1.2842 -0.5253
   29MOL   H261 7597   7.653   7.152   7.627 -1.4975 -2.5549  0.5998
   29MOL   H262 7598   7.762   7.061   7.724  1.5023 -1.0690  0.0390
   30MOL     C1 7599   4.172   2.823   0.616  0.1862  0.5355  0.6014
   30MOL     C2 7600   4.195   2.676   0.641  1.3546 -0.0727 -0.7631
   30MOL     C3 7601   4.098   2.583   0.654  0.3980  0.5306 -0.0372
   30MOL     C4 7602   4.129   2.435   0.693 -0.6722 -0.0405  0.6107
   30MOL     C5 7603   3.951   2.619   0.669  0.8127 -0.3124  0.2393
   30MOL     H6 7604   4.068   2.850   0.597 -0.6054 -1.0569  2.4399
   30MOL     H7 7605   4.209   2.879   0.701 -0.9235  1.7992  0.2783
   30MOL     H8 7606   4.297   2.656   0.668  1.6447  1.8790 -0.3096
   30MOL     H9 7607   4.073   2.360   0.637 -0.2662  1.5843 -2.0787
   30MOL    H10 7608   4.123   2.419   0.800 -2.4683  0.3352  0.5819
   30MOL    H11 7609   4.234   2.424   0.665 -1.2818 -0.6065 -1.5905
   30MOL    H12 7610   3.923   2.724   0.656 -0.3244 -0.2817  2.6159
   30MOL    H13 7611   3.916   2.595   0.770  0.1529 -0.6984 -0.0797
   30MOL    H14 7612   4.233   2.852   0.531  3.1363 -1.3793  1.9911
   30MOL    C15 7613   3.869   2.537   0.571 -0.3713 -0.1244  0.3147
   30MOL    C16 7614   3.717   2.561   0.573 -0.2207 -0.4919  0.9561
   30MOL    C17 7615   3.639   2.618   0.477 -1.0012  1.1396 -0.5518
   30MOL    C18 7616   3.491   2.639   0.509 -0.0202  0.0635 -0.1123
   30MOL    C19 7617   3.680   2.672   0.341 -0.0365  0.3087  0.3431
   30MOL    H20 7618   3.887   2.430   0.573  1.5662  0.1941  1.5963
   30MOL    H21 7619   3.900   2.559   0.468  0.6639  1.1299  0.8830
   30MOL    H22 7620   3.667   2.536   0.665 -0.3294  2.1489  1.6359
   30MOL    H23 7621   3.438   2.564   0.451  0.8853  0.2566 -1.2085
   30MOL    H24 7622   3.464   2.734   0.463  0.7778  0.0007 -0.7220
   30MOL    H25 7623   3.468   2.630   0.616 -0.1160  1.8595  0.0454
   30MOL    H26 7624   3.613   2.627   0.268  0.8500 -0.3622 -0.0715
   30MOL    H27 7625   3.774   2.619   0.324 -0.4280 -0.2446 -0.1157
   30MOL    C28 7626   3.706   2.818   0.334  0.0959  0.6368  0.7054
   30MOL    C29 7627   3.742   2.862   0.195  0.8207  0.2404  0.5687
   30MOL    C30 7628   3.656   2.917   0.104  0.0187 -0.9798 -0.0374
   30MOL    C31 7629   3.689   2.994   7.858 -0.7154  0.3229  0.1374
   30MOL    C32 7630   3.508   2.911   0.120 -0.0464 -1.0551  0.1804
   30MOL    H33 7631   3.787   2.827   0.406  2.7925  0.1772 -2.2136
   30MOL    H34 7632   3.623   2.882   0.367 -1.8647 -0.4396 -1.9193
   30MOL    H35 7633   3.849   2.858   0.182  0.5360 -0.8309 -1.6525
   30MOL    H36 7634   3.656   2.934   7.773  1.8748  0.8285 -1.2983
   30MOL    H37 7635   3.797   2.998   7.845 -0.8939 -0.9816 -1.9555
   30MOL    H38 7636   3.647   3.093   7.838 -1.1574 -0.4800 -3.2949
   30MOL    H39 7637   3.475   2.829   0.185  1.5915  0.3851  2.9284
   30MOL    H40 7638   3.462   2.875   0.028 -1.5845  1.7136 -0.1674
   30MOL    C41 7639   3.445   3.048   0.168 -0.4206  0.6060  0.0441
   30MOL    C42 7640   3.302   3.015   0.223 -0.5947  0.2775  0.4867
   30MOL    C43 7641   3.190   3.044   0.158  0.7815  0.0110 -0.2399
   30MOL    C44 7642   3.055   3.022   0.222 -0.1386  0.0946  0.0831
   30MOL    C45 7643   3.172   3.102   0.017  0.0638 -0.2025 -0.1719
   30MOL    H46 7644   3.441   3.125   0.091  0.8753  2.1951  1.5119
   30MOL    H47 7645   3.509   3.088   0.246  1.6882 -1.9126 -0.3309
   30MOL    H48 7646   3.289   2.973   0.322  0.4834 -0.4220  0.3399
   30MOL    H49 7647   2.985   2.968   0.158 -1.3959  1.8589 -0.0781
   30MOL    H50 7648   3.014   3.122   0.238 -0.9273 -0.3079  0.5856
   30MOL    H51 7649   3.056   2.972   0.319 -0.5918 -1.7219 -0.8307
   30MOL    H52 7650   3.253   3.173   7.877 -0.6198  0.2892 -1.2716
   30MOL    H53 7651   3.086   3.168   0.007 -1.3333 -1.8687  0.6056
   30MOL    C54 7652   3.157   2.993   7.790  0.6919 -0.0824 -0.0250
   30MOL    C55 7653   3.150   3.043   7.651  0.3455  0.1259  0.7647
   30MOL    C56 7654   3.156   2.962   7.543 -0.2101 -0.7708  0.0720
   30MOL    C57 7655   3.158   3.019   7.403  0.4697  0.2485  0.0602
   30MOL    C58 7656   3.168   2.815   7.551  0.9744 -0.6842  0.6933
   30MOL    H59 7657   3.063   2.938   7.801  1.6285 -1.3701  1.8071
   30MOL    H60 7658   3.238   2.926   7.817  0.5998 -0.1551  0.0709
   30MOL    H61 7659   3.148   3.149   7.628 -1.2580 -0.9049 -4.5046
   30MOL    H62 7660   3.246   2.986   7.348  1.0893 -0.5486  1.5222
   30MOL    H63 7661   3.160   3.128   7.407  0.8606  0.2441 -0.0188
   30MOL    H64 7662   3.067   2.987   7.352  2.1258 -1.4275 -1.8949
   30MOL    H65 7663   3.082   2.784   7.491 -0.7191  4.0720  0.4381
   30MOL    H66 7664   3.138   2.794   7.654  2.1773  0.5212  1.3005
   30MOL    C67 7665   3.293   2.751   7.494 -0.1437 -0.1061 -0.7362
   30MOL    C68 7666   3.302   2.600   7.511  0.2037  0.5459 -0.3665
   30MOL    C69 7667   3.381   2.534   7.599  0.5688 -0.8211  0.2560
   30MOL    C70 7668   3.402   2.383   7.590  0.0126 -0.2646 -0.1888
   30MOL    C71 7669   3.474   2.604   7.703 -0.4796 -0.2744  0.1134
   30MOL    H72 7670   3.384   2.802   7.529  0.5454 -1.9989  0.2908
   30MOL    H73 7671   3.290   2.759   7.386 -0.4201  1.2120 -0.6433
   30MOL    H74 7672   3.244   2.542   7.442  1.2564  0.9232 -1.5931
   30MOL    H75 7673   3.313   2.327   7.562  0.5575 -1.1641 -0.1136
   30MOL    H76 7674   3.434   2.345   7.687  0.2552 -3.4612 -1.4811
   30MOL    H77 7675   3.478   2.360   7.516  0.3123  1.9466 -0.6144
   30MOL    H78 7676   3.464   2.573   7.807 -0.1342  1.1053  0.5747
   30MOL    H79 7677   3.439   2.705   7.725  1.9363  0.4045  0.9760
   30MOL    C80 7678   3.618   2.611   7.666  0.6100  1.3713  0.3788
   30MOL    C81 7679   3.652   2.635   7.519 -0.2459 -0.3828  0.0321
   30MOL    C82 7680   3.772   2.680   7.471 -0.5275 -0.0804  0.3925
   30MOL    C83 7681   3.896   2.718   7.559 -0.1432 -0.0884 -0.7825
   30MOL    C84 7682   3.790   2.696   7.325  0.1850 -0.1882 -0.3182
   30MOL    H85 7683   3.675   2.522   7.690 -0.8088  0.0565 -0.9621
   30MOL    H86 7684   3.661   2.695   7.720 -1.1002  1.8699  0.9920
   30MOL    H87 7685   3.574   2.608   7.449 -1.2274  4.1994 -0.8124
   30MOL    H88 7686   3.901   2.827   7.568 -0.7024 -0.2567  1.8542
   30MOL    H89 7687   3.988   2.688   7.511 -0.1705 -1.4749  0.0225
   30MOL    H90 7688   3.887   2.675   7.658  2.6598  0.7307 -0.1331
   30MOL    H91 7689   3.733   2.621   7.270 -1.9186  0.8723  0.3582
   30MOL    H92 7690   3.894   2.671   7.302 -0.1472 -1.0746 -0.8797
   30MOL    C93 7691   3.764   2.836   7.270  0.0330  0.2958  0.2014
   30MOL    C94 7692   3.851   2.937   7.332  0.3004  0.3320 -0.4929
   30MOL    C95 7693   3.821   3.056   7.381 -0.2276  0.1488 -0.4355
   30MOL    C96 7694   3.937   3.136   7.446  0.4439 -0.7513  0.0634
   30MOL    C97 7695   3.685   3.119   7.382 -0.0571 -0.4932  0.0771
   30MOL    H98 7696   3.660   2.865   7.285  0.7282  2.3394  1.3142
   30MOL    H99 7697   3.785   2.827   7.163  1.3985 -1.8585  0.6210
   30MOL   H100 7698   3.953   2.906   7.347 -0.0662 -0.8303 -0.3282
   30MOL   H101 7699   3.911   3.237   7.476  0.6012 -0.0538 -2.0635
   30MOL   H102 7700   3.988   3.085   7.527 -0.1316 -1.9978 -0.3258
   30MOL   H103 7701   4.002   3.147   7.359 -0.4686  0.0755 -0.5264
   30MOL   H104 7702   3.616   3.052   7.331 -1.6426 -1.0523  2.8031
   30MOL   H105 7703   3.716   3.200   7.316 -0.3887 -1.1027 -0.8260
   30MOL   C106 7704   3.630   3.150   7.518  0.1062 -1.1381  0.0528
   30MOL   C107 7705   3.491   3.209   7.500  1.0813  0.3555 -0.1722
   30MOL   C108 7706   3.453   3.338   7.508  0.2554 -0.4736 -0.5548
   30MOL   C109 7707   3.557   3.440   7.543 -0.6581 -0.0051  0.0236
   30MOL   C110 7708   3.311   3.391   7.489 -0.1204  0.1629 -0.3369
   30MOL   H111 7709   3.691   3.217   7.578 -1.8225  1.5981 -0.9154
   30MOL   H112 7710   3.614   3.058   7.573 -2.2411  0.1921  1.7136
   30MOL   H113 7711   3.416   3.142   7.460  0.9451  0.9657 -0.9458
   30MOL   H114 7712   3.591   3.413   7.643  0.3509  0.5310 -0.1738
   30MOL   H115 7713   3.641   3.435   7.474 -1.8916 -0.5119 -1.4822
   30MOL   H116 7714   3.529   3.545   7.552 -0.5743 -0.1272  2.0129
   30MOL   H117 7715   3.248   3.312   7.450  1.0242 -1.3170  0.7327
   30MOL   H118 7716   3.315   3.464   7.408 -1.7069  0.3814 -0.2342
   30MOL   C119 7717   3.248   3.440   7.623  0.6887 -0.0556 -0.7594
   30MOL   C120 7718   3.098   3.450   7.604  0.0221  0.3612 -0.5418
   30MOL   C121 7719   3.025   3.557   7.571 -0.3678  0.3197  0.0185
   30MOL   C122 7720   2.873   3.561   7.552 -0.3395  0.1770  0.6798
   30MOL   C123 7721   3.090   3.691   7.542 -0.0989 -0.8120  0.4742
   30MOL   H124 7722   3.293   3.535   7.650 -0.1680 -0.5258  2.5488
   30MOL   H125 7723   3.266   3.368   7.703 -0.3530  1.3111  0.7383
   30MOL   H126 7724   3.038   3.361   7.611  0.7896 -0.0969  0.3601
   30MOL   H127 7725   2.849   3.558   7.446 -0.7205  0.6334  0.7574
   30MOL   H128 7726   2.835   3.645   7.610  0.1019 -0.2534  1.6181
   30MOL   H129 7727   2.822   3.473   7.592 -1.3361 -1.1691 -3.3379
   30MOL   H130 7728   3.195   3.686   7.571  0.5893  0.2763 -1.6950
   30MOL   H131 7729   3.047   3.771   7.602 -0.5407  1.2268 -2.4455
   30MOL   C132 7730   3.079   3.728   7.394 -1.0903  0.1519 -0.1075
   30MOL   C133 7731   3.211   3.776   7.336 -0.5246 -0.1961  0.4865
   30MOL   C134 7732   3.230   3.862   7.242  0.4732  0.2850 -0.3957
   30MOL   C135 7733   3.369   3.895   7.194  0.6061  0.2099  0.8381
   30MOL   C136 7734   3.117   3.926   7.159 -0.2294 -0.0695  0.8307
   30MOL   H137 7735   3.010   3.811   7.382 -0.5205  0.7230  0.5946
   30MOL   H138 7736   3.043   3.641   7.338  0.4218 -0.1174 -0.6912
   30MOL   H139 7737   3.302   3.735   7.378 -0.9372  0.0067  1.5917
   30MOL   H140 7738   3.395   4.000   7.206 -0.5400  0.5510  0.3837
   30MOL   H141 7739   3.382   3.886   7.087 -1.6583  0.2337  0.5407
   30MOL   H142 7740   3.443   3.835   7.248  2.1417  0.5221 -0.8696
   30MOL   H143 7741   3.030   3.863   7.179  0.5599 -0.8708  1.8103
   30MOL   H144 7742   3.139   3.903   7.055 -0.5354 -2.1783  1.2011
   30MOL   C145 7743   3.086   4.072   7.168  0.5483 -0.2145  0.1159
   30MOL   C146 7744   2.953   4.101   7.095 -0.0267  0.3155  0.0638
   30MOL   C147 7745   2.834   4.145   7.139  0.6288 -0.7750  0.3422
   30MOL   C148 7746   2.720   4.160   7.037  0.5292 -0.2236 -0.2445
   30MOL   C149 7747   2.804   4.185   7.283 -0.1894  0.1577 -0.8450
   30MOL   H150 7748   3.166   4.131   7.124 -0.0442  1.6450  1.4569
   30MOL   H151 7749   3.088   4.103   7.273 -0.6901  0.2252  0.0162
   30MOL   H152 7750   2.968   4.090   6.989  2.1016  0.0397  0.3722
   30MOL   H153 7751   2.636   4.225   7.063  2.1267  0.7816  2.6777
   30MOL   H154 7752   2.675   4.062   7.022  0.0901 -0.1691  0.6385
   30MOL   H155 7753   2.771   4.193   6.947 -1.0875  1.6685 -0.5080
   30MOL   H156 7754   2.753   4.282   7.287 -0.3452 -0.0137  2.4870
   30MOL   H157 7755   2.897   4.200   7.337 -0.0108 -0.5035 -0.9749
   30MOL   C158 7756   2.709   4.079   7.353 -0.4711 -0.2298  0.5907
   30MOL   C159 7757   2.646   4.119   7.481  0.3628 -0.1833  0.1377
   30MOL   C160 7758   2.657   4.067   7.604 -0.6747 -0.9279 -0.2031
   30MOL   C161 7759   2.746   3.954   7.641  0.1544  0.1397 -0.0422
   30MOL   C162 7760   2.573   4.115   7.717  0.8525 -0.4948  0.7914
   30MOL   H163 7761   2.763   3.985   7.359 -1.5072 -0.9014 -0.2957
   30MOL   H164 7762   2.619   4.069   7.292 -0.4069 -3.2955  0.9507
   30MOL   H165 7763   2.584   4.207   7.475 -1.3444 -1.3806 -0.0063
   30MOL   H166 7764   2.850   3.973   7.668  0.6306 -1.3994 -0.7816
   30MOL   H167 7765   2.754   3.890   7.553  1.0578 -0.2010  0.2858
   30MOL   H168 7766   2.710   3.891   7.722  0.9465  0.1088  0.2962
   30MOL   H169 7767   2.505   4.033   7.741 -2.0209  1.4022 -0.6740
   30MOL   H170 7768   2.513   4.198   7.680  0.6755 -1.4909 -1.2134
   30MOL   C171 7769   2.635   4.156   7.852 -0.0907  0.7709  0.4733
   30MOL   C172 7770   2.529   4.196   0.080  0.9501  0.3967  0.2919
   30MOL   C173 7771   2.467   4.108   0.162  0.2391  0.2236  0.1686
   30MOL   C174 7772   2.505   3.959   0.179  0.5908  0.1548 -0.0775
   30MOL   C175 7773   2.360   4.167   0.258  0.0082 -0.5237 -0.1253
   30MOL   H176 7774   2.708   4.234   7.831  0.4842 -0.0163 -0.5122
   30MOL   H177 7775   2.703   4.079   0.010  0.0952  0.5213 -0.3682
   30MOL   H178 7776   2.504   4.300   0.090 -0.3675  0.0883  0.3885
   30MOL   H179 7777   2.572   3.944   0.264  0.0941 -1.6649  0.0324
   30MOL   H180 7778   2.563   3.918   0.095  1.9745  1.2242  0.3352
   30MOL   H181 7779   2.415   3.899   0.193  0.7988 -0.1785 -0.1438
   30MOL   H182 7780   2.376   4.274   0.275 -3.1183  0.0100 -0.2025
   30MOL   H183 7781   2.378   4.123   0.356  2.2967 -1.5274 -0.9728
   30MOL   C184 7782   2.210   4.147   0.204  0.1104 -0.1649  0.4938
   30MOL   C185 7783   2.111   4.153   0.326 -0.4119 -0.4327  0.5609
   30MOL   C186 7784   2.059   4.048   0.401 -0.1782 -0.1588  0.1984
   30MOL   C187 7785   1.982   4.078   0.526  0.0006  0.7745  0.5630
   30MOL   C188 7786   2.083   3.899   0.367 -0.1776 -0.4093  0.5036
   30MOL   H189 7787   2.199   4.052   0.152  0.9332 -0.8292  1.5019
   30MOL   H190 7788   2.187   4.225   0.131 -1.0769 -0.3906  0.6162
   30MOL   H191 7789   2.098   4.253   0.363  2.2629  0.0399  0.3575
   30MOL   H192 7790   2.004   4.168   0.582  0.3481 -0.6694  2.8213
   30MOL   H193 7791   1.997   3.985   0.581 -2.0459  0.2012  0.2234
   30MOL   H194 7792   1.873   4.069   0.517 -0.1525  1.6087  1.5353
   30MOL   H195 7793   2.088   3.894   0.258 -0.1876  0.2764  0.4677
   30MOL   H196 7794   1.995   3.846   0.402 -1.2576  2.1900  1.8807
   30MOL   C197 7795   2.210   3.848   0.438  0.4349 -0.5214 -0.3932
   30MOL   C198 7796   2.240   3.703   0.400 -0.2740  0.4854  0.0026
   30MOL   C199 7797   2.185   3.588   0.442  0.0729  0.3046  0.2648
   30MOL   C200 7798   2.248   3.457   0.390 -0.0098  0.1158 -0.5251
   30MOL   C201 7799   2.069   3.574   0.535  0.1102  0.0711 -0.2958
   30MOL   H202 7800   2.199   3.848   0.546 -0.6248 -0.8778 -0.5018
   30MOL   H203 7801   2.295   3.913   0.417 -3.0816  3.9831 -1.3716
   30MOL   H204 7802   2.318   3.683   0.328  0.2405  1.1124  0.3872
   30MOL   H205 7803   2.312   3.461   0.301 -1.7852  1.1466 -1.8068
   30MOL   H206 7804   2.169   3.401   0.340 -2.2100  1.6781  1.0958
   30MOL   H207 7805   2.290   3.388   0.463 -1.5605 -4.3047 -3.6128
   30MOL   H208 7806   1.988   3.531   0.477  1.0652 -3.0772  0.6134
   30MOL   H209 7807   2.034   3.675   0.558 -0.4764 -0.8435  3.2145
   30MOL   C210 7808   2.107   3.517   0.670 -0.6443  0.4151  0.0150
   30MOL   C211 7809   1.982   3.513   0.769  0.8391 -0.7749 -0.3707
   30MOL   C212 7810   1.973   3.554   0.901  0.5517  0.3834 -0.3636
   30MOL   C213 7811   1.841   3.551   0.977  0.7653  0.5561  0.0808
   30MOL   C214 7812   2.093   3.589   0.983 -0.3028  0.3065  0.0171
   30MOL   H215 7813   2.200   3.562   0.705 -1.1240  1.7281 -0.3676
   30MOL   H216 7814   2.141   3.416   0.644  1.8317  1.6782 -1.8956
   30MOL   H217 7815   1.893   3.473   0.723  0.5349 -1.8268  1.0947
   30MOL   H218 7816   1.771   3.504   0.907 -0.3472 -0.4771  1.8595
   30MOL   H219 7817   1.798   3.646   1.008  1.5142  0.2561  2.1101
   30MOL   H220 7818   1.850   3.486   1.064 -2.1150 -1.2065 -0.8556
   30MOL   H221 7819   2.173   3.544   0.924  1.5348  3.5117 -0.0185
   30MOL   H222 7820   2.095   3.536   1.078  0.0271  0.0967 -0.1047
   30MOL   C223 7821   2.106   3.738   0.997  0.1424 -0.0258  0.0674
   30MOL   C224 7822   2.241   3.784   1.038 -0.1147  0.0948  0.2421
   30MOL   C225 7823   2.320   3.879   0.987  0.0317 -0.1870 -0.0086
   30MOL   C226 7824   2.453   3.910   1.050  0.7705 -0.8068  0.0610
   30MOL   C227 7825   2.287   3.947   0.857 -0.1418 -0.4631  0.2275
   30MOL   H228 7826   2.032   3.771   1.070 -0.9774 -0.7400 -0.7374
   30MOL   H229 7827   2.072   3.792   0.909 -0.4071 -0.6327 -0.0927
   30MOL   H230 7828   2.280   3.734   1.125 -1.5436 -0.8449  0.3714
   30MOL   H231 7829   2.531   3.920   0.975 -0.6499 -1.5267 -1.5339
   30MOL   H232 7830   2.473   3.848   1.138 -1.5154 -0.1992  1.0404
   30MOL   H233 7831   2.459   4.006   1.102  1.5316 -1.2154  0.7550
   30MOL   H234 7832   2.202   3.903   0.805  0.3996  0.2830 -1.2935
   30MOL   H235 7833   2.371   3.933   0.789 -0.6214 -3.6342  0.2089
   30MOL   C236 7834   2.264   4.093   0.877  0.4463 -0.2122 -0.4739
   30MOL   C237 7835   2.376   4.186   0.852  0.3347  0.6793  0.5020
   30MOL   C238 7836   2.401   4.260   0.740  0.6121  0.5188  0.7706
   30MOL   C239 7837   2.521   4.354   0.734  0.4733 -0.1157  0.0337
   30MOL   C240 7838   2.307   4.255   0.619  0.9806 -0.4015  0.0019
   30MOL   H241 7839   2.233   4.128   0.976 -0.5384  0.4027 -0.9932
   30MOL   H242 7840   2.181   4.133   0.819 -0.4045 -0.0284  0.8443
   30MOL   H243 7841   2.445   4.199   0.934 -0.7869  1.2150  1.3761
   30MOL   H244 7842   2.562   4.342   0.634  0.0019 -0.1989 -0.1477
   30MOL   H245 7843   2.596   4.338   0.812  2.2915  2.7747 -1.0407
   30MOL   H246 7844   2.484   4.453   0.761 -1.6861 -1.3668  1.8747
   30MOL   H247 7845   2.243   4.167   0.625 -1.1344  1.1778  1.5418
   30MOL   H248 7846   2.369   4.242   0.530 -0.2847 -2.1624 -0.6523
   30MOL   C249 7847   2.223   4.385   0.611  0.4763  0.1493 -0.4247
   30MOL   C250 7848   2.100   4.372   0.692  0.0003 -1.0147  0.5439
   30MOL   C251 7849   1.979   4.429   0.673 -1.3471 -1.0645  0.1155
   30MOL   C252 7850   1.860   4.416   0.776  0.2555 -0.6355  0.1720
   30MOL   C253 7851   1.945   4.520   0.551 -0.5428 -0.0592 -0.0475
   30MOL   H254 7852   2.186   4.410   0.511  0.5597 -0.7442 -0.6814
   30MOL   H255 7853   2.282   4.469   0.647 -1.5889  0.6123  1.9506
   30MOL   H256 7854   2.108   4.321   0.786 -1.4950 -0.1853  1.1418
   30MOL   H257 7855   1.899   4.365   0.864  2.8930  0.5383 -0.2415
   30MOL   H258 7856   1.774   4.361   0.739 -1.5779 -0.0127  3.4246
   30MOL   H259 7857   1.830   4.510   0.820  0.3573  0.2100 -1.5105
   30MOL   H260 7858   2.025   4.551   0.483  0.2906 -2.2911 -0.1302
   30MOL   H261 7859   1.897   4.605   0.600  0.5672  0.3525  0.3456
   30MOL   H262 7860   1.869   4.464   0.496 -2.1165  0.5581  1.4646
   31MOL     C1 7861   6.700   7.669   1.501  0.0070 -0.0742  0.3394
   31MOL     C2 7862   6.578   7.665   1.594  0.3734 -0.1567  0.4209
   31MOL     C3 7863   6.572   7.674   1.726  0.9807 -0.3203 -0.1106
   31MOL     C4 7864   6.448   7.648   1.810  0.3626  0.1434  0.0634
   31MOL     C5 7865   6.694   7.719   1.808  0.3293  0.4886 -0.1601
   31MOL     H6 7866   6.736   7.568   1.478 -0.6883 -0.8563  2.5677
   31MOL     H7 7867   6.674   7.716   1.406  0.7712  1.4158  0.8568
   31MOL     H8 7868   6.483   7.645   1.547  0.3948  1.5345 -0.3796
   31MOL     H9 7869   6.407   7.739   1.853 -1.9743  0.2584 -2.3147
   31MOL    H10 7870   6.465   7.581   1.895  2.9445  1.6704  0.7987
   31MOL    H11 7871   6.357   7.613   1.762  1.2053 -0.5024 -1.1063
   31MOL    H12 7872   6.786   7.717   1.749 -0.5068 -2.4148 -1.4267
   31MOL    H13 7873   6.696   7.645   1.888  0.5755  1.5442  0.8362
   31MOL    H14 7874   6.793   7.711   1.538 -0.1833 -0.5294  1.3528
   31MOL    C15 7875   6.672   7.852   1.871  0.2429  0.4378  0.6660
   31MOL    C16 7876   6.774   0.007   1.976  0.6070  0.0785  0.1954
   31MOL    C17 7877   6.844   0.125   1.989  0.1683 -0.2486  0.6052
   31MOL    C18 7878   6.928   0.142   2.110  0.3784 -0.0695  0.1893
   31MOL    C19 7879   6.841   0.249   1.893 -0.3642  0.8505 -0.2248
   31MOL    H20 7880   6.574   7.862   1.918 -0.5568  2.3923 -1.3543
   31MOL    H21 7881   6.679   0.045   1.790 -1.2010  0.9522  0.9752
   31MOL    H22 7882   6.780   7.818   2.059  0.4025 -0.3950 -0.1733
   31MOL    H23 7883   6.953   0.044   2.151  2.6595 -0.2512 -1.5780
   31MOL    H24 7884   6.882   0.200   2.190  0.8597 -0.5250  0.8029
   31MOL    H25 7885   7.024   0.178   2.076  0.1985 -0.1086 -0.3613
   31MOL    H26 7886   6.803   0.335   1.948  1.7054 -0.5366  3.6247
   31MOL    H27 7887   6.772   0.225   1.813  0.4460  1.9931 -1.2809
   31MOL    C28 7888   6.973   0.289   1.815 -0.4331  0.1977  0.1243
   31MOL    C29 7889   6.968   0.235   1.676 -0.0791 -0.4654 -0.5529
   31MOL    C30 7890   7.011   0.115   1.632 -0.2763 -0.5050  0.0075
   31MOL    C31 7891   7.013   0.077   1.484  0.3888 -0.0906  0.2222
   31MOL    C32 7892   7.081   0.021   1.727 -0.8738  0.3066  0.2935
   31MOL    H33 7893   7.058   0.255   1.874 -1.3320  0.8690  1.8829
   31MOL    H34 7894   6.978   0.398   1.815  0.1622  0.1806  1.7856
   31MOL    H35 7895   6.921   0.303   1.607 -1.5723  1.2110  2.0664
   31MOL    H36 7896   7.107   0.051   1.434  1.2803 -0.9454  2.2670
   31MOL    H37 7897   6.983   0.167   1.430 -0.2956 -0.3186  0.2219
   31MOL    H38 7898   6.945   7.874   1.461  0.4032  0.2371 -1.0387
   31MOL    H39 7899   7.051   7.799   1.699  1.6065  0.2544 -2.4215
   31MOL    H40 7900   7.055   0.031   1.832  1.7370  1.4123  0.8724
   31MOL    C41 7901   7.235   0.028   1.706 -0.4637  0.0168  0.2563
   31MOL    C42 7902   7.308   7.826   1.810  0.3191 -0.1958  0.4150
   31MOL    C43 7903   7.414   7.862   1.894 -0.2311 -0.0294 -0.6726
   31MOL    C44 7904   7.472   7.756   1.984  0.1743  0.0621 -0.0494
   31MOL    C45 7905   7.478   0.122   1.883  0.4717  0.3930  0.4824
   31MOL    H46 7906   7.275   0.129   1.699  1.4987 -0.7942 -0.5731
   31MOL    H47 7907   7.271   7.871   1.609 -1.0020 -2.2919  0.8844
   31MOL    H48 7908   7.268   7.726   1.812  1.0925 -0.6129 -2.4605
   31MOL    H49 7909   7.579   7.756   1.967  0.2200 -3.5295 -0.1267
   31MOL    H50 7910   7.431   7.656   1.971  0.7282 -0.1418 -0.2221
   31MOL    H51 7911   7.461   7.782   2.089  1.7426 -1.6909  0.5692
   31MOL    H52 7912   7.528   0.149   1.976 -0.7558  2.5588  0.5550
   31MOL    H53 7913   7.398   0.196   1.874 -1.1991 -1.7424 -3.7319
   31MOL    C54 7914   7.577   0.136   1.768 -0.2116 -0.5493 -0.3675
   31MOL    C55 7915   7.630   0.273   1.733  0.1777 -0.6164 -0.2146
   31MOL    C56 7916   7.590   0.352   1.631 -0.4889  0.4897  0.6654
   31MOL    C57 7917   7.662   0.483   1.608 -0.3020  0.2461  0.4468
   31MOL    C58 7918   7.484   0.323   1.521 -0.2973 -0.3639 -0.0528
   31MOL    H59 7919   7.533   0.088   1.680  1.3904  0.5303 -1.8046
   31MOL    H60 7920   7.667   0.076   1.783  0.9929  0.0730 -4.3869
   31MOL    H61 7921   7.715   0.308   1.789  0.2209 -1.6589  0.3849
   31MOL    H62 7922   7.587   0.560   1.619 -2.8049 -2.0773  0.1113
   31MOL    H63 7923   7.692   0.474   1.504  0.4593  0.1890  0.6625
   31MOL    H64 7924   7.750   0.503   1.670 -0.3207  0.5111  0.3868
   31MOL    H65 7925   7.446   0.222   1.511 -0.6669 -0.3045  0.7555
   31MOL    H66 7926   7.536   0.339   1.427  1.1418 -0.8552  0.6555
   31MOL    C67 7927   7.367   0.425   1.526  0.3087  0.3008 -0.5724
   31MOL    C68 7928   7.255   0.390   1.433 -0.4583 -0.9629 -0.3104
   31MOL    C69 7929   7.211   0.472   1.332 -0.3412  0.0676  0.1551
   31MOL    C70 7930   7.096   0.423   1.247  0.3248 -0.7737  0.1211
   31MOL    C71 7931   7.256   0.614   1.303  0.5792  0.1324 -0.3689
   31MOL    H72 7932   7.411   0.523   1.511  0.7912 -0.0106 -1.2433
   31MOL    H73 7933   7.319   0.421   1.623  1.6299 -0.0660  0.0746
   31MOL    H74 7934   7.214   0.292   1.452 -3.7739  0.5129  0.4745
   31MOL    H75 7935   7.001   0.463   1.281  0.3130 -1.3874  0.7945
   31MOL    H76 7936   7.084   0.320   1.277 -1.1546 -1.0484 -1.3618
   31MOL    H77 7937   7.103   0.440   1.139 -0.3442  0.4081  0.2495
   31MOL    H78 7938   7.300   0.646   1.398  0.3644 -0.3827 -0.0959
   31MOL    H79 7939   7.173   0.681   1.278  1.0168  0.8195 -0.0119
   31MOL    C80 7940   7.350   0.619   1.185 -0.6642  0.3498  0.3651
   31MOL    C81 7941   7.422   0.751   1.167  0.1250 -0.2912 -0.0649
   31MOL    C82 7942   7.422   0.835   1.062  0.4414  0.3844 -0.4891
   31MOL    C83 7943   7.341   0.808   0.931  0.6916  0.1324  0.1851
   31MOL    C84 7944   7.509   0.960   1.062  0.0538 -0.1372  0.1810
   31MOL    H85 7945   7.309   0.563   1.101  3.2630 -3.0081  0.5362
   31MOL    H86 7946   7.431   0.551   1.209 -0.2129  0.1465 -1.6378
   31MOL    H87 7947   7.486   0.786   1.247  0.1958  1.1037 -0.7316
   31MOL    H88 7948   7.398   0.787   0.841  1.3232 -0.3989  0.6959
   31MOL    H89 7949   7.293   0.901   0.903  0.7232  0.0111 -0.2662
   31MOL    H90 7950   7.262   0.735   0.951  1.6609 -0.4535  2.0247
   31MOL    H91 7951   7.541   0.964   1.166  0.4608 -1.3990  0.1143
   31MOL    H92 7952   7.454   1.049   1.034 -0.3950 -0.7644 -0.9885
   31MOL    C93 7953   7.633   0.955   0.972 -0.4824  0.7381 -0.1269
   31MOL    C94 7954   7.712   1.076   0.997 -0.1731 -0.5461  0.6761
   31MOL    C95 7955   7.841   1.080   1.031  1.2965 -0.3499  0.7601
   31MOL    C96 7956   0.028   1.215   1.041 -0.1000 -0.2926  0.1459
   31MOL    C97 7957   0.053   0.963   1.067 -0.5112  0.1064  0.0437
   31MOL    H98 7958   7.601   0.953   0.868  0.3851  1.3747 -0.4124
   31MOL    H99 7959   7.686   0.861   0.983 -1.7640  0.0169  0.0002
   31MOL   H100 7960   7.660   1.170   0.978 -1.2304 -0.8596  1.9102
   31MOL   H101 7961   7.830   1.289   1.020  0.6086  0.1756 -0.9018
   31MOL   H102 7962   0.070   1.233   1.140  0.5591 -0.9180 -0.0165
   31MOL   H103 7963   0.113   1.217   0.972 -0.4226  0.3522 -0.2367
   31MOL   H104 7964   0.153   0.993   1.035 -0.8032  1.9866  0.8210
   31MOL   H105 7965   0.030   0.875   1.007 -0.0155 -1.1033  1.6128
   31MOL   C106 7966   0.057   0.942   1.214 -1.0208  0.1251 -1.1440
   31MOL   C107 7967   0.117   0.807   1.249  0.3561 -0.1334 -0.3205
   31MOL   C108 7968   0.051   0.698   1.293  0.6359  0.2005 -0.9100
   31MOL   C109 7969   7.790   0.695   1.345 -0.0466  0.4587  0.2286
   31MOL   C110 7970   0.115   0.565   1.320 -0.3042 -0.3759  0.2757
   31MOL   H111 7971   7.839   0.952   1.264 -1.0263  1.0880 -1.3491
   31MOL   H112 7972   0.119   1.018   1.260  0.0013 -1.7249  0.6182
   31MOL   H113 7973   0.219   0.798   1.215  1.0766  2.2643  1.0790
   31MOL   H114 7974   7.735   0.788   1.330 -0.9492 -0.0329  0.4769
   31MOL   H115 7975   7.735   0.612   1.302  1.8657 -0.1028 -1.1926
   31MOL   H116 7976   7.790   0.687   1.454  1.1038  0.7732  0.2641
   31MOL   H117 7977   0.204   0.572   1.259 -1.5258 -0.1832 -1.5216
   31MOL   H118 7978   0.054   0.487   1.275  0.0942  0.8494 -2.4531
   31MOL   C119 7979   0.141   0.532   1.469  0.3085 -0.7875  0.2876
   31MOL   C120 7980   0.218   0.403   1.484  0.1745 -0.2864  0.3979
   31MOL   C121 7981   0.338   0.388   1.541  0.5752  0.0447 -0.0213
   31MOL   C122 7982   0.385   0.244   1.571  0.1442  0.1545 -0.0679
   31MOL   C123 7983   0.428   0.497   1.594 -0.9120  0.9494  0.0145
   31MOL   H124 7984   0.046   0.511   1.519  0.1307 -3.1811 -0.9677
   31MOL   H125 7985   0.181   0.622   1.516  1.0673 -1.9058  1.8057
   31MOL   H126 7986   0.168   0.317   1.443  0.5128  0.8788 -2.6328
   31MOL   H127 7987   0.480   0.232   1.520  1.2867 -0.0209  2.0459
   31MOL   H128 7988   0.319   0.173   1.520  1.3838 -1.0254 -0.0494
   31MOL   H129 7989   0.385   0.225   1.679 -0.6004 -0.8311 -0.2393
   31MOL   H130 7990   0.445   0.473   1.699 -0.9791 -0.8141 -0.3589
   31MOL   H131 7991   0.375   0.591   1.581 -2.5962 -0.3884 -3.4984
   31MOL   C132 7992   0.568   0.505   1.532 -0.4460 -0.3526  0.0558
   31MOL   C133 7993   0.568   0.558   1.389  0.1040  0.0563  0.3816
   31MOL   C134 7994   0.657   0.636   1.329 -0.5779  0.5546  0.2200
   31MOL   C135 7995   0.634   0.688   1.182  0.0449  0.5585 -0.0194
   31MOL   C136 7996   0.781   0.695   1.405  0.2473 -0.0948  0.2518
   31MOL   H137 7997   0.613   0.407   1.525 -0.3931 -0.4188  1.2364
   31MOL   H138 7998   0.636   0.565   1.592 -0.1616 -1.7582  1.1630
   31MOL   H139 7999   0.483   0.532   1.327 -0.4452  0.9846  0.7370
   31MOL   H140 8000   0.623   0.796   1.176 -0.7068  0.3858 -1.8718
   31MOL   H141 8001   0.541   0.653   1.138  0.2507  1.3022 -1.0588
   31MOL   H142 8002   0.718   0.659   1.120  0.3560 -0.1583  0.7210
   31MOL   H143 8003   0.859   0.709   1.330  0.3042 -2.1087 -0.1005
   31MOL   H144 8004   0.814   0.628   1.485  1.2835  0.9349  0.7031
   31MOL   C145 8005   0.740   0.824   1.484  0.1797 -0.1937 -0.3363
   31MOL   C146 8006   0.859   0.901   1.545 -0.8511  0.1816  0.4769
   31MOL   C147 8007   0.898   1.030   1.525 -0.0851  0.5934  0.2079
   31MOL   C148 8008   1.025   1.079   1.598  0.2817 -0.4060  0.1941
   31MOL   C149 8009   0.834   1.124   1.421 -0.3333 -0.2309 -0.1010
   31MOL   H150 8010   0.660   0.806   1.556 -2.1772  2.3862 -2.2007
   31MOL   H151 8011   0.672   0.877   1.418 -1.4816  0.0625  1.5431
   31MOL   H152 8012   0.918   0.847   1.616 -0.6786 -0.9038 -0.4850
   31MOL   H153 8013   1.098   1.109   1.523 -0.3917 -1.6601 -0.9881
   31MOL   H154 8014   1.062   1.006   1.670  0.5764 -0.5373 -0.0891
   31MOL   H155 8015   1.000   1.172   1.650  2.7561 -0.0206  0.7232
   31MOL   H156 8016   0.758   1.073   1.362 -1.5301 -0.0934  1.2918
   31MOL   H157 8017   0.913   1.163   1.357 -0.8468  1.8965  0.5410
   31MOL   C158 8018   0.760   1.239   1.485 -1.1225 -0.1655  0.3572
   31MOL   C159 8019   0.630   1.197   1.553  0.3403 -0.2885 -1.1554
   31MOL   C160 8020   0.497   1.198   1.511 -0.3689 -0.1937  0.0338
   31MOL   C161 8021   0.464   1.249   1.370  0.6527  0.2891  0.2477
   31MOL   C162 8022   0.384   1.150   1.589 -0.6899 -0.3294  0.5290
   31MOL   H163 8023   0.735   1.321   1.418  1.2041  0.7713  0.6057
   31MOL   H164 8024   0.824   1.299   1.549  0.1454 -0.3012 -0.7552
   31MOL   H165 8025   0.641   1.157   1.653 -0.1737  0.2506 -0.8773
   31MOL   H166 8026   0.556   1.289   1.327  1.5308 -0.8838  1.0166
   31MOL   H167 8027   0.383   1.323   1.372  0.7883  0.4187  1.3109
   31MOL   H168 8028   0.430   1.171   1.302  2.3317  1.1578 -1.6193
   31MOL   H169 8029   0.302   1.219   1.568  0.7820  2.2198  2.7913
   31MOL   H170 8030   0.406   1.158   1.695  2.6493  0.8222 -0.1730
   31MOL   C171 8031   0.367   1.002   1.556 -0.0708 -0.4367 -0.1891
   31MOL   C172 8032   0.255   0.940   1.630 -0.0246  0.3435 -0.0089
   31MOL   C173 8033   0.268   0.890   1.756  0.4685 -0.4388 -0.1246
   31MOL   C174 8034   0.399   0.857   1.837 -0.4619  0.5006 -0.0005
   31MOL   C175 8035   0.140   0.843   1.820 -0.0272 -0.0235 -0.0754
   31MOL   H176 8036   0.456   0.944   1.581  0.0685 -0.6245 -1.1035
   31MOL   H177 8037   0.332   0.983   1.455  0.1422  2.3736 -0.8385
   31MOL   H178 8038   0.155   0.940   1.589  0.7478  0.1966 -1.9978
   31MOL   H179 8039   0.377   0.893   1.937 -1.1970  0.8507 -0.2791
   31MOL   H180 8040   0.480   0.921   1.802  1.8309 -2.8289 -0.9996
   31MOL   H181 8041   0.417   0.751   1.822  1.9157  0.8141  0.4441
   31MOL   H182 8042   0.050   0.864   1.763  0.4472  0.4955 -0.6428
   31MOL   H183 8043   0.125   0.897   1.913  1.3146  1.4956 -0.7115
   31MOL   C184 8044   0.143   0.690   1.844  1.2487 -0.0616 -0.3131
   31MOL   C185 8045   0.010   0.638   1.889 -0.4138  0.4045  0.4061
   31MOL   C186 8046   7.860   0.569   2.006 -0.6899 -0.5972 -0.0349
   31MOL   C187 8047   7.713   0.556   2.046 -0.1694  0.1720  0.2930
   31MOL   C188 8048   0.092   0.504   2.092  0.0477  0.0332 -0.3314
   31MOL   H189 8049   0.225   0.658   1.908 -0.2719 -0.0609  1.6836
   31MOL   H190 8050   0.157   0.647   1.745  1.1511  0.8657 -0.7372
   31MOL   H191 8051   7.810   0.663   1.821  0.4183  2.8471  0.2830
   31MOL   H192 8052   7.668   0.551   1.947  0.7618 -0.7311 -0.1005
   31MOL   H193 8053   7.668   0.633   2.108 -0.9724  0.6018 -0.8250
   31MOL   H194 8054   7.717   0.458   2.095  2.2842  0.0849  0.0108
   31MOL   H195 8055   0.173   0.465   2.030  0.6700  0.7879 -0.0082
   31MOL   H196 8056   0.060   0.415   2.146  4.5508 -0.7499  1.2900
   31MOL   C197 8057   0.157   0.595   2.192  0.5281 -0.4837  0.2409
   31MOL   C198 8058   0.260   0.515   2.273 -0.5778  0.0390 -1.2884
   31MOL   C199 8059   0.386   0.548   2.306  0.4005 -0.5236 -0.0619
   31MOL   C200 8060   0.486   0.454   2.375  0.1561  0.0834 -0.5844
   31MOL   C201 8061   0.442   0.690   2.277  0.0179  0.4282  0.0436
   31MOL   H202 8062   0.088   0.627   2.270 -0.4183 -1.0169 -0.3779
   31MOL   H203 8063   0.197   0.684   2.144  0.5556 -0.9872 -0.6848
   31MOL   H204 8064   0.223   0.422   2.313  2.3623 -1.6134 -2.2669
   31MOL   H205 8065   0.502   0.493   2.475 -3.7546  1.5539 -0.4428
   31MOL   H206 8066   0.579   0.433   2.322  1.6766 -0.1823  2.0934
   31MOL   H207 8067   0.440   0.356   2.393 -1.5661  1.0350  0.2598
   31MOL   H208 8068   0.357   0.757   2.265  0.7766  1.0542 -2.2525
   31MOL   H209 8069   0.497   0.690   2.182 -1.5887  0.1674 -0.9004
   31MOL   C210 8070   0.527   0.732   2.395 -0.5706 -0.0299 -0.9695
   31MOL   C211 8071   0.557   0.882   2.387  0.1164 -0.6830  0.2793
   31MOL   C212 8072   0.672   0.944   2.431 -0.0207  0.7634 -0.4095
   31MOL   C213 8073   0.670   1.096   2.434  0.5193  0.6625  0.0190
   31MOL   C214 8074   0.793   0.870   2.476 -0.3830  0.3615 -0.4924
   31MOL   H215 8075   0.616   0.669   2.400 -0.0292  0.8932  2.1430
   31MOL   H216 8076   0.469   0.725   2.487  1.1407 -0.8924  0.0614
   31MOL   H217 8077   0.471   0.947   2.378  0.7161 -0.0662 -1.2312
   31MOL   H218 8078   0.770   1.124   2.400  1.3670 -1.0071  1.0512
   31MOL   H219 8079   0.648   1.141   2.531  0.1233  0.7488 -0.1088
   31MOL   H220 8080   0.603   1.136   2.358  1.4445 -0.6037 -1.4909
   31MOL   H221 8081   0.782   0.762   2.477  1.4695  0.1404 -0.8095
   31MOL   H222 8082   0.812   0.899   2.580 -0.5020  1.3513 -0.7386
   31MOL   C223 8083   0.921   0.894   2.394  0.5113  0.1885  0.5475
   31MOL   C224 8084   1.040   0.853   2.472 -0.2116  0.2467  0.1673
   31MOL   C225 8085   1.163   0.881   2.434  0.0993  0.6630 -0.6782
   31MOL   C226 8086   1.282   0.871   2.524 -0.0192 -0.0520 -0.0408
   31MOL   C227 8087   1.204   0.918   2.291  0.4230  0.0261  0.0369
   31MOL   H228 8088   0.928   0.997   2.360 -0.4990  0.4557  1.1103
   31MOL   H229 8089   0.913   0.838   2.301  1.3210  2.7164 -1.0980
   31MOL   H230 8090   1.030   0.816   2.573 -0.4430 -1.4181 -0.4452
   31MOL   H231 8091   1.267   0.826   2.622 -1.3755 -0.2526 -0.3194
   31MOL   H232 8092   1.320   0.972   2.535  1.7384 -0.2662 -3.4937
   31MOL   H233 8093   1.360   0.814   2.474 -0.8260 -0.7713 -0.5036
   31MOL   H234 8094   1.121   0.916   2.220  0.9780 -1.5288 -0.6041
   31MOL   H235 8095   1.271   0.842   2.250  1.6069 -0.2182  2.3656
   31MOL   C236 8096   1.255   1.063   2.281 -0.5816  0.7770 -0.2735
   31MOL   C237 8097   1.251   1.124   2.147  0.0721 -0.1766 -1.0519
   31MOL   C238 8098   1.347   1.135   2.048  0.2541  0.1185 -0.4811
   31MOL   C239 8099   1.313   1.209   1.925  0.1369 -0.7915  0.7067
   31MOL   C240 8100   1.488   1.084   2.062  0.0645  0.0476  0.1304
   31MOL   H241 8101   1.355   1.082   2.320 -1.2717  1.6352  1.1522
   31MOL   H242 8102   1.192   1.125   2.346  2.1274  1.0449  2.2301
   31MOL   H243 8103   1.153   1.165   2.129  0.4297  1.0558 -0.2143
   31MOL   H244 8104   1.213   1.253   1.925  0.6322  0.4016  2.4326
   31MOL   H245 8105   1.321   1.142   1.840 -2.0709 -2.1387  1.5289
   31MOL   H246 8106   1.388   1.280   1.891 -1.8392 -0.5999 -3.4883
   31MOL   H247 8107   1.519   1.051   1.963 -2.3931  1.8692 -1.3152
   31MOL   H248 8108   1.490   0.994   2.122  1.1354 -0.0239 -0.0001
   31MOL   C249 8109   1.581   1.195   2.111  0.6097 -0.3162  0.3251
   31MOL   C250 8110   1.724   1.147   2.131 -0.4766 -0.6750 -0.7309
   31MOL   C251 8111   1.836   1.219   2.132  0.3222 -0.5585  1.1008
   31MOL   C252 8112   1.963   1.166   2.176  0.0992 -0.0276  0.8653
   31MOL   C253 8113   1.840   1.370   2.105  0.0753 -0.1263  0.1197
   31MOL   H254 8114   1.554   1.219   2.214 -0.9117 -0.5091 -0.0050
   31MOL   H255 8115   1.577   1.290   2.057 -0.4434  1.4327  3.3450
   31MOL   H256 8116   1.722   1.044   2.163  3.1710  0.3418  3.1977
   31MOL   H257 8117   1.947   1.060   2.196 -0.0758  0.0540  1.1545
   31MOL   H258 8118   1.996   1.224   2.263  0.2764 -1.1718  1.5689
   31MOL   H259 8119   2.047   1.177   2.108  1.0735 -5.4508  1.0117
   31MOL   H260 8120   1.921   1.392   2.036  0.8436 -1.5627  0.5523
   31MOL   H261 8121   1.845   1.423   2.200  1.3534  0.8686 -0.5017
   31MOL   H262 8122   1.754   1.413   2.054 -1.2563 -1.5388  1.1099
   32MOL     C1 8123   6.265   4.470   3.186 -0.7232 -0.5981  0.2830
   32MOL     C2 8124   6.162   4.576   3.141 -0.3131  0.2220  0.2001
   32MOL     C3 8125   6.159   4.706   3.177  0.1272 -0.2817 -0.1331
   32MOL     C4 8126   6.047   4.797   3.138 -0.5078  0.0194  0.2853
   32MOL     C5 8127   6.270   4.774   3.258 -0.1732  0.2380 -0.0031
   32MOL     H6 8128   6.303   4.483   3.288  1.4249  0.3706 -0.6214
   32MOL     H7 8129   6.216   4.373   3.193 -1.6607 -0.1725 -0.2727
   32MOL     H8 8130   6.083   4.540   3.076  0.2163 -1.0237  0.2300
   32MOL     H9 8131   5.996   4.840   3.224  1.1091  0.1756  1.1772
   32MOL    H10 8132   5.977   4.730   3.087  0.4178 -0.4057 -0.4501
   32MOL    H11 8133   6.080   4.868   3.063  0.4982 -1.6199 -0.8496
   32MOL    H12 8134   6.309   4.862   3.207 -0.5320  0.1693 -0.3941
   32MOL    H13 8135   6.354   4.709   3.280  1.4574  2.0982 -0.6343
   32MOL    H14 8136   6.356   4.458   3.128 -1.8339 -0.4579 -1.5042
   32MOL    C15 8137   6.199   4.824   3.387  0.3878  0.1016 -0.2155
   32MOL    C16 8138   6.302   4.854   3.500 -0.3270  0.2286 -0.0439
   32MOL    C17 8139   6.376   4.964   3.517 -0.3261  0.0587 -0.0100
   32MOL    C18 8140   6.466   4.979   3.638 -0.0323  0.1514 -0.7686
   32MOL    C19 8141   6.383   5.087   3.435  0.2451 -0.2656 -0.3811
   32MOL    H20 8142   6.124   4.755   3.427 -0.1602 -1.3160 -3.4866
   32MOL    H21 8143   6.132   4.909   3.372  1.5143  1.2559  1.2319
   32MOL    H22 8144   6.321   4.773   3.569 -0.0579  0.7230  0.4599
   32MOL    H23 8145   6.566   4.979   3.596  0.9296 -2.0356  1.3953
   32MOL    H24 8146   6.461   4.889   3.700 -1.7206  0.5398 -0.3041
   32MOL    H25 8147   6.444   5.074   3.688 -3.4636 -0.6786 -0.5576
   32MOL    H26 8148   6.345   5.071   3.334 -1.7320 -2.0544  0.5934
   32MOL    H27 8149   6.487   5.105   3.410  0.5326 -0.3100  0.7646
   32MOL    C28 8150   6.313   5.216   3.496  0.0153  0.0726 -0.2273
   32MOL    C29 8151   6.159   5.207   3.507 -0.2806 -0.1470  0.3723
   32MOL    C30 8152   6.086   5.212   3.620  0.4759 -0.1257  0.4172
   32MOL    C31 8153   5.937   5.194   3.615  0.3278 -0.1699  0.1479
   32MOL    C32 8154   6.143   5.226   3.757  0.1272  0.4246 -0.6476
   32MOL    H33 8155   6.326   5.297   3.423 -0.8501 -0.1489 -0.6380
   32MOL    H34 8156   6.352   5.254   3.590 -2.6320 -0.1127  0.9687
   32MOL    H35 8157   6.107   5.188   3.414 -1.3511  2.0997  0.4788
   32MOL    H36 8158   5.900   5.292   3.647  0.5577  0.0403 -0.2124
   32MOL    H37 8159   5.902   5.113   3.678 -1.0024 -0.5499 -1.0552
   32MOL    H38 8160   5.894   5.168   3.518  0.0492  0.6788  0.0374
   32MOL    H39 8161   6.245   5.187   3.768  0.3424  1.0502 -0.4211
   32MOL    H40 8162   6.087   5.162   3.825  3.5221 -1.6453  0.3205
   32MOL    C41 8163   6.138   5.361   3.814  0.4166  0.2601 -0.0797
   32MOL    C42 8164   6.260   5.439   3.768 -0.0783 -0.3591  0.3496
   32MOL    C43 8165   6.259   5.556   3.702 -0.1430  0.3234  0.4452
   32MOL    C44 8166   6.387   5.617   3.662  0.3568  0.0710 -0.4792
   32MOL    C45 8167   6.132   5.635   3.671  0.0895 -0.7924  0.3624
   32MOL    H46 8168   6.131   5.359   3.923  1.2271 -2.2645 -0.0423
   32MOL    H47 8169   6.045   5.406   3.779 -1.5349 -1.4703  2.6265
   32MOL    H48 8170   6.351   5.387   3.790  1.9323  2.0640 -1.8136
   32MOL    H49 8171   6.400   5.710   3.718 -1.9298  0.9631 -1.3929
   32MOL    H50 8172   6.387   5.641   3.556 -0.3483  1.1736 -0.2443
   32MOL    H51 8173   6.471   5.550   3.680  0.5583  0.4185 -0.1014
   32MOL    H52 8174   6.168   5.738   3.679 -2.9188  0.5067 -1.5873
   32MOL    H53 8175   6.059   5.616   3.750  0.7326  2.2981  1.7929
   32MOL    C54 8176   6.089   5.617   3.524 -0.3201 -0.7599  0.6608
   32MOL    C55 8177   5.975   5.714   3.488  0.2986  0.3203 -0.8967
   32MOL    C56 8178   5.841   5.695   3.487  0.6573  0.0104 -0.4943
   32MOL    C57 8179   5.747   5.803   3.442 -0.2576  0.1326  0.3546
   32MOL    C58 8180   5.768   5.580   3.553 -0.6108  0.0332  0.1006
   32MOL    H59 8181   6.057   5.514   3.510 -1.8736 -0.3920  1.4176
   32MOL    H60 8182   6.173   5.631   3.456 -0.5024  0.1536  0.6141
   32MOL    H61 8183   5.999   5.813   3.454  0.5977  0.0970 -1.3368
   32MOL    H62 8184   5.781   5.906   3.456 -0.1893 -0.0599  1.6113
   32MOL    H63 8185   5.648   5.783   3.483 -1.4650  1.0436 -1.9829
   32MOL    H64 8186   5.725   5.787   3.336 -0.3361 -0.0926  0.4056
   32MOL    H65 8187   5.827   5.489   3.544 -1.0882 -0.3825  1.0724
   32MOL    H66 8188   5.672   5.562   3.503 -0.9520  1.6347  0.1242
   32MOL    C67 8189   5.725   5.613   3.700  0.2133  0.7072  0.3191
   32MOL    C68 8190   5.637   5.507   3.756  0.4904  0.6204  0.8231
   32MOL    C69 8191   5.647   5.441   3.873 -0.1280 -1.0976 -0.0227
   32MOL    C70 8192   5.553   5.344   3.926 -0.0967  0.1826 -0.5055
   32MOL    C71 8193   5.776   5.448   3.955 -0.1762 -0.3846  0.3733
   32MOL    H72 8194   5.672   5.708   3.711  1.3361  1.4058 -0.2094
   32MOL    H73 8195   5.820   5.628   3.751 -0.1068  2.4022  0.4491
   32MOL    H74 8196   5.549   5.485   3.697  1.0127 -0.5033  0.4567
   32MOL    H75 8197   5.514   5.379   4.022  0.9484 -1.0225  0.3834
   32MOL    H76 8198   5.584   5.240   3.932  0.5179  0.3700 -0.4429
   32MOL    H77 8199   5.470   5.332   3.857  0.3545 -1.7315 -0.7335
   32MOL    H78 8200   5.857   5.441   3.882 -0.7845 -0.3987 -0.3151
   32MOL    H79 8201   5.792   5.357   4.012 -1.4317 -0.2611  0.9430
   32MOL    C80 8202   5.772   5.571   4.043 -0.3040 -0.2869 -0.4448
   32MOL    C81 8203   5.900   5.606   4.124 -0.1055 -0.2225 -0.0620
   32MOL    C82 8204   5.922   5.632   4.254  0.0652 -0.2268  0.1958
   32MOL    C83 8205   5.807   5.627   4.356  0.3100  0.1503 -0.0263
   32MOL    C84 8206   6.061   5.657   4.315  0.2915 -0.1491 -0.4377
   32MOL    H85 8207   5.689   5.570   4.114  1.3129  0.0316  1.4853
   32MOL    H86 8208   5.755   5.656   3.976 -3.2064 -0.5730 -0.1425
   32MOL    H87 8209   5.982   5.619   4.055 -0.0842 -1.1482 -0.2150
   32MOL    H88 8210   5.706   5.618   4.314 -0.4410  2.5263  1.1882
   32MOL    H89 8211   5.798   5.724   4.404 -1.6219 -1.0174  2.0687
   32MOL    H90 8212   5.824   5.566   4.444 -2.3624 -0.2246  0.2891
   32MOL    H91 8213   6.075   5.576   4.386 -0.4139  0.4971  0.4581
   32MOL    H92 8214   6.057   5.745   4.379  0.3583 -1.5297  1.5088
   32MOL    C93 8215   6.187   5.664   4.223 -0.1158 -0.2673 -0.0470
   32MOL    C94 8216   6.315   5.685   4.300  0.4279 -0.2261  0.2386
   32MOL    C95 8217   6.396   5.791   4.301 -1.2272  0.6200  0.4861
   32MOL    C96 8218   6.525   5.789   4.380 -0.0934 -0.1762  0.2203
   32MOL    C97 8219   6.364   5.923   4.233  0.4136  0.6070  0.1375
   32MOL    H98 8220   6.171   5.735   4.143  0.6321  1.0624  0.9550
   32MOL    H99 8221   6.197   5.565   4.179  2.0292 -0.1030  0.0299
   32MOL   H100 8222   6.348   5.605   4.364  1.7533 -0.3540 -0.5919
   32MOL   H101 8223   6.605   5.774   4.307 -0.6680  2.4380 -0.9985
   32MOL   H102 8224   6.545   5.878   4.440 -1.5111 -0.2750  0.8456
   32MOL   H103 8225   6.521   5.706   4.451 -2.8401  0.3202  0.6855
   32MOL   H104 8226   6.366   5.990   4.319 -0.6658 -1.9423  2.2329
   32MOL   H105 8227   6.262   5.918   4.194  0.1802 -0.3958  0.8503
   32MOL   C106 8228   6.470   5.968   4.131  0.3778 -0.3590  0.9399
   32MOL   C107 8229   6.456   6.114   4.114  0.4793 -0.0558  0.2517
   32MOL   C108 8230   6.520   6.205   4.186  0.1675 -0.5238 -0.9448
   32MOL   C109 8231   6.623   6.179   4.290 -0.0252 -0.2692 -1.0239
   32MOL   C110 8232   6.507   6.357   4.150  0.3156  0.3003 -0.2987
   32MOL   H111 8233   6.451   5.920   4.035 -0.3240  0.0152  0.8887
   32MOL   H112 8234   6.574   5.941   4.151  0.7021  1.2075  1.4844
   32MOL   H113 8235   6.382   6.147   4.042 -0.3769  0.4156  1.3458
   32MOL   H114 8236   6.615   6.076   4.325 -0.9028  0.3167  0.5302
   32MOL   H115 8237   6.713   6.170   4.229  0.7954  1.5859 -0.1080
   32MOL   H116 8238   6.638   6.241   4.378  0.5736 -1.5843 -0.1823
   32MOL   H117 8239   6.517   6.376   4.043  0.1010 -2.4617 -0.8606
   32MOL   H118 8240   6.592   6.410   4.194  0.8707 -1.4607  0.8128
   32MOL   C119 8241   6.377   6.432   4.204 -0.4161 -0.8362  0.8571
   32MOL   C120 8242   6.370   6.576   4.165  0.1455  0.3960 -0.2648
   32MOL   C121 8243   6.259   6.648   4.186  0.1766  0.7578  0.0155
   32MOL   C122 8244   6.258   6.797   4.168  0.6897 -0.6166  0.5342
   32MOL   C123 8245   6.135   6.595   4.255 -0.3662  0.8415 -0.3515
   32MOL   H124 8246   6.366   6.419   4.312  1.5145  0.6516  1.2517
   32MOL   H125 8247   6.299   6.388   4.142 -0.0098 -0.8210  0.3397
   32MOL   H126 8248   6.457   6.632   4.134  0.4443  1.1804  1.8994
   32MOL   H127 8249   6.240   6.849   4.262 -0.5247 -0.0002 -0.0374
   32MOL   H128 8250   6.190   6.831   4.089  0.3130 -0.5696  0.8784
   32MOL   H129 8251   6.358   6.837   4.152  2.2296 -4.6048 -0.4261
   32MOL   H130 8252   6.109   6.649   4.346 -0.3813  0.5895 -0.2057
   32MOL   H131 8253   6.159   6.493   4.282 -1.4315  0.2863 -1.4370
   32MOL   C132 8254   6.014   6.594   4.157 -0.1872  1.0094 -0.2635
   32MOL   C133 8255   6.014   6.463   4.084  0.3990 -1.0733  0.8526
   32MOL   C134 8256   6.057   6.433   3.956  0.2752 -0.0194 -0.7802
   32MOL   C135 8257   6.060   6.289   3.909 -0.1372 -0.1960  0.0340
   32MOL   C136 8258   6.113   6.536   3.860  0.7655 -0.0058 -1.1169
   32MOL   H137 8259   6.025   6.683   4.095 -0.9959  0.2041 -1.5866
   32MOL   H138 8260   5.915   6.615   4.198 -0.1677 -1.0907  0.9657
   32MOL   H139 8261   5.987   6.388   4.157  0.1440 -0.4499  1.3956
   32MOL   H140 8262   6.159   6.247   3.897  0.2370  0.7670 -0.3521
   32MOL   H141 8263   6.019   6.284   3.808 -2.0099 -2.3612  0.8783
   32MOL   H142 8264   6.007   6.219   3.973 -0.0192 -0.2972  0.0186
   32MOL   H143 8265   6.127   6.628   3.917  0.0976 -0.4668 -0.2097
   32MOL   H144 8266   6.029   6.562   3.795 -1.1850  1.4826  1.8686
   32MOL   C145 8267   6.248   6.493   3.804 -0.0168 -0.6437  0.4044
   32MOL   C146 8268   6.311   6.584   3.693 -0.1624  0.3600 -0.3410
   32MOL   C147 8269   6.445   6.594   3.672 -0.6270 -0.1625 -0.9167
   32MOL   C148 8270   6.497   6.688   3.567  0.3019  0.4767 -0.1444
   32MOL   C149 8271   6.554   6.515   3.751 -0.4811  0.8473  0.0077
   32MOL   H150 8272   6.239   6.397   3.753 -2.6765 -0.2014 -0.0412
   32MOL   H151 8273   6.323   6.491   3.883  0.7864 -2.8576 -0.3813
   32MOL   H152 8274   6.249   6.651   3.636 -0.1757  0.9339  0.3462
   32MOL   H153 8275   6.418   6.729   3.505 -0.3468  0.2304  0.5059
   32MOL   H154 8276   6.565   6.632   3.503  2.3025  0.0597  2.2618
   32MOL   H155 8277   6.545   6.774   3.614 -0.2743  0.7432 -0.0455
   32MOL   H156 8278   6.545   6.509   3.859 -1.3928  1.6179 -0.0240
   32MOL   H157 8279   6.640   6.582   3.743  0.7390 -0.2523  3.1737
   32MOL   C158 8280   6.587   6.379   3.685 -0.1550  0.5829  0.5477
   32MOL   C159 8281   6.702   6.302   3.756 -0.5652  0.1215 -0.4066
   32MOL   C160 8282   6.829   6.300   3.712  0.6081  0.6526 -0.4665
   32MOL   C161 8283   6.880   6.380   3.601  0.3666 -0.0376 -0.5692
   32MOL   C162 8284   6.930   6.208   3.783 -0.6902  0.1042  0.1375
   32MOL   H163 8285   6.606   6.400   3.580 -0.4596 -0.8372  0.2077
   32MOL   H164 8286   6.497   6.317   3.692  0.0723  0.1217 -0.5918
   32MOL   H165 8287   6.665   6.253   3.845  2.1009 -0.4399  0.4246
   32MOL   H166 8288   6.984   6.404   3.628 -0.1506  1.5068  0.1249
   32MOL   H167 8289   6.824   6.473   3.608 -0.0689 -0.3938  0.6840
   32MOL   H168 8290   6.874   6.350   3.497  2.8341  1.1593 -1.1082
   32MOL   H169 8291   6.880   6.141   3.852 -2.3250 -0.3456 -1.4446
   32MOL   H170 8292   6.987   6.272   3.849  1.0812 -0.2123 -1.0468
   32MOL   C171 8293   7.032   6.137   3.689  0.0895 -0.1422  0.0110
   32MOL   C172 8294   7.122   6.060   3.782 -0.5192 -0.0773  0.0661
   32MOL   C173 8295   7.256   6.073   3.815  0.7957 -0.8644  0.3213
   32MOL   C174 8296   7.349   6.182   3.769  0.3818 -0.0379 -0.1407
   32MOL   C175 8297   7.321   5.974   3.913  0.2320  0.2230  0.3479
   32MOL   H176 8298   7.095   6.210   3.638 -1.0160  1.0987  0.3965
   32MOL   H177 8299   6.976   6.072   3.622 -1.1281  0.8109  0.0862
   32MOL   H178 8300   7.072   5.976   3.829  0.3026  0.4658  1.9573
   32MOL   H179 8301   7.455   6.158   3.780  0.9590  0.6578 -3.5941
   32MOL   H180 8302   7.324   6.271   3.826  2.2774  0.8892 -0.7166
   32MOL   H181 8303   7.338   6.220   3.667 -0.6352  0.5205  0.1610
   32MOL   H182 8304   7.427   5.965   3.887  1.0682 -0.4316  3.6457
   32MOL   H183 8305   7.281   5.875   3.891  1.7600  0.0993 -2.0555
   32MOL   C184 8306   7.316   6.017   4.065 -0.1893 -0.3154 -0.3611
   32MOL   C185 8307   7.348   5.912   4.173 -0.3444  0.2072 -0.2257
   32MOL   C186 8308   7.405   5.932   4.292  0.2110  0.4685  1.1434
   32MOL   C187 8309   7.425   5.809   4.383 -0.6475 -0.1576 -0.6121
   32MOL   C188 8310   7.450   6.071   4.341 -0.0803  1.0734  0.2002
   32MOL   H189 8311   7.214   6.045   4.089  0.3542  0.8362  0.6997
   32MOL   H190 8312   7.369   6.111   4.078  0.2544 -0.8280  1.9412
   32MOL   H191 8313   7.320   5.812   4.143 -3.0179  0.3082  1.7184
   32MOL   H192 8314   7.364   5.729   4.342  0.9529 -1.3602 -0.6932
   32MOL   H193 8315   7.381   5.838   4.479 -1.4239 -0.9512 -0.7319
   32MOL   H194 8316   7.531   5.782   4.381 -0.5013  0.4925 -2.1242
   32MOL   H195 8317   7.467   6.072   4.448  0.8878  2.1278  0.0482
   32MOL   H196 8318   7.369   6.142   4.325  0.2277  1.0256 -1.7008
   32MOL   C197 8319   7.579   6.113   4.269  0.1041 -0.0691 -0.1235
   32MOL   C198 8320   7.697   6.034   4.330 -0.2815  0.1307  0.8958
   32MOL   C199 8321   7.777   5.949   4.263 -0.0334 -0.5807  0.1495
   32MOL   C200 8322   0.008   5.880   4.336 -0.3685  0.9857 -0.3563
   32MOL   C201 8323   7.764   5.911   4.119 -0.0488  0.1871  0.3279
   32MOL   H202 8324   7.603   6.215   4.298  3.5580 -0.1975 -2.3579
   32MOL   H203 8325   7.573   6.115   4.160  0.7245  3.2755 -0.1573
   32MOL   H204 8326   7.716   6.048   4.435 -0.0583  0.9360  0.7528
   32MOL   H205 8327   0.105   5.899   4.288  0.0668  0.6715  0.3983
   32MOL   H206 8328   0.004   5.772   4.323 -3.1143  0.9451  0.5121
   32MOL   H207 8329   7.874   5.907   4.440 -1.6934 -1.4784  0.1479
   32MOL   H208 8330   7.657   5.905   4.100  0.2980 -2.8501 -0.8487
   32MOL   H209 8331   7.814   5.819   4.090 -2.1035 -1.2299  1.2353
   32MOL   C210 8332   7.832   6.020   4.027  0.7395  0.7793  0.1998
   32MOL   C211 8333   7.764   6.017   3.888 -0.0010  0.4202 -0.4820
   32MOL   C212 8334   7.800   6.091   3.783 -0.0567  0.1883  0.2232
   32MOL   C213 8335   7.742   6.069   3.641 -0.0892  0.2644  0.2177
   32MOL   C214 8336   0.036   6.187   3.790  0.0008 -0.0565 -0.1643
   32MOL   H215 8337   0.061   6.010   4.031  0.9471  2.1134 -1.4030
   32MOL   H216 8338   7.820   6.120   4.068 -0.4795  1.4181 -1.6160
   32MOL   H217 8339   7.683   5.946   3.881 -1.6098  2.2142 -0.6232
   32MOL   H218 8340   7.758   6.145   3.564 -0.3353 -0.4929 -0.5878
   32MOL   H219 8341   7.634   6.052   3.632  0.1378 -0.0722 -2.0468
   32MOL   H220 8342   7.782   5.977   3.601  0.3547  0.1912  0.8286
   32MOL   H221 8343   0.104   6.178   3.705 -0.4862 -2.0669 -0.3600
   32MOL   H222 8344   0.095   6.169   3.880  1.8237  1.3734 -1.0411
   32MOL   C223 8345   0.006   6.336   3.783  0.5368  0.0806  0.3112
   32MOL   C224 8346   7.864   6.410   3.915  0.7136 -0.4059 -0.0133
   32MOL   C225 8347   7.747   6.444   3.971 -0.4277 -0.3156 -0.0855
   32MOL   C226 8348   7.742   6.515   4.107 -0.5672 -0.9851 -0.7490
   32MOL   C227 8349   7.619   6.415   3.894 -0.0868 -0.1060  0.5882
   32MOL   H228 8350   7.811   6.356   3.705  1.7176  0.8564 -0.6311
   32MOL   H229 8351   0.093   6.387   3.742  1.8967 -2.8365 -0.5817
   32MOL   H230 8352   0.077   6.427   3.969 -0.9742 -0.1878  2.8936
   32MOL   H231 8353   7.842   6.511   4.151  0.1127 -3.4427 -2.3955
   32MOL   H232 8354   7.675   6.459   4.173  2.2721  0.4634  3.5483
   32MOL   H233 8355   7.719   6.621   4.108  1.6707 -0.4872 -0.0893
   32MOL   H234 8356   7.546   6.367   3.958  2.4876  0.7295  4.2667
   32MOL   H235 8357   7.633   6.336   3.820 -0.7711 -1.1086  1.5239
   32MOL   C236 8358   7.544   6.543   3.850  0.7121 -0.1473  0.4055
   32MOL   C237 8359   7.437   6.517   3.749 -0.6103 -0.4579 -0.1686
   32MOL   C238 8360   7.449   6.520   3.611  0.1641  0.6813  0.2140
   32MOL   C239 8361   7.324   6.517   3.528 -0.7135 -0.0826  0.3589
   32MOL   C240 8362   7.575   6.564   3.534  0.1151 -0.1157 -0.1653
   32MOL   H241 8363   7.608   6.615   3.798  0.0813 -0.7862 -1.2862
   32MOL   H242 8364   7.507   6.592   3.940  0.3948  1.0344 -0.3641
   32MOL   H243 8365   7.337   6.495   3.785  0.3849 -1.7259  1.8808
   32MOL   H244 8366   7.351   6.493   3.425 -1.6360 -0.3464  0.1703
   32MOL   H245 8367   7.256   6.602   3.538 -0.2755  0.5421 -1.7762
   32MOL   H246 8368   7.281   6.422   3.558  0.5442 -0.7150  0.1824
   32MOL   H247 8369   7.574   6.512   3.439 -0.0521  0.8360 -0.6883
   32MOL   H248 8370   7.669   6.534   3.579  0.0427  0.3650  0.3232
   32MOL   C249 8371   7.566   6.718   3.505  0.6375  0.0920  0.0900
   32MOL   C250 8372   7.659   6.763   3.402 -0.4665 -0.2974  0.2436
   32MOL   C251 8373   7.695   6.892   3.379  0.8619 -1.0152 -0.0695
   32MOL   C252 8374   7.785   6.945   3.269  0.0369  0.2169  0.1726
   32MOL   C253 8375   7.640   7.009   3.462  0.3382 -0.0488 -0.2595
   32MOL   H254 8376   7.592   6.768   3.598  1.8718  2.3762 -1.4251
   32MOL   H255 8377   7.470   6.744   3.460 -0.5895 -1.0511  1.9531
   32MOL   H256 8378   7.696   6.684   3.339 -0.6743 -0.1485 -0.0667
   32MOL   H257 8379   7.724   6.991   3.191 -1.7624  1.3783  2.2062
   32MOL   H258 8380   7.840   6.859   3.232  3.1252  0.7536  3.2691
   32MOL   H259 8381   7.856   7.020   3.304 -0.4038  0.2964  0.9226
   32MOL   H260 8382   7.717   7.048   3.528 -0.1930  1.8740 -0.7268
   32MOL   H261 8383   7.566   6.966   3.531 -0.0292 -0.1078 -0.6877
   32MOL   H262 8384   7.593   7.077   3.391  1.3193 -0.1778 -1.0377
   33MOL     C1 8385   2.365   4.965   6.265 -0.2247 -0.1121 -0.2137
   33MOL     C2 8386   2.285   4.966   6.135 -0.6137 -0.1711  0.0164
   33MOL     C3 8387   2.256   4.850   6.072  0.1915 -0.0878 -0.3951
   33MOL     C4 8388   2.181   4.858   5.935 -0.5642  0.0447 -0.3474
   33MOL     C5 8389   2.292   4.709   6.120  0.1232 -0.1276 -0.5725
   33MOL     H6 8390   2.401   5.065   6.290  0.9049 -0.4351 -0.4929
   33MOL     H7 8391   2.292   4.953   6.345 -0.2656 -1.6871 -0.4714
   33MOL     H8 8392   2.234   5.056   6.102 -0.3892  0.0732  0.3284
   33MOL     H9 8393   2.083   4.813   5.946 -0.2421 -0.9495 -1.4470
   33MOL    H10 8394   2.230   4.809   5.850 -0.7657 -2.0353  0.7146
   33MOL    H11 8395   2.170   4.962   5.903 -2.8813 -0.0116  0.1682
   33MOL    H12 8396   2.397   4.706   6.148 -0.1309  1.4825  0.5978
   33MOL    H13 8397   2.292   4.645   6.031  0.7068  0.9757 -1.3741
   33MOL    H14 8398   2.453   4.901   6.277  0.1455  0.4057 -0.1477
   33MOL    C15 8399   2.208   4.649   6.231  0.0511 -0.6267  0.5551
   33MOL    C16 8400   2.255   4.506   6.259  0.0953  0.0786 -1.0076
   33MOL    C17 8401   2.308   4.454   6.372  0.1943 -0.5730 -0.0500
   33MOL    C18 8402   2.337   4.309   6.385  0.2490 -0.0930  0.5288
   33MOL    C19 8403   2.327   4.538   6.494 -0.2635 -0.4772 -0.1352
   33MOL    H20 8404   2.101   4.641   6.209  0.2740 -0.1706 -0.7481
   33MOL    H21 8405   2.209   4.702   6.326  2.8726 -0.0725  0.2481
   33MOL    H22 8406   2.238   4.446   6.171  0.5863  2.1799 -2.5947
   33MOL    H23 8407   2.428   4.296   6.445  0.4271 -0.3852  0.2002
   33MOL    H24 8408   2.372   4.271   6.289  1.3871 -2.7142  1.9132
   33MOL    H25 8409   2.257   4.240   6.412  0.5299 -0.0825  1.4076
   33MOL    H26 8410   2.359   4.639   6.469 -2.5811  0.5917  1.1223
   33MOL    H27 8411   2.406   4.503   6.561  1.3365  2.1862 -0.5426
   33MOL    C28 8412   2.196   4.557   6.582  0.1420 -0.5686  0.1300
   33MOL    C29 8413   2.212   4.681   6.667  0.1401 -0.0456 -0.3651
   33MOL    C30 8414   2.145   4.799   6.661 -0.2058  0.5271  0.4845
   33MOL    C31 8415   2.184   4.916   6.755 -0.2511 -0.0970 -0.3442
   33MOL    C32 8416   2.030   4.829   6.566  1.2133 -0.0114 -0.1538
   33MOL    H33 8417   2.186   4.478   6.656 -1.1784 -0.0441  0.5229
   33MOL    H34 8418   2.104   4.566   6.523  1.1876 -2.0686 -1.7697
   33MOL    H35 8419   2.288   4.660   6.741 -2.8422 -1.3102  2.4153
   33MOL    H36 8420   2.215   5.000   6.693  0.8977 -1.0775 -1.1164
   33MOL    H37 8421   2.260   4.883   6.825  0.4340 -0.0586 -1.0607
   33MOL    H38 8422   2.102   4.951   6.818  1.3141 -0.3411  1.8624
   33MOL    H39 8423   2.048   4.773   6.474  2.2042  0.3797 -0.1960
   33MOL    H40 8424   2.020   4.935   6.545 -3.0356  0.2310  2.4893
   33MOL    C41 8425   1.894   4.781   6.620  0.7066  0.0533 -0.0058
   33MOL    C42 8426   1.778   4.835   6.537 -0.2064  0.3321  0.2550
   33MOL    C43 8427   1.725   4.770   6.432 -0.2742  0.0313  0.5051
   33MOL    C44 8428   1.591   4.830   6.373 -0.5058 -0.4639  0.8142
   33MOL    C45 8429   1.765   4.631   6.375  0.4074 -0.3223 -0.2838
   33MOL    H46 8430   1.880   4.830   6.717 -0.9267  0.8051 -0.6049
   33MOL    H47 8431   1.888   4.673   6.635 -0.1122  0.2538  1.2005
   33MOL    H48 8432   1.743   4.932   6.568  1.2515 -0.2666  4.1169
   33MOL    H49 8433   1.508   4.763   6.393 -0.2352 -0.6679  1.2623
   33MOL    H50 8434   1.610   4.844   6.266 -1.6122  0.2595  0.7052
   33MOL    H51 8435   1.563   4.926   6.416 -1.3973 -0.2898 -0.1367
   33MOL    H52 8436   1.679   4.564   6.386 -0.1207  0.4308  0.2197
   33MOL    H53 8437   1.845   4.587   6.435  1.4663  1.5856 -0.2564
   33MOL    C54 8438   1.799   4.629   6.222  0.0643 -0.4039  0.2787
   33MOL    C55 8439   1.847   4.489   6.185  0.2925  0.2106 -0.3179
   33MOL    C56 8440   1.799   4.416   6.080 -0.2530 -0.2154  1.2066
   33MOL    C57 8441   1.864   4.279   6.059  0.4755  0.3022 -0.4266
   33MOL    C58 8442   1.691   4.459   5.980  0.0503 -0.2397  0.4287
   33MOL    H59 8443   1.884   4.689   6.190  0.7458 -0.0294  2.6570
   33MOL    H60 8444   1.713   4.655   6.161  0.0054 -2.3136 -0.5032
   33MOL    H61 8445   1.925   4.445   6.246  0.2249  1.7526  0.9157
   33MOL    H62 8446   1.907   4.289   5.960 -1.0956  0.3390 -1.1152
   33MOL    H63 8447   1.780   4.209   6.057  1.9873 -1.5118 -1.1891
   33MOL    H64 8448   1.936   4.243   6.133  1.0310  1.2946 -0.4795
   33MOL    H65 8449   1.740   4.435   5.885 -1.4586  1.6517 -0.8539
   33MOL    H66 8450   1.672   4.566   5.988 -1.3566 -0.6734  3.7228
   33MOL    C67 8451   1.555   4.382   6.001  0.4076  0.0886 -0.7354
   33MOL    C68 8452   1.495   4.413   6.139 -0.8168  0.2648  0.1091
   33MOL    C69 8453   1.389   4.495   6.155 -0.0717 -0.1254  0.0480
   33MOL    C70 8454   1.346   4.538   6.294 -0.5864 -0.8296 -0.5659
   33MOL    C71 8455   1.306   4.556   6.046 -0.4438 -0.3257  0.8925
   33MOL    H72 8456   1.551   4.274   5.986 -0.9458 -0.1424  1.1415
   33MOL    H73 8457   1.496   4.416   5.916 -0.9639 -0.4899 -0.0301
   33MOL    H74 8458   1.546   4.375   6.226 -0.2565 -2.1271 -1.1951
   33MOL    H75 8459   1.430   4.528   6.363  0.3495 -4.0710 -2.0586
   33MOL    H76 8460   1.252   4.489   6.319 -0.6410 -0.3608  0.1701
   33MOL    H77 8461   1.325   4.645   6.293 -0.5487 -0.7504  2.2323
   33MOL    H78 8462   1.371   4.588   5.964  1.4967 -3.1457  1.2473
   33MOL    H79 8463   1.271   4.649   6.089  0.2270  0.1415  0.4467
   33MOL    C80 8464   1.201   4.446   6.016 -0.6827  0.0567  0.2934
   33MOL    C81 8465   1.109   4.490   5.899 -0.5725 -0.7069 -0.6243
   33MOL    C82 8466   1.012   4.423   5.833 -0.3545  0.5679 -0.1282
   33MOL    C83 8467   0.972   4.288   5.863 -0.2787 -0.4799 -0.1326
   33MOL    C84 8468   0.944   4.487   5.722  0.3649  0.5592 -0.3630
   33MOL    H85 8469   1.136   4.422   6.100  0.6242 -0.8229  1.0606
   33MOL    H86 8470   1.242   4.351   5.982 -1.0564 -0.3739  1.0375
   33MOL    H87 8471   1.130   4.593   5.875 -2.9559  0.0878  0.5583
   33MOL    H88 8472   0.869   4.257   5.850 -0.8711  0.8045  1.3545
   33MOL    H89 8473   1.004   4.259   5.963  0.7833  1.9602  0.2749
   33MOL    H90 8474   1.030   4.211   5.812 -0.0819 -1.4333  1.5011
   33MOL    H91 8475   0.933   4.428   5.631  2.1660 -1.7670  0.8911
   33MOL    H92 8476   1.002   4.576   5.695 -1.2854  1.5953 -0.6070
   33MOL    C93 8477   0.812   4.552   5.758 -0.1234  0.1230 -0.8037
   33MOL    C94 8478   0.741   4.624   5.641 -0.1839  0.0512  0.3924
   33MOL    C95 8479   0.611   4.661   5.639  0.2670 -0.2712  0.0064
   33MOL    C96 8480   0.539   4.733   5.527 -0.1010  0.3215 -0.0881
   33MOL    C97 8481   0.521   4.644   5.756  0.1391  0.6905 -1.0668
   33MOL    H98 8482   0.819   4.620   5.843  1.5194  2.1536 -2.5200
   33MOL    H99 8483   0.746   4.478   5.804  0.6943  0.3334  0.7397
   33MOL   H100 8484   0.796   4.634   5.548  0.6350 -1.4025  0.7071
   33MOL   H101 8485   0.455   4.680   5.484 -0.4856 -0.7233  1.8926
   33MOL   H102 8486   0.514   4.832   5.565 -1.8439 -0.7705  1.7114
   33MOL   H103 8487   0.610   4.752   5.446 -0.0267  0.1582 -0.0626
   33MOL   H104 8488   0.450   4.725   5.773 -2.0626 -1.3997 -0.0148
   33MOL   H105 8489   0.583   4.641   5.846 -0.8334 -0.3420 -0.4238
   33MOL   C106 8490   0.442   4.509   5.746  0.9586 -0.0719  0.4650
   33MOL   C107 8491   0.334   4.484   5.849 -0.2461 -0.2669 -0.4541
   33MOL   C108 8492   0.323   4.392   5.943 -0.7510 -0.3710 -0.2683
   33MOL   C109 8493   0.429   4.285   5.954 -0.0531 -0.4523 -0.4380
   33MOL   C110 8494   0.204   4.380   6.034  0.3232 -0.6404 -0.3847
   33MOL   H111 8495   0.523   4.437   5.760  0.9454 -0.4764 -1.3754
   33MOL   H112 8496   0.403   4.486   5.647 -0.9519  2.5422  0.5820
   33MOL   H113 8497   0.261   4.563   5.840  0.8150  0.7707 -0.0435
   33MOL   H114 8498   0.461   4.235   5.863  1.2119 -2.2480  0.9581
   33MOL   H115 8499   0.516   4.334   5.999  1.0887 -3.8172  1.1993
   33MOL   H116 8500   0.407   4.202   6.021  2.4159 -1.6085 -0.9669
   33MOL   H117 8501   0.165   4.283   6.004  0.8052 -1.3907  1.3946
   33MOL   H118 8502   0.138   4.465   6.014  1.3407  0.5865  1.3572
   33MOL   C119 8503   0.252   4.400   6.177  0.4791 -0.5299  0.7366
   33MOL   C120 8504   0.160   4.336   6.283 -0.2513  0.3537 -0.9394
   33MOL   C121 8505   0.103   4.392   6.398 -0.1328  0.2555 -0.1878
   33MOL   C122 8506   0.019   4.298   6.492 -0.4417 -0.3491  0.2581
   33MOL   C123 8507   0.119   4.534   6.446  0.0047 -0.5373 -0.4834
   33MOL   H124 8508   0.261   4.504   6.208  0.8923 -0.6559  1.0445
   33MOL   H125 8509   0.349   4.356   6.201  2.1067  1.9346 -1.1767
   33MOL   H126 8510   0.147   4.230   6.267 -0.3354  0.2003  0.0878
   33MOL   H127 8511   0.058   4.282   6.592  0.0394 -0.3602  0.0704
   33MOL   H128 8512   0.008   4.196   6.455  1.3146 -1.2053  2.0318
   33MOL   H129 8513   7.801   4.347   6.498 -0.3122 -0.3037  2.3519
   33MOL   H130 8514   0.018   4.574   6.458 -1.0689 -3.2072 -0.3458
   33MOL   H131 8515   0.171   4.587   6.365 -0.4712  0.7782  0.0606
   33MOL   C132 8516   0.193   4.541   6.581  0.0679  0.5573  0.5628
   33MOL   C133 8517   0.212   4.682   6.637  0.1003 -0.6658  0.5413
   33MOL   C134 8518   0.155   4.727   6.750  0.2543 -0.4729 -0.2859
   33MOL   C135 8519   0.154   4.871   6.793  0.2118 -0.5334 -0.5917
   33MOL   C136 8520   0.076   4.635   6.845 -0.0243  0.2861  0.5754
   33MOL   H137 8521   0.293   4.498   6.581 -0.5575 -0.9417 -0.4949
   33MOL   H138 8522   0.142   4.479   6.655  0.4666 -0.5637 -0.0868
   33MOL   H139 8523   0.263   4.755   6.577  0.4102 -2.1061 -0.9899
   33MOL   H140 8524   0.203   4.936   6.721 -0.1675 -1.9001 -2.1205
   33MOL   H141 8525   0.215   4.887   6.882 -0.0193  1.6245 -0.7810
   33MOL   H142 8526   0.060   4.922   6.817  1.6078  1.0444  1.7389
   33MOL   H143 8527   0.013   4.563   6.792  0.7136  0.9780 -1.2764
   33MOL   H144 8528   7.870   4.693   6.880  0.2660  1.7834 -1.1186
   33MOL   C145 8529   0.159   4.568   6.962 -0.0571 -0.6652  0.0947
   33MOL   C146 8530   0.075   4.484   7.056 -0.5137 -0.5594  0.4956
   33MOL   C147 8531   0.061   4.501   7.192 -0.0880 -0.7694  0.5259
   33MOL   C148 8532   7.853   4.403   7.262  0.1867  0.0146 -1.2303
   33MOL   C149 8533   0.118   4.610   7.278 -0.1056 -0.0110  0.0773
   33MOL   H150 8534   0.224   4.641   7.011  0.9711 -1.0095 -0.7469
   33MOL   H151 8535   0.219   4.492   6.914 -1.3313 -2.4214  1.2366
   33MOL   H152 8536   0.016   4.407   7.010  0.6690  0.1159 -2.2316
   33MOL   H153 8537   7.801   4.451   7.345 -1.9425  0.8969 -3.0117
   33MOL   H154 8538   0.034   4.319   7.296 -0.0005  0.7360  0.9713
   33MOL   H155 8539   7.773   4.361   7.200 -0.8784  0.3816 -0.1283
   33MOL   H156 8540   0.044   4.668   7.334  1.0085 -0.7911  2.4449
   33MOL   H157 8541   0.165   4.685   7.214 -1.1837  1.4877  1.0131
   33MOL   C158 8542   0.228   4.562   7.372 -0.1259  0.3439  1.2215
   33MOL   C159 8543   0.296   4.674   7.455  0.1802 -0.1109  0.7714
   33MOL   C160 8544   0.370   4.654   7.564  0.1452  0.5881  0.0880
   33MOL   C161 8545   0.394   4.518   7.618  0.8641 -0.5346  0.3806
   33MOL   C162 8546   0.413   4.769   7.644  0.0960  0.8662 -0.4273
   33MOL   H163 8547   0.308   4.518   7.312 -2.2710 -1.3881 -0.4552
   33MOL   H164 8548   0.195   4.481   7.438  1.7315  1.0504  3.0680
   33MOL   H165 8549   0.273   4.774   7.422  0.2779 -0.5746 -0.7425
   33MOL   H166 8550   0.311   4.473   7.671 -0.7475 -0.7104 -2.2171
   33MOL   H167 8551   0.487   4.511   7.675  3.0586 -1.0936 -3.1557
   33MOL   H168 8552   0.392   4.447   7.536 -1.1015 -2.0768  1.7468
   33MOL   H169 8553   0.394   4.862   7.589 -1.7347 -0.7390 -2.6259
   33MOL   H170 8554   0.519   4.759   7.666 -0.2691  0.3829  1.1676
   33MOL   C171 8555   0.345   4.770   7.780  0.0465  0.5094 -0.9776
   33MOL   C172 8556   0.359   4.913   7.840 -0.0497 -0.3627 -0.0915
   33MOL   C173 8557   0.446   4.947   0.052  0.2446  0.0031 -0.4998
   33MOL   C174 8558   0.546   4.852   0.117 -0.6512  0.0086  0.1482
   33MOL   C175 8559   0.447   5.083   0.118  0.4903  0.0870  0.8529
   33MOL   H176 8560   0.383   4.696   7.851 -3.8310 -1.0914 -0.4862
   33MOL   H177 8561   0.238   4.762   7.764  0.0799  0.4265 -1.1602
   33MOL   H178 8562   0.295   4.990   7.800 -0.2186 -0.4701 -0.0325
   33MOL   H179 8563   0.503   4.793   0.197 -1.2175  0.0429 -0.1308
   33MOL   H180 8564   0.634   4.906   0.153 -0.4983 -0.3509  0.3053
   33MOL   H181 8565   0.580   4.779   0.044 -0.8474 -0.3250  0.3880
   33MOL   H182 8566   0.368   5.138   0.067  1.8522 -0.1948 -1.6143
   33MOL   H183 8567   0.536   5.138   0.087  0.0217 -0.1790 -1.0405
   33MOL   C184 8568   0.431   5.096   0.271  0.5402  0.4038 -0.4159
   33MOL   C185 8569   0.420   5.238   0.326  0.5291  0.3873 -0.2652
   33MOL   C186 8570   0.482   5.295   0.429 -0.3534 -0.0677  0.2168
   33MOL   C187 8571   0.442   5.438   0.462 -0.0452  0.6501  0.1016
   33MOL   C188 8572   0.599   5.240   0.505 -0.3230 -0.6572 -0.0456
   33MOL   H189 8573   0.506   5.028   0.311 -0.1952 -0.4187 -0.4097
   33MOL   H190 8574   0.336   5.059   0.309  0.1136  1.6205 -0.2962
   33MOL   H191 8575   0.342   5.294   0.276  0.1925  0.6944  0.5897
   33MOL   H192 8576   0.377   5.445   0.549 -0.8003  2.1453 -0.5510
   33MOL   H193 8577   0.379   5.483   0.385  0.2120  3.5075  1.5380
   33MOL   H194 8578   0.523   5.510   0.466  0.2341  0.2224  2.5276
   33MOL   H195 8579   0.613   5.132   0.495  0.2381 -0.6887  0.9498
   33MOL   H196 8580   0.597   5.259   0.612 -1.5384  0.8346 -0.3277
   33MOL   C197 8581   0.729   5.327   0.464 -0.6628 -0.3218  0.4563
   33MOL   C198 8582   0.846   5.286   0.546 -0.0684  1.2869 -0.5319
   33MOL   C199 8583   0.964   5.229   0.510  0.5207  0.7274  0.0060
   33MOL   C200 8584   1.075   5.195   0.605  0.0685 -0.1076 -0.7508
   33MOL   C201 8585   0.980   5.154   0.373 -0.4065 -0.4551 -0.0208
   33MOL   H202 8586   0.708   5.433   0.479  1.0005  0.3607 -1.7990
   33MOL   H203 8587   0.751   5.322   0.358 -0.0297 -2.7238  0.6727
   33MOL   H204 8588   0.836   5.310   0.651  0.8188  0.7617 -0.3213
   33MOL   H205 8589   1.178   5.217   0.574  1.1265  0.7288  3.1115
   33MOL   H206 8590   1.077   5.093   0.641 -0.2660 -0.0893 -0.6839
   33MOL   H207 8591   1.058   5.250   0.698 -0.3175  0.3129 -1.0652
   33MOL   H208 8592   1.087   5.169   0.358 -0.1033 -0.2433  2.2525
   33MOL   H209 8593   0.923   5.191   0.287 -1.5279  0.2679  1.0144
   33MOL   C210 8594   0.936   5.010   0.377  0.2091 -0.2884 -0.5341
   33MOL   C211 8595   1.003   4.940   0.264  0.8677 -0.0585  0.5093
   33MOL   C212 8596   1.123   4.871   0.255 -0.0431 -0.6187  0.7677
   33MOL   C213 8597   1.167   4.830   0.116 -0.2126  0.0609 -0.8426
   33MOL   C214 8598   1.219   4.850   0.372 -0.2066 -0.4765  0.2002
   33MOL   H215 8599   0.828   5.007   0.364  0.0393  2.6980 -0.2374
   33MOL   H216 8600   0.966   4.965   0.472 -1.1471 -0.5744 -0.2380
   33MOL   H217 8601   0.946   4.958   0.174 -2.1199  0.4242  2.4054
   33MOL   H218 8602   1.222   4.738   0.136  0.0372  0.4428  0.2777
   33MOL   H219 8603   1.238   4.905   0.079  0.8281  1.2972  3.2709
   33MOL   H220 8604   1.091   4.810   0.041  0.5886 -0.6684 -1.4677
   33MOL   H221 8605   1.220   4.749   0.414  1.8112 -0.5562 -0.0157
   33MOL   H222 8606   1.174   4.904   0.455  0.9848  2.8507 -1.2593
   33MOL   C223 8607   1.364   4.902   0.346  0.8815 -0.1228  0.0345
   33MOL   C224 8608   1.349   5.048   0.311  0.3786 -1.1068  0.0180
   33MOL   C225 8609   1.429   5.144   0.354 -0.1783  0.5903  0.5576
   33MOL   C226 8610   1.412   5.287   0.303 -0.2727 -0.4463  0.5512
   33MOL   C227 8611   1.558   5.133   0.430 -0.3070 -0.6334  0.2999
   33MOL   H228 8612   1.403   4.843   0.263  2.2526 -1.6907  1.7452
   33MOL   H229 8613   1.429   4.870   0.428  0.2550 -1.0928  0.1636
   33MOL   H230 8614   1.265   5.069   0.247  0.8071  1.1168  0.1474
   33MOL   H231 8615   1.308   5.310   0.324 -0.1328  0.3225  0.4249
   33MOL   H232 8616   1.421   5.293   0.195 -1.6821 -1.6235  0.3672
   33MOL   H233 8617   1.465   5.354   0.371 -1.3339  0.9892 -0.0031
   33MOL   H234 8618   1.568   5.047   0.497 -1.9440 -0.9102  0.2070
   33MOL   H235 8619   1.561   5.224   0.489 -2.1436  1.1886 -2.3070
   33MOL   C236 8620   1.682   5.148   0.336 -0.0673 -0.2412 -0.0801
   33MOL   C237 8621   1.808   5.168   0.422 -0.2253  0.6383  0.0530
   33MOL   C238 8622   1.929   5.115   0.398 -0.5182  0.3010  0.2414
   33MOL   C239 8623   2.057   5.155   0.472  0.3279  0.0689 -0.1808
   33MOL   C240 8624   1.956   5.005   0.296 -0.0961  0.3483  0.9746
   33MOL   H241 8625   1.676   5.241   0.280 -2.8552 -0.2128  0.1999
   33MOL   H242 8626   1.687   5.069   0.261 -1.0373  1.6603 -2.1711
   33MOL   H243 8627   1.802   5.237   0.505 -0.2982 -0.3286  0.8673
   33MOL   H244 8628   2.146   5.132   0.414  1.5236 -1.9333  2.3692
   33MOL   H245 8629   2.070   5.102   0.566  0.3568  0.4224  0.0181
   33MOL   H246 8630   2.054   5.262   0.493  0.1436 -0.0819  0.5961
   33MOL   H247 8631   2.053   5.018   0.248  0.0343 -4.2309 -0.2310
   33MOL   H248 8632   1.877   5.010   0.221  2.1823 -1.9518 -1.7118
   33MOL   C249 8633   1.955   4.868   0.364  0.0610  1.2270  0.7058
   33MOL   C250 8634   1.987   4.752   0.266  0.7821 -0.0562 -0.4002
   33MOL   C251 8635   1.893   4.668   0.225  0.3116 -0.6574 -0.5347
   33MOL   C252 8636   1.916   4.557   0.124 -0.3634 -0.7855  0.5751
   33MOL   C253 8637   1.743   4.676   0.273 -0.3004 -0.0220 -0.0333
   33MOL   H254 8638   1.863   4.851   0.421  0.6988 -0.9011  1.1620
   33MOL   H255 8639   2.021   4.859   0.450 -0.5883  2.5255  1.3607
   33MOL   H256 8640   2.090   4.743   0.236  1.1915  1.6378  0.3905
   33MOL   H257 8641   1.915   4.457   0.167  0.4117 -0.1870  1.9970
   33MOL   H258 8642   2.009   4.575   0.070 -0.9458 -0.9862 -0.5225
   33MOL   H259 8643   1.830   4.560   0.056 -0.1871 -0.0952  0.3759
   33MOL   H260 8644   1.754   4.656   0.380 -2.2346 -1.0876 -0.0196
   33MOL   H261 8645   1.676   4.598   0.236  1.7041 -0.4567 -2.9281
   33MOL   H262 8646   1.701   4.772   0.247  0.0378  0.7672  2.2199
   34MOL     C1 8647   4.206   2.622   3.027 -0.6462  0.0317 -0.6999
   34MOL     C2 8648   4.149   2.579   2.894  0.1440 -0.2094  0.1771
   34MOL     C3 8649   4.058   2.636   2.817 -0.2905  0.6986  0.2867
   34MOL     C4 8650   4.028   2.585   2.676 -0.0019 -0.8836 -0.3161
   34MOL     C5 8651   3.980   2.765   2.859  0.3681  0.3240 -0.8100
   34MOL     H6 8652   4.227   2.532   3.083  0.0096  0.4491 -0.2702
   34MOL     H7 8653   4.295   2.684   3.015  0.1484 -1.2031 -1.3355
   34MOL     H8 8654   4.203   2.497   2.848 -0.6511 -2.1243  2.5272
   34MOL     H9 8655   4.105   2.580   2.599 -0.4859 -1.8065 -0.7452
   34MOL    H10 8656   3.943   2.637   2.633  0.2673 -1.9821 -2.2680
   34MOL    H11 8657   3.984   2.485   2.669  2.2454 -1.8800 -0.6307
   34MOL    H12 8658   3.966   2.820   2.766  4.9179 -0.4259 -2.0686
   34MOL    H13 8659   4.048   2.823   2.922  1.3126 -1.9151  0.3171
   34MOL    H14 8660   4.134   2.680   3.085  0.6393 -0.5901  1.5357
   34MOL    C15 8661   3.845   2.740   2.924 -0.0931  0.1371  0.0186
   34MOL    C16 8662   3.732   2.706   2.825  0.4934  0.7717 -0.1295
   34MOL    C17 8663   3.656   2.796   2.759 -0.0107  0.5914 -0.2380
   34MOL    C18 8664   3.549   2.749   2.660  0.5953  0.7808 -0.2165
   34MOL    C19 8665   3.651   2.947   2.785 -0.3845 -0.8566  0.7640
   34MOL    H20 8666   3.823   2.824   2.989  1.9282  1.2018 -0.6280
   34MOL    H21 8667   3.863   2.662   2.998 -0.4496  0.7466  0.7496
   34MOL    H22 8668   3.730   2.604   2.792 -1.4179  1.3341 -1.8199
   34MOL    H23 8669   3.449   2.754   2.704  1.6643  0.4129  2.3473
   34MOL    H24 8670   3.567   2.648   2.625 -1.2883  1.0590 -2.0723
   34MOL    H25 8671   3.554   2.805   2.567  1.5216 -0.3373 -0.8383
   34MOL    H26 8672   3.680   2.991   2.689 -0.9908 -0.0961  0.9245
   34MOL    H27 8673   3.728   2.970   2.859  0.9548 -0.7452 -0.6186
   34MOL    C28 8674   3.516   3.008   2.834 -0.6709  0.4088  0.0146
   34MOL    C29 8675   3.537   3.143   2.891 -0.3467  0.4992  0.0472
   34MOL    C30 8676   3.568   3.176   3.014 -0.4179  0.6315 -0.2674
   34MOL    C31 8677   3.572   3.318   3.055  0.3341 -0.5907  0.2038
   34MOL    C32 8678   3.601   3.073   3.125  0.5372  0.1809  0.3325
   34MOL    H33 8679   3.471   2.950   2.914 -1.6370 -0.9342 -1.4822
   34MOL    H34 8680   3.430   3.009   2.767 -1.0346 -2.1623  0.3966
   34MOL    H35 8681   3.525   3.226   2.822 -1.0230 -0.6375 -1.2401
   34MOL    H36 8682   3.500   3.338   3.133  1.7843 -0.4853  1.5417
   34MOL    H37 8683   3.554   3.387   2.973 -1.6234 -0.8604  0.3851
   34MOL    H38 8684   3.665   3.342   3.107  0.8851  0.2975 -1.1468
   34MOL    H39 8685   3.690   3.100   3.183  2.4621  0.9819 -2.8553
   34MOL    H40 8686   3.617   2.977   3.076  0.8743 -0.3434  1.4482
   34MOL    C41 8687   3.487   3.050   3.216  0.1712  0.6466  0.0751
   34MOL    C42 8688   3.526   2.960   3.334  0.5073  0.3821 -0.1457
   34MOL    C43 8689   3.512   2.828   3.357 -0.3329 -0.2344  0.2337
   34MOL    C44 8690   3.574   2.763   3.480 -0.2562  0.0275 -0.6381
   34MOL    C45 8691   3.446   2.743   3.251  0.6756 -0.0114  0.1792
   34MOL    H46 8692   3.399   3.001   3.174  0.6729 -0.1766 -0.0225
   34MOL    H47 8693   3.449   3.143   3.258 -1.8348  0.1879 -0.6398
   34MOL    H48 8694   3.589   3.021   3.397  1.8136 -0.6723 -0.3900
   34MOL    H49 8695   3.634   2.676   3.452 -1.8770 -0.7932 -1.6359
   34MOL    H50 8696   3.505   2.734   3.559 -2.8084  1.2844 -2.3515
   34MOL    H51 8697   3.644   2.830   3.530 -0.3914 -0.3117 -0.0001
   34MOL    H52 8698   3.371   2.803   3.199 -0.6819 -1.7407  0.1171
   34MOL    H53 8699   3.388   2.665   3.300  0.6738  0.8599  1.5870
   34MOL    C54 8700   3.544   2.665   3.160 -0.6030 -0.7185 -1.0851
   34MOL    C55 8701   3.461   2.585   3.064 -0.2068 -0.3417 -0.4834
   34MOL    C56 8702   3.427   2.456   3.060  0.6067  0.2468  0.5256
   34MOL    C57 8703   3.323   2.404   2.956 -0.0308 -0.0193  0.1000
   34MOL    C58 8704   3.462   2.355   3.172 -0.1185 -0.3328 -0.0976
   34MOL    H59 8705   3.612   2.592   3.207 -0.5578 -0.0675 -0.1244
   34MOL    H60 8706   3.611   2.731   3.105  0.2034  0.3618  1.0992
   34MOL    H61 8707   3.435   2.654   2.984 -0.3379  1.3004  0.9448
   34MOL    H62 8708   3.346   2.302   2.925  1.0361  0.4990 -0.8756
   34MOL    H63 8709   3.294   2.471   2.875 -0.1331 -1.2450 -0.8885
   34MOL    H64 8710   3.229   2.382   3.006 -0.1591  0.3008  0.0020
   34MOL    H65 8711   3.543   2.393   3.235 -0.5605 -0.6362  0.6660
   34MOL    H66 8712   3.492   2.265   3.120 -1.2496 -1.0654  0.4959
   34MOL    C67 8713   3.356   2.345   3.275 -0.6488 -0.4119 -0.0139
   34MOL    C68 8714   3.405   2.261   3.393  0.2529  0.0918  0.5667
   34MOL    C69 8715   3.440   2.302   3.516  0.0675 -0.3243  0.4668
   34MOL    C70 8716   3.513   2.208   3.614  0.3884  0.0997 -0.2880
   34MOL    C71 8717   3.421   2.446   3.573 -0.6145  0.1399  0.7297
   34MOL    H72 8718   3.276   2.286   3.228 -0.4497 -0.6393 -0.0680
   34MOL    H73 8719   3.307   2.441   3.291  1.1968  0.5670 -0.1344
   34MOL    H74 8720   3.421   2.157   3.370 -1.6406 -0.0520 -0.2151
   34MOL    H75 8721   3.452   2.168   3.694  2.5640  0.2241  1.4808
   34MOL    H76 8722   3.588   2.264   3.670  0.0370  0.0433  0.2362
   34MOL    H77 8723   3.568   2.129   3.562  0.1042 -1.4260  1.6694
   34MOL    H78 8724   3.405   2.512   3.488  0.2193 -1.0456 -0.3585
   34MOL    H79 8725   3.516   2.473   3.620 -0.7162  1.7012  0.0658
   34MOL    C80 8726   3.290   2.457   3.656  0.2362 -0.4434  0.1259
   34MOL    C81 8727   3.255   2.590   3.718  0.4674  0.1462  0.1863
   34MOL    C82 8728   3.234   2.613   3.850 -0.0168  0.1987 -0.1392
   34MOL    C83 8729   3.239   2.509   3.959 -0.9305 -0.4225 -0.6612
   34MOL    C84 8730   3.206   2.757   3.899 -0.0474 -0.3470 -0.2065
   34MOL    H85 8731   3.281   2.380   3.734 -0.7503  2.2881  2.8099
   34MOL    H86 8732   3.210   2.437   3.584 -0.8972 -0.4371  1.3532
   34MOL    H87 8733   3.250   2.676   3.652  1.8421 -0.3599 -0.5910
   34MOL    H88 8734   3.338   2.513   4.004 -0.3859 -0.2879 -1.8452
   34MOL    H89 8735   3.196   2.413   3.932 -0.9567 -0.4512 -0.5189
   34MOL    H90 8736   3.177   2.548   4.039  1.5248  2.6694 -0.1761
   34MOL    H91 8737   3.214   2.831   3.819  0.8094 -0.4164 -0.1808
   34MOL    H92 8738   3.286   2.787   3.966 -0.9771  2.6981 -0.3821
   34MOL    C93 8739   3.072   2.792   3.966 -0.0688 -0.1984 -0.2860
   34MOL    C94 8740   3.066   2.936   4.024 -0.4671  0.9027  0.5503
   34MOL    C95 8741   3.089   2.984   4.147  0.8209  0.4101  0.1150
   34MOL    C96 8742   3.094   3.126   4.180  0.0385  0.4987  0.1693
   34MOL    C97 8743   3.133   2.893   4.259  0.1727 -0.7665 -0.5177
   34MOL    H98 8744   3.052   2.716   4.042  0.5117 -2.3426 -2.2078
   34MOL    H99 8745   2.982   2.783   3.905 -1.2851  1.5288  1.1955
   34MOL   H100 8746   3.038   3.011   3.952 -2.5400 -1.8508 -1.6522
   34MOL   H101 8747   3.186   3.180   4.159  0.5340 -0.5288 -0.3216
   34MOL   H102 8748   3.015   3.176   4.124 -0.0599 -0.0646 -0.1982
   34MOL   H103 8749   3.082   3.144   4.287  2.3247 -0.7316  0.6608
   34MOL   H104 8750   3.116   2.789   4.233  1.6538 -1.0802 -0.2856
   34MOL   H105 8751   3.070   2.916   4.345  2.8054 -3.3432  2.2353
   34MOL   C106 8752   3.281   2.912   4.302 -0.6552  0.1819  0.2690
   34MOL   C107 8753   3.310   2.820   4.419  0.2395  0.2123  0.4016
   34MOL   C108 8754   3.329   2.683   4.420  0.8534 -0.2332 -0.2310
   34MOL   C109 8755   3.335   2.601   4.294  0.3451  0.5891 -0.0116
   34MOL   C110 8756   3.341   2.601   4.549 -0.0137  0.2365 -0.1585
   34MOL   H111 8757   3.306   3.012   4.337  0.4409 -0.2325  0.6824
   34MOL   H112 8758   3.358   2.903   4.225 -1.3997 -0.6115 -0.4006
   34MOL   H113 8759   3.305   2.871   4.514  1.4819  4.1162 -1.5284
   34MOL   H114 8760   3.275   2.510   4.305 -0.6719  1.1390 -0.9667
   34MOL   H115 8761   3.287   2.650   4.209 -0.1841 -0.7896 -0.5326
   34MOL   H116 8762   3.438   2.578   4.268  0.0893  0.4995 -0.9619
   34MOL   H117 8763   3.272   2.517   4.543 -0.0254  0.4059 -2.8789
   34MOL   H118 8764   3.298   2.660   4.630  0.9799  1.1054 -0.2386
   34MOL   C119 8765   3.485   2.568   4.591  0.1189 -0.5077  0.1655
   34MOL   C120 8766   3.498   2.492   4.726  0.6325 -0.0781  0.3385
   34MOL   C121 8767   3.483   2.360   4.744 -0.1295 -0.1409 -1.1858
   34MOL   C122 8768   3.510   2.296   4.883 -0.8325 -0.2794  0.2694
   34MOL   C123 8769   3.465   2.264   4.627  0.9903  0.6376 -0.1961
   34MOL   H124 8770   3.527   2.667   4.606 -0.2034 -0.2378 -0.6651
   34MOL   H125 8771   3.537   2.516   4.511 -1.1848 -1.1736 -0.2636
   34MOL   H126 8772   3.521   2.553   4.812 -0.3687  2.5583 -1.2065
   34MOL   H127 8773   3.455   2.207   4.913  1.3558 -1.9206 -0.4981
   34MOL   H128 8774   3.485   2.371   4.958 -1.2623 -1.3033  1.1644
   34MOL   H129 8775   3.615   2.268   4.890 -0.5066  0.1700 -2.1095
   34MOL   H130 8776   3.413   2.326   4.553 -0.3454  0.3328  0.4673
   34MOL   H131 8777   3.384   2.194   4.645  3.3713 -1.8333  1.2257
   34MOL   C132 8778   3.595   2.201   4.584 -0.1184  0.3087  0.5864
   34MOL   C133 8779   3.594   2.140   4.442 -0.3855 -0.3736 -0.0578
   34MOL   C134 8780   3.596   2.007   4.404  0.4465 -0.4684  0.4848
   34MOL   C135 8781   3.578   1.969   4.256  0.3616  0.4956  0.0759
   34MOL   C136 8782   3.585   1.890   4.496 -0.3862  0.5971  0.2318
   34MOL   H137 8783   3.619   2.126   4.659 -2.9738 -0.9081  0.3474
   34MOL   H138 8784   3.677   2.272   4.595 -0.7478  0.9031  1.5408
   34MOL   H139 8785   3.581   2.221   4.372 -1.4405  2.7296  3.5579
   34MOL   H140 8786   3.600   2.063   4.206  1.1207  0.6158  0.6210
   34MOL   H141 8787   3.477   1.939   4.230  0.2409 -1.0331  2.1919
   34MOL   H142 8788   3.643   1.890   4.218 -0.9911  0.5270 -2.4043
   34MOL   H143 8789   3.649   1.917   4.580 -0.9496  1.5698  0.3548
   34MOL   H144 8790   3.638   1.809   4.446 -1.3108 -0.7343  1.3554
   34MOL   C145 8791   3.448   1.848   4.548  0.0670  0.7708  0.1857
   34MOL   C146 8792   3.445   1.708   4.609  0.0468 -0.7199  1.2141
   34MOL   C147 8793   3.352   1.606   4.584 -0.2416  0.2461 -0.9251
   34MOL   C148 8794   3.371   1.466   4.641 -0.2097  0.6084  0.2837
   34MOL   C149 8795   3.224   1.616   4.503 -0.5787 -0.4136 -0.0389
   34MOL   H150 8796   3.379   1.845   4.463 -0.9582 -1.4575  1.0469
   34MOL   H151 8797   3.408   1.918   4.621  0.1457  0.6311  0.3640
   34MOL   H152 8798   3.519   1.691   4.685  0.2076 -0.0671  1.2033
   34MOL   H153 8799   3.468   1.443   4.685 -0.0542  0.7624  0.0220
   34MOL   H154 8800   3.359   1.390   4.564 -1.7536 -1.1447  2.2114
   34MOL   H155 8801   3.306   1.455   4.728  1.1369 -2.1643  0.9975
   34MOL   H156 8802   3.188   1.717   4.524 -0.1438  0.0233 -1.3297
   34MOL   H157 8803   3.151   1.540   4.532  1.2305 -1.8107  0.9520
   34MOL   C158 8804   3.251   1.594   4.355  0.2740  0.3788 -0.5864
   34MOL   C159 8805   3.131   1.618   4.262  0.2251  0.8054 -0.2696
   34MOL   C160 8806   3.121   1.668   4.137 -0.3101 -0.5039  0.4839
   34MOL   C161 8807   3.243   1.722   4.070  0.0550 -0.4848  0.9526
   34MOL   C162 8808   2.989   1.704   4.076  0.0521  0.0551  0.1656
   34MOL   H163 8809   3.276   1.490   4.335  0.0382  0.1163  0.4627
   34MOL   H164 8810   3.341   1.646   4.323  0.0908  1.2074  0.2309
   34MOL   H165 8811   3.035   1.601   4.309 -0.4862  1.6906 -1.3697
   34MOL   H166 8812   3.266   1.816   4.121  4.0496 -0.5790 -0.5318
   34MOL   H167 8813   3.213   1.752   3.970 -1.7671 -1.6841  1.1270
   34MOL   H168 8814   3.332   1.659   4.073  1.1428  1.0188  0.4810
   34MOL   H169 8815   2.916   1.636   4.119 -1.2273 -0.2249 -2.3310
   34MOL   H170 8816   2.998   1.683   3.969  0.1093 -0.0928  0.2005
   34MOL   C171 8817   2.949   1.855   4.095  0.6562  0.7693  0.1235
   34MOL   C172 8818   2.805   1.869   4.048 -0.4348  0.3987  0.1352
   34MOL   C173 8819   2.726   1.977   4.055  0.5690  0.1118  0.8938
   34MOL   C174 8820   2.770   2.109   4.120 -0.6893  0.4121  0.4825
   34MOL   C175 8821   2.597   1.986   3.970 -0.3045 -0.4103  0.2605
   34MOL   H176 8822   3.004   1.920   4.027  0.5169 -1.2017 -1.9410
   34MOL   H177 8823   2.966   1.891   4.196  0.8659  0.2037  0.2950
   34MOL   H178 8824   2.772   1.786   3.986  2.3630  0.0257 -0.9157
   34MOL   H179 8825   2.794   2.187   4.048  1.9900 -1.3758 -0.6342
   34MOL   H180 8826   2.859   2.086   4.178 -1.5890 -2.8561  0.6223
   34MOL   H181 8827   2.709   2.148   4.201 -0.5329 -0.8013  1.1804
   34MOL   H182 8828   2.579   1.889   3.925 -0.7681 -0.1594 -0.1087
   34MOL   H183 8829   2.613   2.066   3.897 -0.3051 -0.6362  0.0122
   34MOL   C184 8830   2.469   2.024   4.048  0.4032  0.2368 -0.5885
   34MOL   C185 8831   2.349   2.038   3.955  0.1663 -0.7689 -0.3374
   34MOL   C186 8832   2.242   2.115   3.972 -0.1482 -0.4607 -0.1824
   34MOL   C187 8833   2.127   2.111   3.873 -0.0077 -0.1395  0.0730
   34MOL   C188 8834   2.222   2.215   4.084  0.0112 -0.3585 -0.5975
   34MOL   H189 8835   2.489   2.117   4.101 -1.7851  0.9951 -1.0346
   34MOL   H190 8836   2.455   1.940   4.117  1.5505  0.6619  0.1780
   34MOL   H191 8837   2.351   1.975   3.867  1.5717 -1.9413  0.5133
   34MOL   H192 8838   2.127   2.194   3.802 -3.3401 -0.0919  0.0506
   34MOL   H193 8839   2.035   2.110   3.932 -0.5977 -1.2440 -0.8544
   34MOL   H194 8840   2.128   2.020   3.813 -0.2089 -0.2335  0.2129
   34MOL   H195 8841   2.283   2.187   4.169 -1.1618  2.1196  1.1423
   34MOL   H196 8842   2.125   2.198   4.131  0.3222  1.7841  0.8973
   34MOL   C197 8843   2.247   2.358   4.044  0.5462 -0.7777  0.1814
   34MOL   C198 8844   2.262   2.449   4.160  0.4664 -0.7024 -0.5476
   34MOL   C199 8845   2.362   2.535   4.185  0.4600 -0.1805  0.0252
   34MOL   C200 8846   2.364   2.625   4.309  0.2594 -0.7230  0.1119
   34MOL   C201 8847   2.479   2.541   4.090  0.0839  0.1804 -0.4321
   34MOL   H202 8848   2.159   2.394   3.991 -0.0653 -2.0971  0.3015
   34MOL   H203 8849   2.328   2.358   3.970 -0.5963  2.2629 -1.1896
   34MOL   H204 8850   2.184   2.448   4.235 -0.5537  0.3626 -1.5775
   34MOL   H205 8851   2.399   2.723   4.276  0.9897 -0.6574  1.0805
   34MOL   H206 8852   2.437   2.575   4.372  0.1310 -2.2073 -0.8752
   34MOL   H207 8853   2.267   2.636   4.359 -0.6001  1.2524 -1.8769
   34MOL   H208 8854   2.537   2.629   4.117 -0.2096  0.0330  0.7145
   34MOL   H209 8855   2.440   2.550   3.989  3.0558 -0.0921 -1.6423
   34MOL   C210 8856   2.578   2.429   4.115  0.3706 -0.1369  0.7948
   34MOL   C211 8857   2.698   2.451   4.024  0.3759 -0.7878  0.0697
   34MOL   C212 8858   2.698   2.417   3.892  0.4711 -0.0727 -0.5454
   34MOL   C213 8859   2.828   2.428   3.808  0.5038 -0.3338  0.2292
   34MOL   C214 8860   2.586   2.347   3.820  0.0566  0.5460 -0.3640
   34MOL   H215 8861   2.536   2.328   4.107 -2.1956  0.7865  2.0703
   34MOL   H216 8862   2.611   2.444   4.218 -0.4385 -1.3187  1.2463
   34MOL   H217 8863   2.782   2.499   4.072 -0.3875 -0.1368  0.7736
   34MOL   H218 8864   2.888   2.512   3.842 -0.2231 -0.6727  2.4438
   34MOL   H219 8865   2.808   2.429   3.701  2.3875  0.6746 -0.1396
   34MOL   H220 8866   2.894   2.346   3.837  0.5854 -0.3009  0.1363
   34MOL   H221 8867   2.512   2.329   3.898  1.2707  1.0137  0.9164
   34MOL   H222 8868   2.624   2.248   3.795  0.8802  0.8046 -0.1471
   34MOL   C223 8869   2.517   2.410   3.698 -0.0505  0.1710 -0.4106
   34MOL   C224 8870   2.398   2.334   3.655  0.2672  0.0161  0.9169
   34MOL   C225 8871   2.387   2.275   3.531  0.7259  0.2848 -0.2066
   34MOL   C226 8872   2.257   2.212   3.482  0.5321 -0.0186 -0.1980
   34MOL   C227 8873   2.494   2.297   3.419  0.3053  0.5838 -0.9689
   34MOL   H228 8874   2.595   2.428   3.625  2.2144 -1.9568  1.3583
   34MOL   H229 8875   2.495   2.510   3.735  0.1340  1.5808 -3.9523
   34MOL   H230 8876   2.317   2.323   3.726  1.1216  0.7280  2.0046
   34MOL   H231 8877   2.272   2.156   3.390  0.4743 -0.2770 -0.0503
   34MOL   H232 8878   2.178   2.281   3.452 -1.3419 -1.0155  2.2505
   34MOL   H233 8879   2.219   2.143   3.557 -1.0053  0.2950 -0.6679
   34MOL   H234 8880   2.531   2.400   3.414  0.8814  0.4426  0.1083
   34MOL   H235 8881   2.444   2.289   3.323 -1.4787  2.5969 -0.2394
   34MOL   C236 8882   2.616   2.205   3.430  0.1123  0.0896  0.3881
   34MOL   C237 8883   2.683   2.184   3.300 -0.1547 -0.5192  0.9263
   34MOL   C238 8884   2.793   2.245   3.250  0.4375  0.0969 -0.2573
   34MOL   C239 8885   2.851   2.212   3.116  0.4134 -0.4665  1.1626
   34MOL   C240 8886   2.878   2.356   3.317  0.1200 -0.0430 -0.2659
   34MOL   H241 8887   2.587   2.116   3.485 -0.0493 -0.7133 -0.9824
   34MOL   H242 8888   2.688   2.250   3.499  1.2698  1.8692 -1.9095
   34MOL   H243 8889   2.635   2.106   3.244  2.3029 -0.8532 -0.7926
   34MOL   H244 8890   2.795   2.124   3.084  0.1901  0.4599 -1.1549
   34MOL   H245 8891   2.958   2.189   3.115  0.0856 -2.2549 -1.7446
   34MOL   H246 8892   2.822   2.287   3.042 -0.9927  0.7248  2.9020
   34MOL   H247 8893   2.975   2.310   3.339 -0.3596 -1.6731 -1.4080
   34MOL   H248 8894   2.822   2.395   3.401  0.4563 -0.1988  0.0312
   34MOL   C249 8895   2.907   2.467   3.211  0.7577  0.2276 -0.1639
   34MOL   C250 8896   2.937   2.598   3.288 -0.1211  0.1604 -0.2169
   34MOL   C251 8897   3.019   2.692   3.235  1.0152 -0.1899  0.2363
   34MOL   C252 8898   3.065   2.811   3.321  0.2254 -0.1774 -1.1294
   34MOL   C253 8899   3.063   2.703   3.093  0.8957  0.9998  0.2627
   34MOL   H254 8900   2.827   2.483   3.139  2.1137  0.2040 -1.6909
   34MOL   H255 8901   3.001   2.449   3.159  2.9521  0.7095  3.4832
   34MOL   H256 8902   2.898   2.589   3.388  1.3827 -0.5502  0.3035
   34MOL   H257 8903   3.174   2.807   3.316  0.2819 -0.1475 -0.0384
   34MOL   H258 8904   3.040   2.807   3.427 -0.6383  1.5171 -1.2499
   34MOL   H259 8905   3.036   2.908   3.282 -0.0438 -0.1571 -0.8807
   34MOL   H260 8906   2.990   2.661   3.023  0.6627 -0.4611  1.3640
   34MOL   H261 8907   3.153   2.642   3.082 -0.2195 -0.8503  1.2064
   34MOL   H262 8908   3.083   2.806   3.066  1.1428  0.6876 -0.7796
   35MOL     C1 8909   1.498   7.220   5.440 -1.0302 -0.0934  0.5039
   35MOL     C2 8910   1.634   7.153   5.478  0.1780 -0.1278 -0.2950
   35MOL     C3 8911   1.657   7.072   5.585 -0.8369  0.6986  0.0546
   35MOL     C4 8912   1.797   7.024   5.616 -0.0794 -0.1929 -0.4570
   35MOL     C5 8913   1.544   7.037   5.689 -0.1990 -0.3696 -0.5129
   35MOL     H6 8914   1.440   7.245   5.528 -0.8750 -0.1537  0.6236
   35MOL     H7 8915   1.517   7.310   5.382 -0.3784 -1.2282 -1.1272
   35MOL     H8 8916   1.718   7.185   5.419  0.9403 -1.0696  0.2644
   35MOL     H9 8917   1.853   7.026   5.522 -2.4920 -3.0926 -2.0621
   35MOL    H10 8918   1.794   6.921   5.654 -2.8807  0.2829  0.7423
   35MOL    H11 8919   1.839   7.081   5.699 -1.7320  0.8544 -0.3301
   35MOL    H12 8920   1.453   7.092   5.666 -0.1271  0.4175  1.0102
   35MOL    H13 8921   1.574   7.084   5.782  0.3713 -0.5301 -0.6099
   35MOL    H14 8922   1.451   7.144   5.377 -1.6372 -0.4887  1.4236
   35MOL    C15 8923   1.504   6.883   5.689 -0.3192  0.4110  0.5092
   35MOL    C16 8924   1.383   6.871   5.778 -0.1710 -0.9746 -0.3310
   35MOL    C17 8925   1.248   6.912   5.766  0.5079  0.4991 -0.5580
   35MOL    C18 8926   1.143   6.861   5.865 -0.8337 -0.4854  0.1112
   35MOL    C19 8927   1.178   6.968   5.642  0.6146  0.6911  0.2066
   35MOL    H20 8928   1.586   6.822   5.727  1.8082  1.8586 -1.5570
   35MOL    H21 8929   1.481   6.828   5.598  0.2942  0.8399  0.0866
   35MOL    H22 8930   1.426   6.827   5.867  0.1283 -0.0888 -0.0373
   35MOL    H23 8931   1.058   6.929   5.871  0.5871  1.5723 -2.0882
   35MOL    H24 8932   1.198   6.859   5.960 -1.2357  1.1258  0.4013
   35MOL    H25 8933   1.110   6.762   5.835  1.4845 -1.2212 -0.0857
   35MOL    H26 8934   1.085   6.917   5.619  1.5397 -0.0515 -1.9511
   35MOL    H27 8935   1.242   6.956   5.555 -1.5642 -0.4746 -1.2894
   35MOL    C28 8936   1.149   7.111   5.657 -0.3982  1.0014 -0.2674
   35MOL    C29 8937   1.101   7.173   5.529  0.3287 -0.1683  0.9985
   35MOL    C30 8938   1.018   7.281   5.519 -0.0967 -0.1079 -1.0007
   35MOL    C31 8939   0.982   7.337   5.379  0.0928  0.9590  0.2984
   35MOL    C32 8940   0.968   7.358   5.637 -0.3230 -0.1779  0.0161
   35MOL    H33 8941   1.241   7.160   5.690 -0.1055  0.8865 -0.8933
   35MOL    H34 8942   1.073   7.118   5.735  1.0487  1.6803  1.1185
   35MOL    H35 8943   1.128   7.127   5.435  0.4720  2.9749 -0.5775
   35MOL    H36 8944   1.039   7.427   5.359  2.7943 -0.9739 -1.0780
   35MOL    H37 8945   0.875   7.349   5.361  0.1576  0.2283 -0.6836
   35MOL    H38 8946   1.010   7.266   5.301  0.9518 -0.1579  1.5989
   35MOL    H39 8947   0.977   7.462   5.607  0.4014  0.0600  1.0237
   35MOL    H40 8948   1.028   7.344   5.727  2.2071 -0.5959 -1.6704
   35MOL    C41 8949   0.825   7.321   5.674  0.1521 -0.4059 -0.1630
   35MOL    C42 8950   0.814   7.192   5.757  0.1767 -0.4416  0.3422
   35MOL    C43 8951   0.797   7.180   5.889  0.6057 -0.0355 -0.3209
   35MOL    C44 8952   0.786   7.048   5.949  0.6752 -0.1236  0.2345
   35MOL    C45 8953   0.809   7.295   5.992  0.3025  0.6836  0.9048
   35MOL    H46 8954   0.757   7.311   5.589 -0.5306 -1.7912  0.5225
   35MOL    H47 8955   0.780   7.407   5.724 -0.6588 -0.3786 -0.9101
   35MOL    H48 8956   0.809   7.107   5.690 -1.0443 -0.8360  0.9221
   35MOL    H49 8957   0.811   6.973   5.874  0.3954 -0.8949  0.9064
   35MOL    H50 8958   0.683   7.038   5.981  0.4981  0.3791 -0.1805
   35MOL    H51 8959   0.860   7.034   6.028  2.0092 -2.2091 -1.3295
   35MOL    H52 8960   0.794   7.388   5.937 -2.0252  0.3008  0.8254
   35MOL    H53 8961   0.914   7.300   6.021  1.4199 -1.9625 -2.3670
   35MOL    C54 8962   0.700   7.299   6.104 -0.0737 -0.5478  0.2936
   35MOL    C55 8963   0.703   7.430   6.191  0.9347 -0.2377 -0.5881
   35MOL    C56 8964   0.615   7.532   6.188  0.1424 -0.3625 -0.9591
   35MOL    C57 8965   0.624   7.653   6.283  0.1581 -0.3355  0.7692
   35MOL    C58 8966   0.494   7.533   6.091 -0.6828  0.1750  0.2493
   35MOL    H59 8967   0.735   7.219   6.169  1.9663  1.0636  1.2704
   35MOL    H60 8968   0.600   7.279   6.066  0.3152  1.1344 -1.7250
   35MOL    H61 8969   0.777   7.432   6.270 -0.6261 -0.4022  0.9092
   35MOL    H62 8970   0.542   7.656   6.355  0.1869  1.6580  0.7488
   35MOL    H63 8971   0.612   7.749   6.232 -2.7056  0.9099  3.5852
   35MOL    H64 8972   0.721   7.661   6.332  0.9182  0.1012 -0.7710
   35MOL    H65 8973   0.403   7.569   6.140 -0.4708  1.3506 -0.2056
   35MOL    H66 8974   0.463   7.431   6.071  0.3674  0.1683 -1.4068
   35MOL    C67 8975   0.509   7.618   5.966  0.2961 -0.1701 -1.0529
   35MOL    C68 8976   0.382   7.605   5.874  0.3449 -0.9500 -0.8329
   35MOL    C69 8977   0.371   7.658   5.751 -0.1942  0.2271  0.4376
   35MOL    C70 8978   0.247   7.654   5.667  0.0004  0.3411  0.2255
   35MOL    C71 8979   0.479   7.743   5.683 -0.4994  0.1756  1.0179
   35MOL    H72 8980   0.597   7.598   5.905  0.2907 -0.6299 -0.9107
   35MOL    H73 8981   0.521   7.721   5.997  3.5109 -0.5014 -1.0355
   35MOL    H74 8982   0.297   7.551   5.915 -1.8424  0.5810 -3.1886
   35MOL    H75 8983   0.169   7.591   5.709 -2.1966  2.1185 -1.1058
   35MOL    H76 8984   0.261   7.619   5.564  0.5873 -2.2404  1.1447
   35MOL    H77 8985   0.201   7.753   5.658  0.2466  0.5079  0.7850
   35MOL    H78 8986   0.555   7.785   5.748  1.3274  0.4794 -1.2688
   35MOL    H79 8987   0.430   7.816   5.619 -2.0158 -2.6408 -1.1717
   35MOL    C80 8988   0.552   7.638   5.589 -0.6391 -0.5513  0.5662
   35MOL    C81 8989   0.669   7.710   5.528 -1.2095  0.4535  0.7601
   35MOL    C82 8990   0.728   7.708   5.405 -0.0135  0.3281 -0.0022
   35MOL    C83 8991   0.668   7.634   5.289 -0.0973  0.6999  0.3476
   35MOL    C84 8992   0.840   7.795   5.358 -0.1820  0.0352  0.6727
   35MOL    H85 8993   0.492   7.589   5.512 -0.5524 -1.2907  0.9601
   35MOL    H86 8994   0.585   7.558   5.655  0.0863 -0.6764  0.0623
   35MOL    H87 8995   0.714   7.778   5.600 -1.2967 -1.1755  2.3924
   35MOL    H88 8996   0.629   7.687   5.202 -1.9583 -0.9728  0.1141
   35MOL    H89 8997   0.586   7.568   5.317 -1.0230  1.9539  0.6248
   35MOL    H90 8998   0.745   7.568   5.249 -1.2810 -0.7970  0.4930
   35MOL    H91 8999   0.854   7.875   5.431 -0.5294  0.1941  0.5665
   35MOL    H92 9000   0.816   7.846   5.265  1.7217 -0.2108  0.0287
   35MOL    C93 9001   0.980   7.732   5.350  0.0269  0.0145  0.1141
   35MOL    C94 9002   1.089   7.834   5.311  0.5003 -0.3573  0.0099
   35MOL    C95 9003   1.183   7.816   5.215  0.2114 -0.0821 -0.0968
   35MOL    C96 9004   1.287   0.046   5.198 -0.5661 -0.8907  0.6354
   35MOL    C97 9005   1.201   7.697   5.116  0.2580 -0.0972 -0.0138
   35MOL    H98 9006   0.980   7.642   5.289 -1.3539 -1.6528  2.4870
   35MOL    H99 9007   1.010   7.702   5.450  0.6688 -2.3905 -0.7797
   35MOL   H100 9008   1.086   0.040   5.377 -2.1517 -1.0773  0.9128
   35MOL   H101 9009   1.281   0.123   5.275 -0.6995  0.2057 -0.4676
   35MOL   H102 9010   1.390   0.015   5.216 -0.8470 -1.2839  1.6133
   35MOL   H103 9011   1.269   0.105   5.109 -1.7281  0.6334  1.8398
   35MOL   H104 9012   1.166   7.616   5.179 -0.1978 -0.7849 -1.1433
   35MOL   H105 9013   1.305   7.673   5.094  0.1375  2.0565 -3.3767
   35MOL   C106 9014   1.104   7.703   4.993 -0.1046 -0.0641  0.5761
   35MOL   C107 9015   1.095   7.583   4.906  0.2802  0.5078  0.3915
   35MOL   C108 9016   1.162   7.557   4.794 -0.1238 -0.4216  0.0397
   35MOL   C109 9017   1.253   7.652   4.714 -0.2139 -0.2459 -0.2816
   35MOL   C110 9018   1.147   7.422   4.722  0.2762  0.1170 -0.1170
   35MOL   H111 9019   1.143   7.781   4.929  2.6224 -0.9576  1.0813
   35MOL   H112 9020   1.001   7.718   5.026  0.4048  1.5227  1.4801
   35MOL   H113 9021   1.023   7.506   4.932  1.2299 -0.8364 -0.9144
   35MOL   H114 9022   1.266   7.754   4.750  0.2777 -0.0654 -0.9604
   35MOL   H115 9023   1.358   7.624   4.701 -0.0598  0.7678 -1.3261
   35MOL   H116 9024   1.214   7.657   4.613 -0.9301 -3.0681 -0.1636
   35MOL   H117 9025   1.103   7.339   4.778  2.9286 -1.4353 -0.2387
   35MOL   H118 9026   1.247   7.385   4.702  0.5958 -0.5834  2.6330
   35MOL   C119 9027   1.076   7.418   4.583  0.5668  0.6870  0.3686
   35MOL   C120 9028   0.925   7.407   4.585 -0.7090 -0.0496 -0.1196
   35MOL   C121 9029   0.850   7.301   4.553 -0.4064  0.1267  0.6712
   35MOL   C122 9030   0.699   7.303   4.580  0.1197  0.2774 -0.8022
   35MOL   C123 9031   0.911   7.178   4.477 -0.0993 -0.6283  0.2692
   35MOL   H124 9032   1.115   7.329   4.533  1.8184  1.2390  0.3408
   35MOL   H125 9033   1.114   7.497   4.518 -1.1680  0.1974 -1.2914
   35MOL   H126 9034   0.883   7.496   4.630  0.7121  0.2296  0.6846
   35MOL   H127 9035   0.686   7.229   4.659 -0.6687  1.2091 -0.0360
   35MOL   H128 9036   0.639   7.274   4.494 -0.2280  0.0810 -0.5001
   35MOL   H129 9037   0.668   7.402   4.614  0.2692  0.4047 -1.0372
   35MOL   H130 9038   0.981   7.138   4.551 -2.0984 -0.2297  2.4430
   35MOL   H131 9039   0.953   7.212   4.383 -2.6916  1.8026 -0.0753
   35MOL   C132 9040   0.810   7.063   4.437  0.4359 -0.1630  0.1891
   35MOL   C133 9041   0.879   6.952   4.349  0.1876  0.4962  0.2689
   35MOL   C134 9042   0.846   6.825   4.335  0.5101  0.1890 -0.0756
   35MOL   C135 9043   0.933   6.724   4.255  0.5507  0.0734 -0.5405
   35MOL   C136 9044   0.717   6.770   4.391 -0.7333  0.4685 -0.0433
   35MOL   H137 9045   0.731   7.100   4.372 -0.7525 -0.4915  1.4478
   35MOL   H138 9046   0.759   7.030   4.527 -2.0308 -0.2561 -1.1988
   35MOL   H139 9047   0.969   6.982   4.297  0.2007 -1.2188 -0.7516
   35MOL   H140 9048   0.894   6.700   4.156 -1.4357 -1.5756  0.5845
   35MOL   H141 9049   0.940   6.627   4.305  2.9399  0.1851 -0.5971
   35MOL   H142 9050   1.035   6.762   4.247  0.1653  1.1802 -0.2467
   35MOL   H143 9051   0.638   6.840   4.417 -0.3304  0.9160 -0.0342
   35MOL   H144 9052   0.739   6.724   4.488 -1.0074  0.9334  0.2417
   35MOL   C145 9053   0.643   6.658   4.311  0.0650  0.1791 -0.4849
   35MOL   C146 9054   0.601   6.711   4.172 -0.0286 -0.6338  0.6562
   35MOL   C147 9055   0.480   6.770   4.140  0.3852  0.1727  0.2034
   35MOL   C148 9056   0.462   6.810   3.996  0.4478  0.6885 -0.0467
   35MOL   C149 9057   0.368   6.793   4.239  0.0441  0.3396 -0.0992
   35MOL   H150 9058   0.558   6.633   4.374  0.0650  0.6598 -0.2925
   35MOL   H151 9059   0.703   6.568   4.300  2.1356  1.1073  2.7271
   35MOL   H152 9060   0.664   6.684   4.089 -0.2096 -3.4437  1.3614
   35MOL   H153 9061   0.432   6.915   4.000 -0.0775  0.4620  3.1529
   35MOL   H154 9062   0.379   6.748   3.964  0.8744 -1.1497  2.2794
   35MOL   H155 9063   0.552   6.794   3.936 -0.4406 -0.7477 -1.0030
   35MOL   H156 9064   0.334   6.896   4.225 -2.2520 -0.0929  2.0335
   35MOL   H157 9065   0.405   6.780   4.341 -1.9397 -0.0296  0.5883
   35MOL   C158 9066   0.248   6.698   4.229 -0.4435 -0.3327  0.4810
   35MOL   C159 9067   0.152   6.711   4.348 -0.8386  0.7184 -0.0833
   35MOL   C160 9068   0.031   6.775   4.340  0.8282  0.0036  0.0905
   35MOL   C161 9069   7.857   6.840   4.218  0.1585 -0.2605 -0.6176
   35MOL   C162 9070   7.814   6.789   4.463  0.2503 -0.4601  0.7720
   35MOL   H163 9071   0.278   6.594   4.215 -0.1210 -0.1951  0.1419
   35MOL   H164 9072   0.199   6.724   4.136  0.2881  1.2374  0.5243
   35MOL   H165 9073   0.187   6.677   4.443 -1.0257  1.8938  0.4204
   35MOL   H166 9074   0.019   6.818   4.119 -2.1996 -1.0700 -1.4558
   35MOL   H167 9075   7.864   6.947   4.235 -2.1244 -0.0534 -0.7703
   35MOL   H168 9076   7.751   6.823   4.200  0.2485 -0.3129 -1.1223
   35MOL   H169 9077   7.802   6.685   4.491 -1.6638 -0.2676  0.7325
   35MOL   H170 9078   7.720   6.832   4.431  3.3407  4.5560 -2.3105
   35MOL   C171 9079   0.009   6.867   4.574  0.2407  0.0593 -0.6417
   35MOL   C172 9080   7.792   6.929   4.679  0.4437  0.8100 -0.3712
   35MOL   C173 9081   7.771   6.881   4.802  0.2116 -0.1617  0.2764
   35MOL   C174 9082   7.817   6.752   4.860 -0.6191  0.4624  0.6402
   35MOL   C175 9083   7.701   6.960   4.899  0.1011  0.3141 -0.4154
   35MOL   H176 9084   0.055   6.958   4.534  2.0902 -1.1427 -1.2930
   35MOL   H177 9085   0.083   6.805   4.625 -0.8118 -1.1733 -0.6106
   35MOL   H178 9086   7.757   7.025   4.647  0.1679  1.4848  1.8898
   35MOL   H179 9087   7.877   6.700   4.786  0.3600  1.7001  0.5441
   35MOL   H180 9088   7.729   6.691   4.881 -0.1058 -1.3023 -2.0740
   35MOL   H181 9089   7.878   6.757   4.950  1.5960  0.6058 -0.8265
   35MOL   H182 9090   7.632   6.893   4.950 -1.3743  2.4027  0.4150
   35MOL   H183 9091   7.639   7.032   4.845 -1.0324 -1.2259 -1.2100
   35MOL   C184 9092   7.791   7.032   5.006  0.1472  0.1711 -0.9292
   35MOL   C185 9093   7.715   7.161   5.042 -0.3032 -0.3473 -0.6126
   35MOL   C186 9094   7.661   7.186   5.160  0.5469 -0.0298 -0.2600
   35MOL   C187 9095   7.602   7.317   5.209  0.4205  0.0915 -0.1106
   35MOL   C188 9096   7.649   7.080   5.268  0.3921  0.6436  0.2778
   35MOL   H189 9097   0.006   7.054   4.955  0.2372 -0.5839 -1.0919
   35MOL   H190 9098   7.810   6.963   5.087  1.2472  1.3278 -0.1972
   35MOL   H191 9099   7.723   7.244   4.974 -2.9448 -0.2861 -0.8939
   35MOL   H192 9100   7.660   7.343   5.298 -0.3240  0.8938  0.1495
   35MOL   H193 9101   7.499   7.308   5.244  0.5808  0.8383  0.5627
   35MOL   H194 9102   7.609   7.385   5.124 -0.1151 -0.0190 -0.2456
   35MOL   H195 9103   7.632   6.984   5.220  1.0640 -0.8129  2.8253
   35MOL   H196 9104   7.557   7.107   5.320 -0.3638  1.0196 -1.2307
   35MOL   C197 9105   7.777   7.064   5.356  0.1389 -0.6178 -0.9157
   35MOL   C198 9106   7.751   6.988   5.492  0.4035  0.2860  0.0838
   35MOL   C199 9107   7.699   7.042   5.603 -0.0836 -0.9680 -0.1555
   35MOL   C200 9108   7.693   6.973   5.738  0.3692 -0.4003  0.4478
   35MOL   C201 9109   7.641   7.185   5.616  0.3103  0.8541  0.3261
   35MOL   H202 9110   7.821   7.159   5.385 -1.9572  0.6783 -1.8413
   35MOL   H203 9111   7.855   7.006   5.307  0.5527 -1.2477  0.4767
   35MOL   H204 9112   7.788   6.887   5.496  2.0549  0.8793  0.0143
   35MOL   H205 9113   7.734   6.872   5.737 -1.0244 -0.9680 -0.0599
   35MOL   H206 9114   7.593   6.961   5.780 -0.5896  3.1688 -0.5815
   35MOL   H207 9115   7.751   7.028   5.812 -0.0111 -2.3710  2.2487
   35MOL   H208 9116   7.677   7.249   5.535 -0.6029  1.5740  0.4874
   35MOL   H209 9117   7.686   7.234   5.702  0.2264  0.6868  0.4649
   35MOL   C210 9118   7.484   7.194   5.641 -0.1310  0.4050 -0.4573
   35MOL   C211 9119   7.440   7.325   5.704  0.4326 -0.0825 -0.5122
   35MOL   C212 9120   7.393   7.430   5.634  0.6784 -0.3574  0.4922
   35MOL   C213 9121   7.355   7.557   5.705  0.7759 -0.4725 -1.0320
   35MOL   C214 9122   7.372   7.443   5.487 -0.0420  0.1072 -0.1216
   35MOL   H215 9123   7.446   7.112   5.702  1.3039 -0.3381 -0.5481
   35MOL   H216 9124   7.432   7.180   5.546 -0.7267 -1.9466  0.1986
   35MOL   H217 9125   7.445   7.334   5.811 -1.2383 -1.8978 -0.2543
   35MOL   H218 9126   7.384   7.649   5.653 -1.6030  0.3845 -0.9178
   35MOL   H219 9127   7.381   7.573   5.809 -1.3462  2.1703 -0.8552
   35MOL   H220 9128   7.246   7.554   5.697  0.6459  1.5259 -0.2653
   35MOL   H221 9129   7.401   7.360   5.422 -0.7442 -0.8829  0.8050
   35MOL   H222 9130   7.431   7.529   5.456 -2.2869  1.9368  0.5648
   35MOL   C223 9131   7.226   7.464   5.445 -0.3248  0.3489  0.0773
   35MOL   C224 9132   7.212   7.473   5.297 -0.3833  0.0905 -0.6166
   35MOL   C225 9133   7.198   7.589   5.223  0.2906  0.4294  0.2222
   35MOL   C226 9134   7.165   7.585   5.076  0.4010 -0.8095 -0.0327
   35MOL   C227 9135   7.228   7.725   5.282  0.1422  0.6345  0.3371
   35MOL   H228 9136   7.192   7.563   5.475 -4.0895 -0.3121 -1.7602
   35MOL   H229 9137   7.155   7.395   5.490  1.6257 -0.2697  2.3357
   35MOL   H230 9138   7.211   7.382   5.239 -1.2102 -1.3634  1.6391
   35MOL   H231 9139   7.157   7.484   5.035  2.7490 -1.0554  0.0252
   35MOL   H232 9140   7.229   7.652   5.019 -0.2775  2.2868  2.7488
   35MOL   H233 9141   7.074   7.644   5.067  0.6494 -0.9319 -4.5370
   35MOL   H234 9142   7.288   7.784   5.213 -0.0254  1.1708  0.6506
   35MOL   H235 9143   7.287   7.716   5.373 -0.9073 -0.5421  0.9153
   35MOL   C236 9144   7.102   7.806   5.324 -0.1105 -0.1000  0.0335
   35MOL   C237 9145   7.139   0.072   5.352 -0.1848 -0.0903  0.4612
   35MOL   C238 9146   7.209   0.119   5.456  0.0734  0.6148  0.2224
   35MOL   C239 9147   7.234   0.264   5.471 -0.1991 -0.4231  0.0562
   35MOL   C240 9148   7.251   0.038   5.582 -0.0149  0.3866 -0.3889
   35MOL   H241 9149   7.056   7.758   5.410 -0.0364  1.0281  0.7070
   35MOL   H242 9150   7.031   7.794   5.242 -1.1032  1.4539  0.6491
   35MOL   H243 9151   7.101   0.138   5.276  0.3753  0.2393  0.4647
   35MOL   H244 9152   7.340   0.278   5.490  0.0010 -1.2635 -0.4234
   35MOL   H245 9153   7.185   0.292   5.564  1.2936  0.3542  0.6204
   35MOL   H246 9154   7.204   0.327   5.387  1.0740  0.2733  0.1086
   35MOL   H247 9155   7.358   0.050   5.600 -0.2882 -0.4462  1.9152
   35MOL   H248 9156   7.227   7.813   5.559  0.3395  0.6096 -1.8704
   35MOL   C249 9157   7.181   0.069   5.713  0.6255 -0.5067  0.9013
   35MOL   C250 9158   7.025   0.053   5.705 -0.8826  0.1880  0.2288
   35MOL   C251 9159   6.960   7.815   5.713 -0.1794 -0.7048 -0.2450
   35MOL   C252 9160   6.812   7.817   5.693  0.6438  0.3470 -0.3710
   35MOL   C253 9161   7.012   7.678   5.757 -0.8903  0.2322  0.1294
   35MOL   H254 9162   7.224   0.161   5.754  0.6822 -0.0181 -0.2266
   35MOL   H255 9163   7.213   7.866   5.777 -2.8862 -2.4449  0.2995
   35MOL   H256 9164   6.975   0.143   5.674 -1.0795 -0.0414 -0.1178
   35MOL   H257 9165   6.751   7.839   5.781  0.7465 -0.4030 -0.1140
   35MOL   H258 9166   6.790   7.720   5.649  0.6582 -0.1100  0.6263
   35MOL   H259 9167   6.790   0.015   5.618  2.3293  2.7948  1.5546
   35MOL   H260 9168   6.963   7.639   5.846  0.8158 -2.3671 -0.0035
   35MOL   H261 9169   7.117   7.690   5.786 -0.7636 -1.1620  0.2955
   35MOL   H262 9170   7.003   7.612   5.671  0.0671 -0.9768  0.9256
   36MOL     C1 9171   5.547   2.680   4.722 -0.4374 -0.9732 -0.4980
   36MOL     C2 9172   5.553   2.657   4.877  0.1390 -0.3259  1.1928
   36MOL     C3 9173   5.445   2.589   4.932  0.0686  0.4216 -0.0299
   36MOL     C4 9174   5.445   2.547   5.073 -0.2134  0.4143 -0.2043
   36MOL     C5 9175   5.315   2.546   4.856  0.1505  0.8803  0.0182
   36MOL     H6 9176   5.523   2.585   4.676 -1.0968 -0.9816 -0.1354
   36MOL     H7 9177   5.462   2.744   4.700 -0.3557 -0.2506  1.1824
   36MOL     H8 9178   5.645   2.671   4.930  1.8380 -3.4900 -0.7646
   36MOL     H9 9179   5.486   2.446   5.074  1.8923  1.2425  0.3466
   36MOL    H10 9180   5.359   2.542   5.140  1.6768 -0.7384  2.2362
   36MOL    H11 9181   5.517   2.607   5.128 -0.0374 -0.0074  0.0280
   36MOL    H12 9182   5.282   2.446   4.886 -0.1498  0.2443 -2.3154
   36MOL    H13 9183   5.327   2.533   4.748  1.9041  1.0630  0.1754
   36MOL    H14 9184   5.638   2.715   4.672  0.9334  0.9132  3.0766
   36MOL    C15 9185   5.208   2.656   4.880 -0.0338 -0.1112  0.4435
   36MOL    C16 9186   5.069   2.619   4.834 -0.2084  0.6700 -0.0587
   36MOL    C17 9187   4.991   2.696   4.760  0.5420  0.5318 -0.3474
   36MOL    C18 9188   4.849   2.643   4.721 -0.1655  0.1256 -0.2527
   36MOL    C19 9189   5.007   2.838   4.726  0.9004 -0.7809  0.8719
   36MOL    H20 9190   5.251   2.744   4.832  0.0522 -0.3020  0.1656
   36MOL    H21 9191   5.198   2.680   4.985 -0.7461 -1.8975  0.8030
   36MOL    H22 9192   5.053   2.515   4.862  3.2332 -0.2906 -1.4123
   36MOL    H23 9193   4.772   2.680   4.788  2.5593  1.9982  1.9049
   36MOL    H24 9194   4.842   2.534   4.727 -1.5220  0.1751 -0.7157
   36MOL    H25 9195   4.816   2.670   4.620  0.3744  2.2722  0.1217
   36MOL    H26 9196   5.083   2.899   4.775  0.7441  2.2381 -2.4347
   36MOL    H27 9197   4.912   2.881   4.759  1.9528  1.0343  1.6076
   36MOL    C28 9198   5.024   2.863   4.575  0.2581 -0.2644  0.4317
   36MOL    C29 9199   5.049   3.008   4.539 -0.6221 -0.0473  0.6078
   36MOL    C30 9200   5.161   3.063   4.489 -1.4887 -0.2598  0.1355
   36MOL    C31 9201   5.175   3.211   4.459  0.0696  0.1771 -0.2498
   36MOL    C32 9202   5.282   2.980   4.461  0.0045  0.1058 -0.4744
   36MOL    H33 9203   4.941   2.821   4.517 -0.6559  0.3926  1.2570
   36MOL    H34 9204   5.107   2.797   4.546  0.8517  0.7143 -0.1265
   36MOL    H35 9205   4.961   3.060   4.576 -1.0235  0.6853 -1.3216
   36MOL    H36 9206   5.096   3.267   4.508 -0.8295 -0.7796 -0.5815
   36MOL    H37 9207   5.175   3.229   4.351 -0.2058  1.6904 -0.0098
   36MOL    H38 9208   5.266   3.251   4.503 -0.1850  3.0645 -2.2185
   36MOL    H39 9209   5.288   2.885   4.514  3.4572  1.4341  1.7457
   36MOL    H40 9210   5.368   3.040   4.494  0.8147 -0.5748 -1.3382
   36MOL    C41 9211   5.308   2.944   4.314  0.1727 -0.6548  0.1780
   36MOL    C42 9212   5.451   2.889   4.294  0.0019  0.6176 -0.0844
   36MOL    C43 9213   5.559   2.964   4.276 -0.6303  0.2623  0.2059
   36MOL    C44 9214   5.694   2.894   4.278 -0.2814 -0.1584 -0.2400
   36MOL    C45 9215   5.559   3.115   4.257  0.2734  0.1393 -0.4660
   36MOL    H46 9216   5.278   3.033   4.259 -2.2990 -2.2984 -1.2538
   36MOL    H47 9217   5.242   2.866   4.275 -1.0461  1.4868 -2.2318
   36MOL    H48 9218   5.458   2.785   4.325  1.7333  1.1624  1.4347
   36MOL    H49 9219   5.681   2.789   4.304  1.6537 -1.0246 -2.5733
   36MOL    H50 9220   5.757   2.925   4.362 -1.8971  1.3425  0.4614
   36MOL    H51 9221   5.745   2.905   4.183  1.4001 -1.4412  0.4930
   36MOL    H52 9222   5.647   3.150   4.310 -0.1382 -1.8300  1.6035
   36MOL    H53 9223   5.475   3.155   4.315 -0.2238 -1.4613 -0.0507
   36MOL    C54 9224   5.565   3.150   4.108  0.1349  0.4944  0.7041
   36MOL    C55 9225   5.545   3.292   4.075 -0.1135 -0.0008  0.0823
   36MOL    C56 9226   5.488   3.345   3.970  0.1556  0.0554 -0.2306
   36MOL    C57 9227   5.487   3.495   3.957  0.0401  0.2199 -0.3083
   36MOL    C58 9228   5.433   3.268   3.855 -0.2038 -0.2028  0.3584
   36MOL    H59 9229   5.486   3.091   4.062 -0.3260  0.9548  0.9074
   36MOL    H60 9230   5.659   3.122   4.060 -0.1771  0.4692  0.1041
   36MOL    H61 9231   5.585   3.362   4.147  2.5403 -0.5318 -0.8058
   36MOL    H62 9232   5.392   3.538   3.990 -0.3076 -1.3855  0.8459
   36MOL    H63 9233   5.500   3.522   3.852 -0.8416  0.3029 -0.3949
   36MOL    H64 9234   5.560   3.546   4.020  0.3962  0.0857 -0.6083
   36MOL    H65 9235   5.498   3.181   3.848 -0.8098 -0.5244 -1.4394
   36MOL    H66 9236   5.462   3.311   3.759  1.9430  0.6125  1.3438
   36MOL    C67 9237   5.285   3.227   3.877  0.0655  0.1818  0.0356
   36MOL    C68 9238   5.228   3.124   3.781  0.3459  0.1893  0.2633
   36MOL    C69 9239   5.133   3.143   3.692 -0.1887  0.0234 -0.2561
   36MOL    C70 9240   5.088   3.024   3.604  0.0740  0.2977 -0.5391
   36MOL    C71 9241   5.093   3.278   3.640 -0.5930 -0.1134  0.1383
   36MOL    H72 9242   5.228   3.320   3.876  0.7226  0.6249  2.1949
   36MOL    H73 9243   5.273   3.192   3.979 -1.1384  3.0945  0.9439
   36MOL    H74 9244   5.257   3.022   3.799 -2.3202 -0.7268 -0.4994
   36MOL    H75 9245   5.080   2.932   3.662 -0.5615  0.9970  0.4955
   36MOL    H76 9246   5.165   3.006   3.530  2.6033  1.2403  1.7939
   36MOL    H77 9247   4.995   3.043   3.549  0.9621  0.3451 -2.0449
   36MOL    H78 9248   5.068   3.271   3.534 -1.5255 -2.9661  0.5189
   36MOL    H79 9249   5.179   3.341   3.665  1.1644 -2.9489  1.4904
   36MOL    C80 9250   4.971   3.320   3.723 -0.3944  0.3737 -0.0073
   36MOL    C81 9251   4.851   3.228   3.697 -0.8705  0.1638  0.2034
   36MOL    C82 9252   4.756   3.225   3.603  0.3727 -0.1276  0.1388
   36MOL    C83 9253   4.757   3.323   3.489 -0.3927  0.7103  0.3814
   36MOL    C84 9254   4.651   3.119   3.604  0.2072  0.1862  0.2818
   36MOL    H85 9255   4.941   3.420   3.692 -0.8240 -0.4689 -2.3769
   36MOL    H86 9256   4.992   3.333   3.829  1.6082 -1.6167 -0.1275
   36MOL    H87 9257   4.849   3.146   3.767 -3.3448  1.5942  1.9088
   36MOL    H88 9258   4.839   3.394   3.497  0.9351 -0.6302 -0.9253
   36MOL    H89 9259   4.659   3.369   3.477 -0.1513  1.1415  0.0896
   36MOL    H90 9260   4.774   3.255   3.406 -0.8480  1.1198 -0.0454
   36MOL    H91 9261   4.683   3.041   3.673 -0.7063 -0.2855  0.1883
   36MOL    H92 9262   4.643   3.077   3.504  1.2424 -0.4769  0.4686
   36MOL    C93 9263   4.513   3.143   3.661  0.2032 -0.2046  0.2954
   36MOL    C94 9264   4.447   3.021   3.718  0.0974 -0.4979  0.0640
   36MOL    C95 9265   4.346   3.016   3.808  0.4146  0.0916 -0.1078
   36MOL    C96 9266   4.267   2.883   3.840  0.3954  0.3142 -0.5676
   36MOL    C97 9267   4.286   3.148   3.874 -0.0541 -0.8436 -0.5383
   36MOL    H98 9268   4.464   3.187   3.574  0.9961  0.7586  0.3208
   36MOL    H99 9269   4.525   3.217   3.741  1.5625  0.0058 -0.0977
   36MOL   H100 9270   4.490   2.927   3.685  0.9179 -0.0423 -0.1807
   36MOL   H101 9271   4.175   2.878   3.782  0.2405 -0.1357 -0.2823
   36MOL   H102 9272   4.334   2.799   3.819  0.9590 -0.1150  2.7875
   36MOL   H103 9273   4.244   2.882   3.946 -1.9171 -0.8323 -1.0447
   36MOL   H104 9274   4.179   3.134   3.884  0.0896 -0.6905  1.3003
   36MOL   H105 9275   4.285   3.237   3.812 -0.0333 -2.0212 -2.2824
   36MOL   C106 9276   4.351   3.176   4.015  0.2583 -0.2710 -0.4317
   36MOL   C107 9277   4.296   3.299   4.082 -0.2384  0.7442 -0.4122
   36MOL   C108 9278   4.201   3.301   4.173 -0.0717  0.1011 -0.6944
   36MOL   C109 9279   4.133   3.171   4.221  0.2567  0.1384  0.2316
   36MOL   C110 9280   4.148   3.434   4.229  0.2664  0.1743  0.1191
   36MOL   H111 9281   4.455   3.200   3.990 -0.1181 -0.5257 -2.3505
   36MOL   H112 9282   4.348   3.087   4.077 -0.9855 -0.9966 -1.5193
   36MOL   H113 9283   4.333   3.387   4.032 -0.6355 -1.6383 -5.1694
   36MOL   H114 9284   4.153   3.081   4.162 -0.3189 -0.2507  0.6175
   36MOL   H115 9285   4.174   3.130   4.313  0.9266 -0.9535 -0.5398
   36MOL   H116 9286   4.024   3.179   4.226  0.0533 -0.9266 -1.9986
   36MOL   H117 9287   4.050   3.452   4.185  0.1153 -0.7777  0.0408
   36MOL   H118 9288   4.204   3.511   4.177 -0.8723  0.6461 -0.4316
   36MOL   C119 9289   4.141   3.447   4.377  0.3699  0.5310 -0.4073
   36MOL   C120 9290   4.102   3.588   4.417  0.0383  0.2227  0.7182
   36MOL   C121 9291   4.163   3.679   4.495  0.2252 -0.6157 -0.1188
   36MOL   C122 9292   4.115   3.827   4.501 -0.4033  0.1978  0.0873
   36MOL   C123 9293   4.289   3.649   4.577  0.7881 -0.7315  0.1160
   36MOL   H124 9294   4.231   3.423   4.434  0.4585 -1.7105 -1.4276
   36MOL   H125 9295   4.063   3.383   4.420 -0.1774  1.5319  0.1056
   36MOL   H126 9296   4.017   3.634   4.369  1.1652  1.9178  0.2966
   36MOL   H127 9297   4.149   3.877   4.410  0.5947  0.1853  0.4392
   36MOL   H128 9298   4.152   3.887   4.584  0.5073 -0.1974 -0.0236
   36MOL   H129 9299   4.007   3.836   4.503 -0.3065  1.3710  0.8982
   36MOL   H130 9300   4.332   3.560   4.529 -1.0363 -0.3318 -2.3482
   36MOL   H131 9301   4.268   3.634   4.683 -0.7916  1.4658  0.1465
   36MOL   C132 9302   4.396   3.757   4.546  0.0167  0.4732  0.1661
   36MOL   C133 9303   4.533   3.730   4.601 -0.5570  0.2265 -0.2507
   36MOL   C134 9304   4.639   3.812   4.619  0.3647  0.5761 -0.2757
   36MOL   C135 9305   4.771   3.757   4.665 -0.2642 -0.1451  0.1163
   36MOL   C136 9306   4.629   3.957   4.576 -0.7499 -0.3043  0.1282
   36MOL   H137 9307   4.367   3.857   4.578  3.5660  1.3089  0.9945
   36MOL   H138 9308   4.413   3.772   4.439 -2.6241  1.5837 -0.1507
   36MOL   H139 9309   4.560   3.625   4.606  2.2821  1.0317  3.0328
   36MOL   H140 9310   4.763   3.654   4.697 -1.3697  0.0829  0.5757
   36MOL   H141 9311   4.812   3.812   4.750 -0.4783  1.0457 -0.5288
   36MOL   H142 9312   4.845   3.764   4.585 -0.0001 -0.8229  0.3025
   36MOL   H143 9313   4.682   4.025   4.643 -0.0405  0.2884 -1.0012
   36MOL   H144 9314   4.531   4.004   4.585 -0.2325  1.3764 -2.4097
   36MOL   C145 9315   4.693   3.961   4.433  0.3425  0.3568  0.0435
   36MOL   C146 9316   4.700   4.105   4.378 -0.4686  0.1399 -0.6052
   36MOL   C147 9317   4.817   4.176   4.357  0.2040  0.3348  0.6936
   36MOL   C148 9318   4.808   4.313   4.286  0.5630 -0.2484 -0.9326
   36MOL   C149 9319   4.957   4.116   4.375 -0.5918  0.8536 -0.1527
   36MOL   H150 9320   4.646   3.890   4.365 -0.4707 -0.3544  1.3271
   36MOL   H151 9321   4.797   3.930   4.438  0.0541 -0.8313 -1.1443
   36MOL   H152 9322   4.611   4.165   4.368  0.8974  1.7353 -3.9419
   36MOL   H153 9323   4.710   4.362   4.287  0.3510 -0.3954  4.5259
   36MOL   H154 9324   4.835   4.312   4.181 -2.8724  0.7846 -1.9090
   36MOL   H155 9325   4.867   4.385   4.343  1.7119 -2.1805  0.3802
   36MOL   H156 9326   5.025   4.167   4.306  0.3187 -1.1251 -0.7732
   36MOL   H157 9327   4.952   4.011   4.347  0.9689  0.2173  1.8779
   36MOL   C158 9328   5.015   4.138   4.519 -0.6068  0.2327  0.4105
   36MOL   C159 9329   5.164   4.123   4.536 -0.0532  0.5067 -0.2946
   36MOL   C160 9330   5.232   4.011   4.583 -0.0866  0.2228  0.0917
   36MOL   C161 9331   5.166   3.887   4.640  0.2863 -0.1047 -0.4882
   36MOL   C162 9332   5.387   4.021   4.607 -0.0845  0.1870  0.3652
   36MOL   H163 9333   4.960   4.092   4.601 -0.0586  2.1781  1.9063
   36MOL   H164 9334   4.993   4.243   4.541 -2.9000  0.1088 -1.1261
   36MOL   H165 9335   5.226   4.210   4.518  1.5210 -0.8922 -1.8117
   36MOL   H166 9336   5.202   3.879   4.743 -1.5697 -1.7793  0.0503
   36MOL   H167 9337   5.202   3.795   4.593 -0.2192 -0.8595  0.5813
   36MOL   H168 9338   5.058   3.898   4.631  0.2025 -0.2311  0.2736
   36MOL   H169 9339   5.418   4.018   4.712  0.7932 -0.9610  0.0842
   36MOL   H170 9340   5.428   4.117   4.576 -0.6135  0.5920  0.8914
   36MOL   C171 9341   5.461   3.917   4.526  0.3761  0.5232  0.2991
   36MOL   C172 9342   5.614   3.914   4.556  0.3059  0.3636 -0.1057
   36MOL   C173 9343   5.684   3.803   4.577  0.3851  0.7082 -0.0142
   36MOL   C174 9344   5.635   3.656   4.562 -0.0631  0.0594  0.0986
   36MOL   C175 9345   5.833   3.811   4.595  0.0717 -0.4043 -0.2094
   36MOL   H176 9346   5.448   3.956   4.425 -2.5942  1.3047  0.9284
   36MOL   H177 9347   5.414   3.818   4.521  1.3168  0.0029  1.4942
   36MOL   H178 9348   5.664   4.009   4.552  0.4952  0.3180  1.0678
   36MOL   H179 9349   5.662   3.602   4.653 -1.5997 -1.4609 -0.3125
   36MOL   H180 9350   5.674   3.600   4.478 -0.1733  0.5224 -0.2662
   36MOL   H181 9351   5.529   3.651   4.536  0.1354  0.6922 -0.8376
   36MOL   H182 9352   5.866   3.913   4.574 -0.3195 -0.3729 -0.6482
   36MOL   H183 9353   5.878   3.750   4.517 -2.2775 -0.5833 -1.4415
   36MOL   C184 9354   5.876   3.768   4.733  0.4870  0.4799 -1.1700
   36MOL   C185 9355   6.024   3.777   4.753  0.1134 -0.8843  0.3624
   36MOL   C186 9356   6.120   3.691   4.713 -0.4449  0.4628  0.2284
   36MOL   C187 9357   6.269   3.696   4.747  0.4170  0.2219 -0.4516
   36MOL   C188 9358   6.090   3.563   4.637 -0.5643  0.3740  0.1169
   36MOL   H189 9359   5.853   3.663   4.748  2.3405  0.3469  1.0995
   36MOL   H190 9360   5.818   3.815   4.814  0.3089  1.8825 -2.0939
   36MOL   H191 9361   6.055   3.866   4.806 -1.0948  0.3089 -0.9052
   36MOL   H192 9362   6.325   3.602   4.743  1.7056  0.9596  0.2622
   36MOL   H193 9363   6.269   3.743   4.845 -2.1500 -0.4211 -0.0952
   36MOL   H194 9364   6.319   3.753   4.668 -0.4050  1.7044  0.0836
   36MOL   H195 9365   5.984   3.563   4.612 -0.3374  1.5362 -0.9005
   36MOL   H196 9366   6.115   3.475   4.696  2.4659  0.1770 -1.3446
   36MOL   C197 9367   6.167   3.560   4.501 -0.1771  0.4490  0.0798
   36MOL   C198 9368   6.174   3.412   4.435 -0.0259 -0.5434  0.7330
   36MOL   C199 9369   6.273   3.319   4.457 -0.4323 -0.1445  0.8334
   36MOL   C200 9370   6.265   3.188   4.396 -0.2606  0.4055 -0.4809
   36MOL   C201 9371   6.398   3.339   4.541  0.0467 -0.1719  0.2107
   36MOL   H202 9372   6.270   3.595   4.507  0.1258 -0.5726  0.9290
   36MOL   H203 9373   6.111   3.617   4.426 -1.6699 -0.2302  0.6490
   36MOL   H204 9374   6.086   3.383   4.379  0.7587 -0.8864 -0.3420
   36MOL   H205 9375   6.265   3.104   4.466  1.3442 -0.4631 -1.4703
   36MOL   H206 9376   6.350   3.171   4.330  0.9925  0.1766  1.1597
   36MOL   H207 9377   6.170   3.181   4.342  0.8472 -0.5269 -2.3675
   36MOL   H208 9378   6.430   3.443   4.544 -1.1249  0.1506  3.4735
   36MOL   H209 9379   6.488   3.288   4.507  0.2410  0.1513  0.2387
   36MOL   C210 9380   6.376   3.285   4.683 -0.1811  0.0353 -0.1869
   36MOL   C211 9381   6.502   3.239   4.748  0.1372  0.0885 -0.0091
   36MOL   C212 9382   6.543   3.115   4.788  0.0182 -0.0351  0.0347
   36MOL   C213 9383   6.685   3.087   4.829  0.0485  0.3832  0.0242
   36MOL   C214 9384   6.447   2.997   4.778 -1.0191  0.2593  0.4866
   36MOL   H215 9385   6.300   3.206   4.678 -0.5601  0.2655  1.7252
   36MOL   H216 9386   6.327   3.356   4.748 -0.1429  1.3776 -1.5909
   36MOL   H217 9387   6.570   3.322   4.762 -0.5414  0.6179  0.1458
   36MOL   H218 9388   6.756   3.052   4.753  1.6853 -0.9238  2.1127
   36MOL   H219 9389   6.668   3.011   4.905 -2.6521 -0.5296 -1.3872
   36MOL   H220 9390   6.732   3.173   4.876 -0.1709  1.2725 -1.3369
   36MOL   H221 9391   6.346   3.024   4.748 -0.9735 -0.1690 -0.0482
   36MOL   H222 9392   6.435   2.950   4.876  1.1553 -1.2101  0.0900
   36MOL   C223 9393   6.484   2.882   4.685 -0.3100 -0.0839  1.2229
   36MOL   C224 9394   6.378   2.776   4.651  0.0893 -0.6204  0.5621
   36MOL   C225 9395   6.362   2.648   4.688  0.0326 -0.3056 -0.4971
   36MOL   C226 9396   6.231   2.579   4.657  0.5625  0.7303 -0.1393
   36MOL   C227 9397   6.461   2.563   4.771  0.2905 -0.9039  0.0319
   36MOL   H228 9398   6.573   2.826   4.714 -0.7323 -1.4734 -0.1164
   36MOL   H229 9399   6.517   2.921   4.589 -0.7691 -3.5355 -0.4060
   36MOL   H230 9400   6.305   2.817   4.584  0.0745  1.0655  1.5910
   36MOL   H231 9401   6.162   2.562   4.740  1.4542 -2.4623  0.0011
   36MOL   H232 9402   6.238   2.482   4.607 -1.1163  0.3297  0.3622
   36MOL   H233 9403   6.179   2.645   4.588 -0.2281 -0.1847 -0.4174
   36MOL   H234 9404   6.403   2.481   4.814 -1.2074 -0.8618 -1.8376
   36MOL   H235 9405   6.486   2.627   4.856  1.6564 -1.9719  0.4638
   36MOL   C236 9406   6.574   2.511   4.673 -0.2978  0.2044  0.1066
   36MOL   C237 9407   6.675   2.607   4.614  0.8045 -0.0992  0.0026
   36MOL   C238 9408   6.809   2.611   4.637  0.0739  0.5012 -0.8521
   36MOL   C239 9409   6.905   2.691   4.556  0.0974  0.2502  0.0167
   36MOL   C240 9410   6.866   2.561   4.775  0.2467  0.4019  0.2181
   36MOL   H241 9411   6.534   2.456   4.588  3.4999  1.1278 -2.4099
   36MOL   H242 9412   6.633   2.437   4.727 -1.3484 -0.9536 -0.3130
   36MOL   H243 9413   6.639   2.665   4.530  0.0892  1.1701  1.1694
   36MOL   H244 9414   6.863   2.695   4.456  2.6231  1.4221 -1.0473
   36MOL   H245 9415   7.003   2.643   4.562  1.0722  2.1309 -0.4639
   36MOL   H246 9416   6.900   2.790   4.601  1.7469  0.2418  0.2676
   36MOL   H247 9417   6.963   2.515   4.759  0.0749 -0.3454  1.2778
   36MOL   H248 9418   6.810   2.481   4.824 -1.5312  2.2139  1.2021
   36MOL   C249 9419   6.897   2.669   4.872  0.0903 -0.6644 -0.5793
   36MOL   C250 9420   6.772   2.714   4.938  0.2834  0.6277 -0.3345
   36MOL   C251 9421   6.766   2.768   5.062  0.3770  0.3114  0.7782
   36MOL   C252 9422   6.636   2.823   5.117 -0.0856 -0.5824  0.1209
   36MOL   C253 9423   6.879   2.780   5.150  0.4278 -0.0586 -0.7041
   36MOL   H254 9424   6.949   2.743   4.812 -1.0878  1.7043  1.2270
   36MOL   H255 9425   6.971   2.638   4.945 -0.1531  2.5793  1.1371
   36MOL   H256 9426   6.692   2.717   4.865 -0.3832 -1.7500  0.2721
   36MOL   H257 9427   6.656   2.914   5.173 -2.9960  0.4674 -0.4816
   36MOL   H258 9428   6.581   2.738   5.159 -1.4748  0.2249 -0.0304
   36MOL   H259 9429   6.567   2.850   5.038  0.5683 -1.3074 -0.7140
   36MOL   H260 9430   6.878   2.881   5.190  0.4427  0.4493 -1.9685
   36MOL   H261 9431   6.979   2.780   5.108  1.2827  0.5189  1.2636
   36MOL   H262 9432   6.887   2.696   5.219 -1.0753 -1.5487 -2.3061
   37MOL     C1 9433   7.773   4.790   1.091  0.2781  0.0731  0.2243
   37MOL     C2 9434   7.873   4.860   1.184 -0.2344 -0.0716 -0.0119
   37MOL     C3 9435   7.863   4.988   1.236  0.3275 -1.2073 -0.5594
   37MOL     C4 9436   0.080   5.043   1.337  0.2910  0.5506  0.1272
   37MOL     C5 9437   7.747   5.076   1.199 -0.0914  0.5476 -0.6934
   37MOL     H6 9438   7.819   4.801   0.993  1.5087 -1.0918  0.6633
   37MOL     H7 9439   7.759   4.687   1.123  1.3430  0.3048  1.4968
   37MOL     H8 9440   0.075   4.792   1.204 -0.4131 -0.1483  0.4574
   37MOL     H9 9441   0.032   5.063   1.433 -0.2758  0.4149 -0.1311
   37MOL    H10 9442   0.112   5.140   1.298  0.9673  0.4511  0.4262
   37MOL    H11 9443   0.156   4.968   1.363 -0.5341  0.0036  0.9962
   37MOL    H12 9444   7.699   5.053   1.104 -3.6521  0.0875  1.1237
   37MOL    H13 9445   7.783   5.179   1.190 -0.1929  0.4155 -2.8072
   37MOL    H14 9446   7.679   4.846   1.092 -1.2628 -2.2781 -3.4405
   37MOL    C15 9447   7.640   5.093   1.304  0.3802  0.6309 -0.3074
   37MOL    C16 9448   7.569   4.964   1.339  0.4145 -0.2186  0.0309
   37MOL    C17 9449   7.444   4.936   1.295 -0.3951 -0.3908  0.3431
   37MOL    C18 9450   7.368   4.809   1.323  0.4328  0.5919 -0.3855
   37MOL    C19 9451   7.368   5.039   1.212  0.1030  0.2149 -0.5178
   37MOL    H20 9452   7.575   5.167   1.259 -0.3195 -0.0167 -0.3842
   37MOL    H21 9453   7.683   5.136   1.395  1.1959 -1.7824  0.4871
   37MOL    H22 9454   7.632   4.893   1.390  1.4177  0.2506 -0.5399
   37MOL    H23 9455   7.412   4.745   1.400 -3.3715  0.5631  1.8805
   37MOL    H24 9456   7.344   4.743   1.240  3.1138  0.5741 -1.2207
   37MOL    H25 9457   7.279   4.843   1.375  0.5773  1.3117 -0.5964
   37MOL    H26 9458   7.312   4.983   1.137  1.1741  0.8402 -1.8222
   37MOL    H27 9459   7.429   5.091   1.138 -0.1385  0.8529 -0.2784
   37MOL    C28 9460   7.293   5.138   1.303  0.0646  0.6568 -0.2427
   37MOL    C29 9461   7.223   5.244   1.230 -0.2066 -0.5959  0.4160
   37MOL    C30 9462   7.090   5.275   1.235 -0.3459  0.1367  0.4255
   37MOL    C31 9463   7.026   5.389   1.157 -0.4543  0.3783  0.1650
   37MOL    C32 9464   6.989   5.193   1.323 -0.2729 -0.2750 -0.1326
   37MOL    H33 9465   7.363   5.180   1.375  0.4272 -0.2411 -0.0755
   37MOL    H34 9466   7.222   5.087   1.368  1.4433  0.6242  1.2595
   37MOL    H35 9467   7.283   5.312   1.172  1.1276  1.3481  3.9018
   37MOL    H36 9468   6.985   5.471   1.216 -0.7264  1.3053 -1.2778
   37MOL    H37 9469   6.953   5.344   1.090 -0.3142  1.1184 -0.4963
   37MOL    H38 9470   7.098   5.438   1.091  0.0168  0.6112  0.8415
   37MOL    H39 9471   6.918   5.266   1.363 -1.3599 -0.4756 -1.6371
   37MOL    H40 9472   7.037   5.143   1.406  3.4008 -1.4332 -2.8391
   37MOL    C41 9473   6.907   5.098   1.231 -0.4197 -0.0217  0.0806
   37MOL    C42 9474   6.995   4.982   1.176  0.6283  0.1277 -0.4278
   37MOL    C43 9475   7.012   4.952   1.045 -0.0157 -0.2059  0.3670
   37MOL    C44 9476   7.098   4.838   0.994 -1.0596 -0.0859  0.1569
   37MOL    C45 9477   6.964   5.040   0.931  0.4289  1.3056  0.2014
   37MOL    H46 9478   6.841   5.149   1.161  2.7711  1.9604 -1.5644
   37MOL    H47 9479   6.831   5.035   1.278  1.3402 -1.9222  0.4353
   37MOL    H48 9480   7.048   4.929   1.254 -1.8932 -0.1802  1.1170
   37MOL    H49 9481   7.048   4.777   0.919 -2.2428  2.6145 -1.3238
   37MOL    H50 9482   7.132   4.776   1.078  0.9613  1.5006  0.5609
   37MOL    H51 9483   7.186   4.882   0.946  0.1967 -0.8714  1.6745
   37MOL    H52 9484   7.016   5.047   0.836 -1.4926  1.6657 -0.8660
   37MOL    H53 9485   6.970   5.140   0.974  3.2470  1.1554  0.2257
   37MOL    C54 9486   6.814   5.006   0.897 -1.2086  0.6536  0.4420
   37MOL    C55 9487   6.751   5.102   0.797  0.5682  0.0624 -0.0889
   37MOL    C56 9488   6.655   5.080   0.715  0.5987 -0.6892 -0.2656
   37MOL    C57 9489   6.611   5.188   0.618 -0.0455  0.8188 -0.3362
   37MOL    C58 9490   6.578   4.954   0.713  0.0285  0.1345  0.5438
   37MOL    H59 9491   6.753   4.995   0.986  0.2413 -1.2889  1.2381
   37MOL    H60 9492   6.835   4.908   0.854  1.1591  0.2287  2.4351
   37MOL    H61 9493   6.801   5.197   0.796 -0.0651  0.3918 -0.5581
   37MOL    H62 9494   6.684   5.268   0.602  1.8744 -0.6668  0.8294
   37MOL    H63 9495   6.514   5.220   0.656 -0.4322 -2.0956  1.2222
   37MOL    H64 9496   6.598   5.155   0.515  1.1196  0.0723 -0.2476
   37MOL    H65 9497   6.626   4.879   0.776  1.9913  1.4864  0.7051
   37MOL    H66 9498   6.583   4.911   0.613 -0.8620 -0.2150  0.6481
   37MOL    C67 9499   6.423   4.967   0.744  0.5297  0.0484  1.0043
   37MOL    C68 9500   6.351   4.849   0.679  0.1198  0.0088  0.2543
   37MOL    C69 9501   6.229   4.794   0.704  0.6757  0.3658  0.0078
   37MOL    C70 9502   6.164   4.698   0.606  0.1699  0.2316  0.3946
   37MOL    C71 9503   6.144   4.826   0.818  0.1273  0.6331  0.3261
   37MOL    H72 9504   6.384   5.058   0.698  2.2107  0.3940  0.2518
   37MOL    H73 9505   6.402   4.973   0.851 -3.3641  3.3466  0.2115
   37MOL    H74 9506   6.406   4.809   0.595 -0.3675  0.9943 -0.5467
   37MOL    H75 9507   6.170   4.598   0.649 -0.4362 -0.2042 -0.5059
   37MOL    H76 9508   6.209   4.691   0.506 -1.2465 -0.4363 -0.2087
   37MOL    H77 9509   6.058   4.715   0.587 -0.6940 -3.2540  1.7192
   37MOL    H78 9510   6.206   4.832   0.908 -0.1589  1.1959  0.4896
   37MOL    H79 9511   6.081   4.741   0.847  1.1911  0.6770  2.9074
   37MOL    C80 9512   6.048   4.943   0.786  0.0334 -0.0197 -0.7557
   37MOL    C81 9513   5.934   4.954   0.887  0.2504 -0.6914 -0.1443
   37MOL    C82 9514   5.864   5.065   0.912  0.4468  0.1086 -0.0424
   37MOL    C83 9515   5.887   5.199   0.845 -0.3071  0.3721  0.3443
   37MOL    C84 9516   5.771   5.073   1.035  0.5442  0.5326  0.4169
   37MOL    H85 9517   6.003   4.919   0.690 -1.9501 -1.4678  0.5002
   37MOL    H86 9518   6.100   5.038   0.771 -3.1513  2.0826  1.0036
   37MOL    H87 9519   5.933   4.873   0.959  2.5261 -0.3246  0.3089
   37MOL    H88 9520   5.895   5.186   0.737  0.1677 -1.1074  0.5556
   37MOL    H89 9521   5.982   5.245   0.871 -0.5910  2.8938 -2.8192
   37MOL    H90 9522   5.806   5.270   0.864  0.1824  0.9596  0.2429
   37MOL    H91 9523   5.780   5.172   1.081  1.1335  0.0254  1.3944
   37MOL    H92 9524   5.803   5.000   1.109  1.0035  0.3890  0.0771
   37MOL    C93 9525   5.620   5.057   1.001 -0.3159 -0.1947 -0.1984
   37MOL    C94 9526   5.530   5.038   1.125  0.1761  0.5775  0.2643
   37MOL    C95 9527   5.399   5.070   1.142  0.4607  0.5352 -0.2324
   37MOL    C96 9528   5.318   5.027   1.275 -0.5776 -0.2614 -0.0624
   37MOL    C97 9529   5.310   5.126   1.032 -0.4098  0.4141 -0.7225
   37MOL    H98 9530   5.607   4.969   0.939  0.4175 -0.0417 -0.5764
   37MOL    H99 9531   5.602   5.144   0.938  2.7308 -0.1897 -1.1531
   37MOL   H100 9532   5.574   4.993   1.213  1.8440 -0.4968 -1.0840
   37MOL   H101 9533   5.227   5.087   1.280 -0.8110 -0.4160 -2.0864
   37MOL   H102 9534   5.280   4.926   1.268 -0.3931 -0.2423 -1.7409
   37MOL   H103 9535   5.387   5.040   1.358  0.6785  0.2552 -1.1574
   37MOL   H104 9536   5.218   5.068   1.026 -0.0015 -0.2973 -0.2240
   37MOL   H105 9537   5.365   5.114   0.939 -0.1671  0.3720 -0.5738
   37MOL   C106 9538   5.281   5.278   1.049 -0.1434  0.2094  0.2409
   37MOL   C107 9539   5.139   5.301   1.104  0.4070  0.5454 -0.0075
   37MOL   C108 9540   5.098   5.396   1.186  0.7445  0.3851 -0.3802
   37MOL   C109 9541   5.201   5.500   1.234  0.1432 -0.3949 -0.1655
   37MOL   C110 9542   4.969   5.388   1.268 -0.1216  0.5463 -0.2763
   37MOL   H111 9543   5.283   5.324   0.950 -1.2431  0.2941  0.2481
   37MOL   H112 9544   5.360   5.329   1.104 -0.6371  1.4939 -0.2248
   37MOL   H113 9545   5.073   5.219   1.080  0.3376 -0.1845  2.5532
   37MOL   H114 9546   5.251   5.480   1.329 -2.6604 -1.6622  1.1063
   37MOL   H115 9547   5.270   5.520   1.152 -2.2949  1.1910 -1.9265
   37MOL   H116 9548   5.141   5.591   1.246  0.7986  0.1651 -1.0217
   37MOL   H117 9549   4.979   5.392   1.376  0.6872 -0.1820 -0.3213
   37MOL   H118 9550   4.922   5.294   1.242 -0.3295  0.1870  1.3939
   37MOL   C119 9551   4.873   5.504   1.239 -0.6946  0.9573  0.3454
   37MOL   C120 9552   4.732   5.475   1.279 -0.6375  0.7010  0.0769
   37MOL   C121 9553   4.624   5.555   1.251 -0.2816 -0.2426 -0.4108
   37MOL   C122 9554   4.486   5.507   1.293  0.6778 -0.0772 -0.5599
   37MOL   C123 9555   4.634   5.683   1.163 -0.3894  0.2296 -0.1410
   37MOL   H124 9556   4.888   5.550   1.141 -1.1112  1.9747  0.7490
   37MOL   H125 9557   4.890   5.581   1.314 -2.4788  2.1115 -0.4167
   37MOL   H126 9558   4.717   5.388   1.340 -0.4149  0.8961  0.4177
   37MOL   H127 9559   4.427   5.589   1.334  1.8688  0.2494  0.5278
   37MOL   H128 9560   4.467   5.423   1.360  1.3128 -0.3916 -0.7728
   37MOL   H129 9561   4.443   5.481   1.196  1.8850  2.3229 -1.7759
   37MOL   H130 9562   4.631   5.657   1.058  0.1584  0.3655 -0.1933
   37MOL   H131 9563   4.733   5.726   1.178 -0.9891  1.7867 -0.5281
   37MOL   C132 9564   4.524   5.788   1.205 -0.1334  0.9957  0.1475
   37MOL   C133 9565   4.553   5.926   1.143  0.3150 -0.1258  0.8964
   37MOL   C134 9566   4.467   6.032   1.172 -0.4425 -0.2828 -1.0566
   37MOL   C135 9567   4.496   6.172   1.117  0.2266  0.4096  0.5339
   37MOL   C136 9568   4.351   6.023   1.272 -0.5384 -0.3768  0.5349
   37MOL   H137 9569   4.517   5.797   1.313 -1.7269  0.2150  0.1191
   37MOL   H138 9570   4.429   5.747   1.172 -1.2398  2.8755  0.9422
   37MOL   H139 9571   4.635   5.948   1.075 -1.2846  2.0308 -0.3895
   37MOL   H140 9572   4.494   6.253   1.189 -0.5890  0.2908  0.6513
   37MOL   H141 9573   4.430   6.198   1.034  2.3455  0.0687 -1.3154
   37MOL   H142 9574   4.594   6.172   1.068 -0.3839 -2.4548 -0.7965
   37MOL   H143 9575   4.316   5.920   1.278 -0.6271 -0.3912 -0.2321
   37MOL   H144 9576   4.265   6.071   1.225 -0.1314 -0.6971 -0.5406
   37MOL   C145 9577   4.389   6.076   1.411  0.0693  0.3153 -0.5428
   37MOL   C146 9578   4.275   6.045   1.511  0.1059  0.1780  0.0175
   37MOL   C147 9579   4.287   5.968   1.618 -0.1642  0.2517 -0.0132
   37MOL   C148 9580   4.159   5.933   1.698  0.3838 -0.0579  0.3337
   37MOL   C149 9581   4.409   5.892   1.665  0.3170  0.3411 -0.3312
   37MOL   H150 9582   4.403   6.184   1.414  0.7248  0.2236 -0.1731
   37MOL   H151 9583   4.480   6.029   1.448  0.3472  1.5230  0.3784
   37MOL   H152 9584   4.187   6.105   1.492 -0.8663 -1.0612  0.4739
   37MOL   H153 9585   4.140   5.830   1.667  0.8735  0.5743 -2.2010
   37MOL   H154 9586   4.079   6.005   1.682  1.7739  1.2604 -0.8329
   37MOL   H155 9587   4.187   5.939   1.803  0.9078 -2.3781  0.3560
   37MOL   H156 9588   4.408   5.872   1.772 -0.6650  0.2605 -0.3491
   37MOL   H157 9589   4.496   5.955   1.650  1.0219  0.0649  2.3918
   37MOL   C158 9590   4.417   5.758   1.591  0.1411  0.3190 -0.3655
   37MOL   C159 9591   4.561   5.708   1.589  0.6897 -0.0539 -0.1876
   37MOL   C160 9592   4.619   5.636   1.685  1.2337 -0.1534  0.4011
   37MOL   C161 9593   4.537   5.594   1.812 -0.4782  0.1754 -0.5156
   37MOL   C162 9594   4.766   5.597   1.681  0.0201 -0.2874 -0.7508
   37MOL   H163 9595   4.378   5.767   1.490 -2.4574 -0.5605  0.5289
   37MOL   H164 9596   4.363   5.678   1.642  1.7451 -1.2166 -1.0188
   37MOL   H165 9597   4.611   5.769   1.515  0.6537  0.3546  0.1245
   37MOL   H166 9598   4.470   5.515   1.779 -0.9046  0.4755 -0.3816
   37MOL   H167 9599   4.483   5.681   1.850  1.2946 -0.2544  3.1789
   37MOL   H168 9600   4.604   5.556   1.889 -1.8495  1.1765  1.2278
   37MOL   H169 9601   4.809   5.636   1.773 -2.0983  1.0951 -0.3082
   37MOL   H170 9602   4.811   5.646   1.594  0.4823  2.4691  0.9682
   37MOL   C171 9603   4.788   5.448   1.678  0.0538 -0.0466 -0.3979
   37MOL   C172 9604   4.937   5.413   1.674 -0.1612  0.3359 -0.3054
   37MOL   C173 9605   4.977   5.293   1.634 -0.2004  0.7821 -0.3070
   37MOL   C174 9606   4.881   5.181   1.585 -0.5866 -1.0930 -0.0702
   37MOL   C175 9607   5.122   5.252   1.633 -0.3958 -0.1463  0.1237
   37MOL   H176 9608   4.735   5.401   1.595 -1.8706 -0.1699  0.8666
   37MOL   H177 9609   4.751   5.402   1.769  1.3013  0.1416  0.2159
   37MOL   H178 9610   5.003   5.491   1.709 -0.4094  0.6949 -0.6356
   37MOL   H179 9611   4.780   5.167   1.624 -1.7707  0.5126 -2.4902
   37MOL   H180 9612   4.918   5.079   1.583  0.0745 -0.8358 -3.0939
   37MOL   H181 9613   4.862   5.201   1.480 -0.6124  0.9653  0.3037
   37MOL   H182 9614   5.147   5.215   1.534  0.8948  1.1109 -0.0294
   37MOL   H183 9615   5.147   5.162   1.689 -0.1818  0.8936  1.7373
   37MOL   C184 9616   5.223   5.363   1.690  0.0302 -0.2217 -0.0189
   37MOL   C185 9617   5.366   5.321   1.668  0.0137 -0.0791  0.7449
   37MOL   C186 9618   5.465   5.292   1.754  0.5439  0.1537 -0.0979
   37MOL   C187 9619   5.604   5.273   1.693 -0.1969  0.0769  0.4645
   37MOL   C188 9620   5.458   5.305   1.909  0.0818  0.0422 -0.9389
   37MOL   H189 9621   5.221   5.391   1.796  1.7304  0.6665 -0.2146
   37MOL   H190 9622   5.194   5.455   1.639 -2.2818  0.0321  1.6584
   37MOL   H191 9623   5.392   5.327   1.563  0.6924 -2.0035  0.7876
   37MOL   H192 9624   5.668   5.201   1.743  0.9799 -1.5357 -3.2102
   37MOL   H193 9625   5.653   5.370   1.700 -0.1062  0.2483 -1.9383
   37MOL   H194 9626   5.587   5.261   1.586  2.0772  5.2410 -0.6679
   37MOL   H195 9627   5.489   5.211   1.955 -1.0353  0.0289 -0.1886
   37MOL   H196 9628   5.352   5.315   1.932  0.3667 -0.0509  0.4811
   37MOL   C197 9629   5.555   5.418   1.949  0.3236  1.0696  0.2323
   37MOL   C198 9630   5.546   5.441   2.103  0.9989  0.2815 -0.7358
   37MOL   C199 9631   5.627   5.416   2.206  0.2442 -1.0724 -0.5416
   37MOL   C200 9632   5.576   5.437   2.349 -0.2431 -0.2836 -1.2343
   37MOL   C201 9633   5.767   5.356   2.195 -0.0747  0.3482  0.0243
   37MOL   H202 9634   5.524   5.510   1.898 -2.0389  0.8928  1.2607
   37MOL   H203 9635   5.661   5.415   1.926  0.1799 -1.7136 -0.2215
   37MOL   H204 9636   5.447   5.473   2.132  1.0139 -1.3040  1.1832
   37MOL   H205 9637   5.580   5.343   2.403 -1.1046 -0.7567 -1.9775
   37MOL   H206 9638   5.477   5.481   2.359  0.0359 -0.1182  1.1620
   37MOL   H207 9639   5.656   5.492   2.399  0.0368 -0.8434 -1.0575
   37MOL   H208 9640   5.841   5.412   2.252  1.1153  0.0503 -1.2246
   37MOL   H209 9641   5.801   5.367   2.092 -0.7831  1.1070 -0.1286
   37MOL   C210 9642   5.772   5.207   2.230 -0.5884  0.1328 -0.6661
   37MOL   C211 9643   5.901   5.160   2.309  0.6786 -0.0105 -0.2338
   37MOL   C212 9644   6.012   5.099   2.267  0.4298 -0.2322  0.2456
   37MOL   C213 9645   6.119   5.056   2.361  0.0557  0.3667 -0.1254
   37MOL   C214 9646   6.032   5.055   2.122  0.1571 -0.6336  0.0288
   37MOL   H215 9647   5.778   5.155   2.134 -2.2788  1.9683 -1.8249
   37MOL   H216 9648   5.680   5.174   2.279 -0.2597  3.2708  2.2832
   37MOL   H217 9649   5.886   5.185   2.413  0.0062  3.2186 -1.0362
   37MOL   H218 9650   6.217   5.095   2.333 -0.4255  1.6051 -0.1376
   37MOL   H219 9651   6.121   4.948   2.367  0.1148  0.4146  1.0252
   37MOL   H220 9652   6.081   5.094   2.456 -0.3171  0.5801 -0.3609
   37MOL   H221 9653   5.935   5.040   2.074  0.1282  0.4063 -0.2435
   37MOL   H222 9654   6.084   4.960   2.118 -0.5263 -0.9927 -0.5303
   37MOL   C223 9655   6.111   5.159   2.036  0.0509 -0.1200 -0.2008
   37MOL   C224 9656   6.248   5.185   2.084  0.2458 -0.0519  0.5019
   37MOL   C225 9657   6.322   5.300   2.075 -0.1442 -0.6576 -0.4769
   37MOL   C226 9658   6.467   5.311   2.121  0.5181 -0.3691  0.2440
   37MOL   C227 9659   6.273   5.426   2.001 -0.3413 -0.0583 -0.4342
   37MOL   H228 9660   6.049   5.249   2.034  3.1326  2.0530 -1.6116
   37MOL   H229 9661   6.117   5.125   1.933  0.2505 -2.2331  0.4805
   37MOL   H230 9662   6.298   5.097   2.122  2.3548  0.0296 -2.0004
   37MOL   H231 9663   6.477   5.389   2.196  2.6127 -1.8537  1.5485
   37MOL   H232 9664   6.537   5.324   2.039  0.4718  1.9038  0.5366
   37MOL   H233 9665   6.498   5.219   2.170  0.0410 -0.6784 -0.0263
   37MOL   H234 9666   6.322   5.510   2.049 -0.9015 -0.5225  0.9685
   37MOL   H235 9667   6.166   5.437   2.019 -0.4562 -1.7167  0.0317
   37MOL   C236 9668   6.317   5.415   1.856  0.0697  0.1760 -0.4819
   37MOL   C237 9669   6.279   5.529   1.764 -0.4700  1.0649  0.4976
   37MOL   C238 9670   6.355   5.618   1.698 -0.0149 -0.0798 -0.3751
   37MOL   C239 9671   6.288   5.726   1.618  0.2317 -0.0013  0.2310
   37MOL   C240 9672   6.508   5.627   1.697  0.4020 -0.1755  0.8264
   37MOL   H241 9673   6.293   5.321   1.807  1.3140  0.1823 -1.1295
   37MOL   H242 9674   6.426   5.423   1.855  0.0043  1.7164  1.2254
   37MOL   H243 9675   6.172   5.539   1.767 -0.4645  1.3875 -0.4489
   37MOL   H244 9676   6.180   5.735   1.629  0.2077  0.2591 -0.2456
   37MOL   H245 9677   6.300   5.712   1.511 -0.3293 -1.4819  0.3429
   37MOL   H246 9678   6.320   5.829   1.626  0.6966  0.0340 -1.8158
   37MOL   H247 9679   6.550   5.628   1.798  0.4856 -0.3514  0.7940
   37MOL   H248 9680   6.552   5.720   1.662  0.7323 -0.7432 -0.2984
   37MOL   C249 9681   6.570   5.511   1.606 -0.2148 -0.3997 -0.3901
   37MOL   C250 9682   6.721   5.519   1.612  0.2149 -0.0073  0.7436
   37MOL   C251 9683   6.807   5.555   1.519  0.0234  0.1658  0.1357
   37MOL   C252 9684   6.958   5.557   1.544 -0.4937  0.1479  1.0609
   37MOL   C253 9685   6.761   5.608   1.382 -0.2463 -0.3305  0.7066
   37MOL   H254 9686   6.524   5.518   1.507  0.7124  0.2478 -0.7817
   37MOL   H255 9687   6.534   5.412   1.635  1.1234 -0.6736  0.3903
   37MOL   H256 9688   6.761   5.489   1.708  0.5761 -0.4453  0.4546
   37MOL   H257 9689   7.002   5.656   1.539 -0.7064  0.1812 -0.2027
   37MOL   H258 9690   7.009   5.494   1.471 -1.5241  0.4891  0.0431
   37MOL   H259 9691   6.983   5.522   1.645 -2.6243  3.1665  2.7014
   37MOL   H260 9692   6.838   5.600   1.305 -0.2207 -1.6021  0.8448
   37MOL   H261 9693   6.724   5.710   1.376  2.5664  0.7515  0.7699
   37MOL   H262 9694   6.681   5.544   1.345  0.1421 -0.7955  0.6590
   38MOL     C1 9695   6.242   4.901   4.559 -0.6172  0.2967 -0.0576
   38MOL     C2 9696   6.138   4.990   4.614 -0.6949 -0.7361  0.4659
   38MOL     C3 9697   6.005   4.967   4.612 -0.5555 -0.3699 -0.3509
   38MOL     C4 9698   5.902   5.048   4.680 -0.3333 -0.2809 -0.1235
   38MOL     C5 9699   5.943   4.852   4.533 -0.2171  0.2666 -0.2027
   38MOL     H6 9700   6.285   4.930   4.463  1.5659 -1.3648  0.3569
   38MOL     H7 9701   6.322   4.903   4.634 -1.4714  0.6047  0.8524
   38MOL     H8 9702   6.167   5.081   4.665 -1.9914 -0.2152  0.3055
   38MOL     H9 9703   5.905   5.150   4.641  0.9195  0.3510  1.5416
   38MOL    H10 9704   5.925   5.062   4.786  2.0979 -0.2162 -0.6455
   38MOL    H11 9705   5.805   5.007   4.653 -0.6636  0.9843 -0.8647
   38MOL    H12 9706   6.022   4.807   4.473 -1.0116 -1.4674  0.0301
   38MOL    H13 9707   5.869   4.891   4.463 -0.9971 -0.2057  0.3553
   38MOL    H14 9708   6.211   4.797   4.555  1.1120 -0.2862  0.7857
   38MOL    C15 9709   5.888   4.738   4.621  0.2212 -0.5728 -0.2354
   38MOL    C16 9710   5.841   4.630   4.532  0.5275 -0.4749 -0.5866
   38MOL    C17 9711   5.819   4.505   4.573 -0.1679  0.5491  0.8113
   38MOL    C18 9712   5.763   4.405   4.477 -0.3272  0.3938 -0.3365
   38MOL    C19 9713   5.840   4.452   4.718  0.0779 -0.3237 -0.0235
   38MOL    H20 9714   5.801   4.780   4.672 -1.0467 -0.9523 -2.0497
   38MOL    H21 9715   5.959   4.714   4.701  0.2871  1.9985  0.5360
   38MOL    H22 9716   5.823   4.654   4.428 -1.5611  0.0277 -0.1401
   38MOL    H23 9717   5.839   4.335   4.441  1.9333  2.4780  0.1987
   38MOL    H24 9718   5.737   4.463   4.389  0.8802 -0.4461 -1.2748
   38MOL    H25 9719   5.682   4.350   4.525  0.8618 -2.8220 -1.8655
   38MOL    H26 9720   5.742   4.422   4.756  0.1470  1.0107  1.2646
   38MOL    H27 9721   5.866   4.535   4.783 -0.3151 -0.8602  0.8228
   38MOL    C28 9722   5.949   4.346   4.729 -0.2120  0.0359 -0.1903
   38MOL    C29 9723   5.987   4.307   4.871 -0.0687 -0.0662 -0.1093
   38MOL    C30 9724   5.941   4.212   4.952 -0.1755  0.1943  0.0128
   38MOL    C31 9725   6.001   4.184   5.087  0.0944  0.0010 -0.5923
   38MOL    C32 9726   5.820   4.121   4.916 -0.3238 -0.0910  0.2219
   38MOL    H33 9727   6.037   4.384   4.676 -0.7987 -0.0501 -1.2311
   38MOL    H34 9728   5.912   4.252   4.687  0.3301 -0.6984  0.9420
   38MOL    H35 9729   6.067   4.370   4.907 -1.1416 -0.0179  2.2686
   38MOL    H36 9730   6.084   4.252   5.107 -0.1716  1.0224 -2.7909
   38MOL    H37 9731   6.040   4.083   5.085  0.0992  0.0155 -1.3045
   38MOL    H38 9732   5.931   4.206   5.168 -0.5284 -0.8639 -0.8924
   38MOL    H39 9733   5.843   4.019   4.946  1.0863 -0.8249 -3.1109
   38MOL    H40 9734   5.802   4.123   4.808 -0.2968 -2.5370  0.1458
   38MOL    C41 9735   5.702   4.166   4.996 -0.0323 -0.2630  0.6468
   38MOL    C42 9736   5.581   4.077   4.986  0.2268  0.4126  0.6761
   38MOL    C43 9737   5.485   4.031   5.069 -0.0576  0.3582 -0.5858
   38MOL    C44 9738   5.383   3.936   5.026 -0.4050 -0.1620  0.9844
   38MOL    C45 9739   5.480   4.064   5.222 -0.5665 -0.4126  0.3238
   38MOL    H46 9740   5.670   4.268   4.974 -0.3431 -0.5136 -0.0821
   38MOL    H47 9741   5.720   4.174   5.103 -0.4952 -0.3955  0.7361
   38MOL    H48 9742   5.566   4.045   4.884  0.9676  0.4175  0.5637
   38MOL    H49 9743   5.391   3.922   4.918 -0.9871  2.8353  0.5064
   38MOL    H50 9744   5.286   3.979   5.051  0.9201  3.3383  0.3209
   38MOL    H51 9745   5.387   3.838   5.074  1.8647  0.2674  1.7123
   38MOL    H52 9746   5.571   4.120   5.244 -0.7985  0.2544 -0.4045
   38MOL    H53 9747   5.496   3.967   5.270  0.7335  0.4870  1.7667
   38MOL    C54 9748   5.358   4.139   5.271  0.5569 -0.4410  0.6749
   38MOL    C55 9749   5.361   4.190   5.411  0.3320 -0.0942 -0.7628
   38MOL    C56 9750   5.288   4.140   5.517 -0.0688  0.1647 -0.2195
   38MOL    C57 9751   5.298   4.198   5.656 -0.1115  0.1856  0.3577
   38MOL    C58 9752   5.166   4.051   5.501 -0.2227  0.4007 -0.2457
   38MOL    H59 9753   5.277   4.071   5.246  1.2154 -1.9958  2.6466
   38MOL    H60 9754   5.361   4.236   5.220  1.8717 -0.9582 -0.2535
   38MOL    H61 9755   5.442   4.255   5.437 -0.5237  1.0744 -0.9626
   38MOL    H62 9756   5.380   4.269   5.667  1.2513 -1.1919 -0.5752
   38MOL    H63 9757   5.330   4.124   5.729  0.8583 -0.6420 -0.8739
   38MOL    H64 9758   5.205   4.245   5.687  0.0012  1.2722 -0.8811
   38MOL    H65 9759   5.148   4.022   5.398  1.1322  2.7697 -1.2080
   38MOL    H66 9760   5.070   4.094   5.530 -0.7642 -0.6827 -0.4202
   38MOL    C67 9761   5.183   3.917   5.572  0.5372  0.4021  0.5685
   38MOL    C68 9762   5.072   3.815   5.536  0.3154 -0.2545 -0.1278
   38MOL    C69 9763   4.968   3.785   5.624  0.3336 -0.4163  0.1935
   38MOL    C70 9764   4.874   3.674   5.593 -0.3076 -0.3476  0.3580
   38MOL    C71 9765   4.927   3.861   5.748  0.1999  0.2300  0.0755
   38MOL    H72 9766   5.191   3.951   5.676  1.6543  0.7705  0.3653
   38MOL    H73 9767   5.282   3.885   5.539 -0.2314 -0.3040 -1.1232
   38MOL    H74 9768   5.087   3.767   5.440  1.5301  0.4372 -0.2960
   38MOL    H75 9769   4.889   3.602   5.674  0.4130 -0.3661  0.2141
   38MOL    H76 9770   4.885   3.623   5.497  0.6584 -0.9274  0.7682
   38MOL    H77 9771   4.772   3.711   5.585 -0.6069 -1.5155 -1.6227
   38MOL    H78 9772   5.006   3.927   5.783 -0.0544  1.1885 -1.0983
   38MOL    H79 9773   4.917   3.788   5.828 -0.7691 -0.7524 -0.9263
   38MOL    C80 9774   4.798   3.937   5.738 -0.1635  0.1556 -0.1155
   38MOL    C81 9775   4.779   4.025   5.856 -0.4540  0.2899  0.2664
   38MOL    C82 9776   4.809   4.155   5.870 -0.4146  0.1695  0.1615
   38MOL    C83 9777   4.893   4.232   5.771 -0.3010  0.0543  0.1165
   38MOL    C84 9778   4.760   4.238   5.982 -0.4963 -0.0763  0.0617
   38MOL    H85 9779   4.720   3.861   5.744  0.2704 -0.4627 -1.9793
   38MOL    H86 9780   4.791   3.990   5.644  1.6870  0.2921 -0.1943
   38MOL    H87 9781   4.731   3.981   5.943  2.3111 -3.2111  0.1190
   38MOL    H88 9782   4.963   4.300   5.821  0.4027  0.3355 -1.2317
   38MOL    H89 9783   4.849   4.308   5.707  0.0994  0.6720  0.5718
   38MOL    H90 9784   4.954   4.164   5.712  2.5388  1.8232  0.8753
   38MOL    H91 9785   4.842   4.285   6.035 -0.4360 -1.1478  0.9419
   38MOL    H92 9786   4.700   4.176   6.049 -0.7149 -1.5874 -1.4933
   38MOL    C93 9787   4.670   4.366   5.947  0.2354  0.8123  0.0880
   38MOL    C94 9788   4.577   4.410   6.059  0.0910  0.0408 -0.0605
   38MOL    C95 9789   4.471   4.345   6.109 -0.0226  0.1273 -0.5179
   38MOL    C96 9790   4.391   4.407   6.220 -0.2227  0.4280 -0.8104
   38MOL    C97 9791   4.428   4.217   6.046 -0.1372  0.9677 -0.1365
   38MOL    H98 9792   4.622   4.351   5.850 -0.0481 -1.0037  0.4869
   38MOL    H99 9793   4.738   4.450   5.934  1.8441  0.1726  3.7394
   38MOL   H100 9794   4.615   4.503   6.099  0.5778 -0.6324  1.0788
   38MOL   H101 9795   4.365   4.326   6.289 -1.9589  0.1491 -1.7612
   38MOL   H102 9796   4.441   4.486   6.275  0.2231 -1.3631  1.4479
   38MOL   H103 9797   4.297   4.444   6.179 -0.2287  0.9948 -0.2924
   38MOL   H104 9798   4.493   4.175   5.970  0.5075  1.0252  0.3822
   38MOL   H105 9799   4.334   4.235   5.994 -0.5061  0.7810  0.4638
   38MOL   C106 9800   4.399   4.103   6.151 -0.4559 -0.4870  0.1714
   38MOL   C107 9801   4.353   3.978   6.086 -0.6658 -0.2607  0.4015
   38MOL   C108 9802   4.411   3.852   6.093  0.6984  0.0829 -0.5377
   38MOL   C109 9803   4.523   3.811   6.186 -0.6663 -0.1150  0.5688
   38MOL   C110 9804   4.354   3.741   6.000  0.1418  0.1101  0.1278
   38MOL   H111 9805   4.332   4.126   6.234  2.5784  0.7183  2.3739
   38MOL   H112 9806   4.484   4.097   6.218  0.2454  0.4010 -0.6315
   38MOL   H113 9807   4.295   3.998   5.997  4.0101 -0.5260 -2.9388
   38MOL   H114 9808   4.534   3.884   6.266 -1.5060  0.1660  0.4257
   38MOL   H115 9809   4.508   3.720   6.244  2.0413 -1.9638 -1.4860
   38MOL   H116 9810   4.622   3.815   6.140 -0.5882  0.2756  0.7668
   38MOL   H117 9811   4.259   3.780   5.963 -0.3579  0.8843  2.1977
   38MOL   H118 9812   4.324   3.657   6.062  0.9380 -0.0763  0.2648
   38MOL   C119 9813   4.445   3.705   5.884 -0.5208  0.0756 -0.4314
   38MOL   C120 9814   4.377   3.606   5.792  0.1597  0.1490  0.1301
   38MOL   C121 9815   4.418   3.480   5.748 -0.4025 -0.7858  0.8882
   38MOL   C122 9816   4.326   3.401   5.657 -0.1898  0.0038 -0.0828
   38MOL   C123 9817   4.548   3.405   5.790  0.0179  0.5607 -0.1273
   38MOL   H124 9818   4.529   3.652   5.929 -0.6218  0.0738 -0.2470
   38MOL   H125 9819   4.490   3.791   5.834  1.6123 -1.1395 -0.6720
   38MOL   H126 9820   4.283   3.647   5.760  0.6572  1.5321  0.4084
   38MOL   H127 9821   4.225   3.424   5.691  0.3095 -0.5058  1.8226
   38MOL   H128 9822   4.322   3.293   5.670 -0.4679 -0.1623 -1.4643
   38MOL   H129 9823   4.337   3.426   5.551 -1.5387  0.3890 -0.1411
   38MOL   H130 9824   4.520   3.305   5.823 -0.9274  1.2136  1.1144
   38MOL   H131 9825   4.591   3.456   5.876  2.2444 -2.0402  0.3409
   38MOL   C132 9826   4.646   3.381   5.681  0.2423  0.4518  0.7901
   38MOL   C133 9827   4.768   3.307   5.734  0.6989  0.8545  0.8219
   38MOL   C134 9828   4.793   3.176   5.712 -0.6094 -0.6922 -0.4507
   38MOL   C135 9829   4.939   3.125   5.740 -0.1614  0.1756  0.0207
   38MOL   C136 9830   4.703   3.085   5.637 -0.2001  0.2482  0.4162
   38MOL   H137 9831   4.680   3.472   5.632 -0.8989 -0.6234 -2.0808
   38MOL   H138 9832   4.589   3.326   5.607  1.0280  0.2827  0.3122
   38MOL   H139 9833   4.846   3.365   5.781  1.3435  0.1185  0.6769
   38MOL   H140 9834   4.926   3.060   5.826 -0.5205  0.8389  0.4711
   38MOL   H141 9835   5.012   3.198   5.772 -1.9261  1.4428  1.2266
   38MOL   H142 9836   4.972   3.074   5.649  0.2695  0.3787  0.0644
   38MOL   H143 9837   4.746   3.077   5.536  0.4284 -1.1930  0.7875
   38MOL   H144 9838   4.601   3.120   5.623  0.9003  3.2762 -0.4964
   38MOL   C145 9839   4.681   2.941   5.699  0.3913 -0.6645 -0.1417
   38MOL   C146 9840   4.628   2.841   5.603 -0.2554  0.1163  0.9678
   38MOL   C147 9841   4.657   2.711   5.600 -0.6253 -0.1305  0.4438
   38MOL   C148 9842   4.586   2.606   5.519  0.2944  0.0130  0.1294
   38MOL   C149 9843   4.768   2.654   5.689 -0.2914 -0.3816 -0.1289
   38MOL   H150 9844   4.602   2.945   5.775 -0.4838  0.7907 -1.0909
   38MOL   H151 9845   4.772   2.908   5.748 -0.7091 -0.0976  2.3782
   38MOL   H152 9846   4.551   2.871   5.533  0.4277 -0.5046 -0.0579
   38MOL   H153 9847   4.656   2.560   5.449  1.5267  0.9520  0.7322
   38MOL   H154 9848   4.500   2.642   5.462  1.2349  1.7035 -0.2581
   38MOL   H155 9849   4.556   2.528   5.590  0.0050 -1.3976 -1.5099
   38MOL   H156 9850   4.748   2.552   5.719  0.2521  0.2598  2.5265
   38MOL   H157 9851   4.785   2.709   5.782  0.5523  0.1020 -0.5668
   38MOL   C158 9852   4.911   2.639   5.623 -0.1864 -0.3879  0.8490
   38MOL   C159 9853   5.008   2.554   5.708  0.2803 -0.1106  0.2382
   38MOL   C160 9854   5.080   2.596   5.812 -0.1619  0.3611  0.7450
   38MOL   C161 9855   5.066   2.737   5.871  0.1896 -0.1622  0.2324
   38MOL   C162 9856   5.161   2.498   5.896 -0.0619  0.1667  0.8996
   38MOL   H163 9857   4.949   2.735   5.590 -0.7645 -0.6152 -0.4786
   38MOL   H164 9858   4.914   2.589   5.526 -0.2023  0.0068  0.6449
   38MOL   H165 9859   4.995   2.447   5.698  2.8718 -0.3842 -0.5224
   38MOL   H166 9860   5.008   2.796   5.800 -0.3377 -2.3482 -1.1838
   38MOL   H167 9861   5.165   2.780   5.883  0.0745 -0.2168  1.4340
   38MOL   H168 9862   5.002   2.734   5.960 -3.1152  0.8658 -1.9793
   38MOL   H169 9863   5.093   2.455   5.970 -1.3366 -0.5828 -0.6653
   38MOL   H170 9864   5.229   2.548   5.965 -0.8597  0.1197  1.7298
   38MOL   C171 9865   5.234   2.390   5.814  0.5664 -0.0035  0.0326
   38MOL   C172 9866   5.327   2.316   5.902  0.6262  0.1464 -0.8913
   38MOL   C173 9867   5.467   2.325   5.905 -0.1795 -0.5004  0.0947
   38MOL   C174 9868   5.549   2.428   5.822  0.1078  0.8826  0.0018
   38MOL   C175 9869   5.548   2.237   5.999  0.5755  0.5975 -0.4905
   38MOL   H176 9870   5.280   2.426   5.722  0.6253  0.4761  0.2467
   38MOL   H177 9871   5.164   2.328   5.758  0.9353  0.9833 -1.5589
   38MOL   H178 9872   5.274   2.246   5.965  0.8415 -2.5021 -3.5533
   38MOL   H179 9873   5.591   2.385   5.731 -2.1373 -2.2314  0.3582
   38MOL   H180 9874   5.632   2.477   5.873  1.2314 -1.5593  0.5899
   38MOL   H181 9875   5.482   2.506   5.786 -0.4273  0.7831  0.7701
   38MOL   H182 9876   5.491   2.159   6.049  0.2667  0.5451 -0.9284
   38MOL   H183 9877   5.604   2.296   6.072  0.4523 -0.0874  0.1606
   38MOL   C184 9878   5.654   2.156   5.920 -0.5049 -0.0797  0.3753
   38MOL   C185 9879   5.746   2.086   6.015 -0.8721  0.1375  0.4400
   38MOL   C186 9880   5.867   2.134   6.053 -0.4267  0.6592 -0.4146
   38MOL   C187 9881   5.969   2.040   6.114  0.6632 -0.6214 -0.4693
   38MOL   C188 9882   5.910   2.276   6.028  0.2436 -0.2323  0.1184
   38MOL   H189 9883   5.705   2.230   5.858 -0.7080  0.3033  0.6672
   38MOL   H190 9884   5.599   2.086   5.857  0.3937 -0.1423 -0.3593
   38MOL   H191 9885   5.724   1.980   6.025  0.2630 -0.2148 -0.5649
   38MOL   H192 9886   5.926   1.955   6.167 -0.2934  0.1559  0.0151
   38MOL   H193 9887   6.030   2.091   6.189  0.2985  1.2188 -1.4014
   38MOL   H194 9888   6.035   2.003   6.036  0.2786 -1.1864 -0.5298
   38MOL   H195 9889   5.961   2.311   6.117  0.1639  0.1048  0.0329
   38MOL   H196 9890   5.834   2.355   6.025  1.1229  0.6259  0.0091
   38MOL   C197 9891   5.999   2.285   5.902 -0.0911  0.5048 -0.5552
   38MOL   C198 9892   6.055   2.418   5.879 -0.4817  0.1902  0.0170
   38MOL   C199 9893   6.175   2.454   5.843  0.6648 -1.0469  0.3093
   38MOL   C200 9894   6.212   2.599   5.816 -0.3080  0.1115 -0.0536
   38MOL   C201 9895   6.292   2.361   5.818 -0.3885 -0.4098  0.1787
   38MOL   H202 9896   5.941   2.251   5.816  1.0252  0.6781 -1.3882
   38MOL   H203 9897   6.078   2.210   5.914 -1.1171 -0.9474 -2.5263
   38MOL   H204 9898   5.974   2.489   5.887 -0.3470  0.2716  0.7270
   38MOL   H205 9899   6.118   2.654   5.827 -1.6118 -2.1008  0.1783
   38MOL   H206 9900   6.266   2.613   5.722 -1.5086  1.6618 -0.5460
   38MOL   H207 9901   6.275   2.618   5.903 -0.8396 -3.3094  1.1407
   38MOL   H208 9902   6.356   2.406   5.743  0.6570  1.1832  1.9750
   38MOL   H209 9903   6.253   2.266   5.781 -1.1953 -0.0384  0.0685
   38MOL   C210 9904   6.365   2.330   5.950  0.7639 -0.0649 -0.6081
   38MOL   C211 9905   6.476   2.240   5.926  0.4484  0.1041  0.5408
   38MOL   C212 9906   6.514   2.123   5.994  0.0082 -0.6198 -0.3255
   38MOL   C213 9907   6.620   2.035   5.941 -0.0533 -0.7208  0.4685
   38MOL   C214 9908   6.448   2.075   6.121  0.3980 -0.4545 -0.1425
   38MOL   H215 9909   6.290   2.296   6.020 -0.4550  3.6899  0.0370
   38MOL   H216 9910   6.396   2.426   5.991 -2.1099 -0.1990  1.9992
   38MOL   H217 9911   6.537   2.258   5.838 -0.8214  0.9620 -0.1816
   38MOL   H218 9912   6.602   1.928   5.936 -0.8223 -0.5308 -1.2108
   38MOL   H219 9913   6.700   2.056   6.012  0.7529  1.6426 -1.0917
   38MOL   H220 9914   6.670   2.071   5.851 -0.5896  2.2785  1.3173
   38MOL   H221 9915   6.379   2.151   6.157 -0.8878 -0.8011 -1.8145
   38MOL   H222 9916   6.523   2.051   6.196  0.4251  0.9194  0.2738
   38MOL   C223 9917   6.363   1.951   6.098  0.0006  0.4347 -0.0298
   38MOL   C224 9918   6.285   1.890   6.218  0.3334 -0.9658  0.3500
   38MOL   C225 9919   6.188   1.799   6.216  0.1187 -0.3448 -0.0788
   38MOL   C226 9920   6.101   1.759   6.336  0.1721 -0.3334 -0.4063
   38MOL   C227 9921   6.141   1.724   6.092  0.0967 -0.2021  1.1910
   38MOL   H228 9922   6.433   1.875   6.064  0.8033 -0.3876  3.2428
   38MOL   H229 9923   6.290   1.979   6.023 -0.2022  2.0102  0.7322
   38MOL   H230 9924   6.321   1.929   6.312 -0.6385  0.5000  0.1349
   38MOL   H231 9925   5.994   1.764   6.313 -0.0347 -3.1986 -0.2085
   38MOL   H232 9926   6.122   1.833   6.413  0.3499  0.5082 -1.2585
   38MOL   H233 9927   6.119   1.663   6.385 -3.4079 -0.8592  0.0726
   38MOL   H234 9928   6.180   1.761   5.997 -1.9805 -1.7114 -0.3220
   38MOL   H235 9929   6.037   1.756   6.082  0.7231  2.2201  2.2469
   38MOL   C236 9930   6.174   1.575   6.106  0.2879 -0.2076 -0.2927
   38MOL   C237 9931   6.110   1.492   5.987 -0.5567 -0.0900 -0.3745
   38MOL   C238 9932   6.157   1.499   5.859  0.2565 -0.1842 -0.7325
   38MOL   C239 9933   6.080   1.429   5.743  0.0906 -0.0039  0.0188
   38MOL   C240 9934   6.290   1.567   5.815  0.5798  0.1946  0.1156
   38MOL   H241 9935   6.137   1.535   6.201  0.9671 -0.2657 -0.0453
   38MOL   H242 9936   6.281   1.557   6.115  0.7499  2.8198  0.8643
   38MOL   H243 9937   6.022   1.434   6.012 -0.5480  0.5131  1.1098
   38MOL   H244 9938   5.986   1.401   5.789 -0.6288  1.3207 -0.6091
   38MOL   H245 9939   6.125   1.346   5.688  0.7840  1.1366 -1.1735
   38MOL   H246 9940   6.060   1.512   5.675  2.5805  0.9351  0.3516
   38MOL   H247 9941   6.336   1.615   5.901 -0.2259 -1.0217  1.2607
   38MOL   H248 9942   6.254   1.631   5.734  0.6037 -0.2029 -0.2100
   38MOL   C249 9943   6.387   1.471   5.745 -1.2820 -0.5132  0.0843
   38MOL   C250 9944   6.498   1.542   5.670 -0.4545  0.2882 -0.5535
   38MOL   C251 9945   6.518   1.580   5.543 -0.0484  1.0071  0.3722
   38MOL   C252 9946   6.632   1.672   5.501 -0.3947  0.8722  0.4614
   38MOL   C253 9947   6.425   1.551   5.423  0.5015 -0.2717 -0.1554
   38MOL   H254 9948   6.344   1.408   5.667  0.7605 -0.8040 -0.8597
   38MOL   H255 9949   6.427   1.397   5.815  1.4907 -0.7195 -1.6220
   38MOL   H256 9950   6.580   1.571   5.733 -0.6985  2.0868 -1.0321
   38MOL   H257 9951   6.700   1.617   5.436 -1.5317 -1.6619  1.3088
   38MOL   H258 9952   6.686   1.713   5.586 -0.0682 -0.3179  0.8389
   38MOL   H259 9953   6.589   1.757   5.449 -0.5326  1.1425  1.0137
   38MOL   H260 9954   6.329   1.519   5.466  1.1008  0.7369  2.0081
   38MOL   H261 9955   6.457   1.473   5.354 -1.4384 -0.1646 -1.2301
   38MOL   H262 9956   6.402   1.638   5.362  1.7124 -2.3445 -3.6957
   39MOL     C1 9957   6.361   6.901   5.780  0.4505  0.0450  0.1181
   39MOL     C2 9958   6.397   7.049   5.753 -0.0241 -0.6956  0.1730
   39MOL     C3 9959   6.431   7.106   5.631 -0.6474 -0.7933 -0.4770
   39MOL     C4 9960   6.466   7.253   5.624  0.0962  0.3508 -0.7414
   39MOL     C5 9961   6.437   7.043   5.489 -0.0479 -0.0393  0.1135
   39MOL     H6 9962   6.422   6.845   5.852  0.2631  1.1097  1.1143
   39MOL     H7 9963   6.257   6.891   5.810  0.9271 -0.0151  1.8067
   39MOL     H8 9964   6.398   7.107   5.845  0.5570 -1.3420  0.5824
   39MOL     H9 9965   6.487   7.276   5.728 -1.3773 -1.7358  0.0366
   39MOL    H10 9966   6.381   7.298   5.572 -0.2450  0.1377 -0.3585
   39MOL    H11 9967   6.557   7.266   5.565  1.3695 -0.0094  1.1075
   39MOL    H12 9968   6.389   7.103   5.412 -2.6297  1.4901  2.8473
   39MOL    H13 9969   6.382   6.949   5.492 -3.8968  2.1085 -0.6657
   39MOL    H14 9970   6.382   6.854   5.684  1.0945  0.0585  0.2447
   39MOL    C15 9971   6.588   7.012   5.455  0.2337 -0.2491 -0.2854
   39MOL    C16 9972   6.614   6.923   5.335  0.3703 -0.3300  0.7363
   39MOL    C17 9973   6.640   6.788   5.333  0.0603 -0.7089 -0.3353
   39MOL    C18 9974   6.652   6.721   5.194 -0.2185 -0.6437  0.2333
   39MOL    C19 9975   6.676   6.707   5.451  0.0896 -0.5693 -0.3202
   39MOL    H20 9976   6.627   6.971   5.548 -1.4422 -1.6374 -0.1671
   39MOL    H21 9977   6.643   7.106   5.449 -0.1722  0.0772  0.9772
   39MOL    H22 9978   6.597   6.979   5.245 -1.8636 -0.5833  0.9706
   39MOL    H23 9979   6.601   6.794   5.131  1.1010  0.6554  0.6321
   39MOL    H24 9980   6.604   6.626   5.175  0.2259 -1.0161  0.9353
   39MOL    H25 9981   6.752   6.728   5.151  0.0883 -0.0635  1.0362
   39MOL    H26 9982   6.687   6.769   5.539  1.1695 -1.0842 -0.0829
   39MOL    H27 9983   6.782   6.686   5.434  0.6523 -0.2213  2.5048
   39MOL    C28 9984   6.590   6.578   5.472 -0.4560  0.0025  0.0395
   39MOL    C29 9985   6.656   6.490   5.578 -0.0263  0.4717  0.3951
   39MOL    C30 9986   6.634   6.354   5.592  0.0111  0.4594 -0.4843
   39MOL    C31 9987   6.701   6.272   5.697  0.7064 -0.9945 -0.6663
   39MOL    C32 9988   6.517   6.283   5.521  0.2421  0.6276  1.0410
   39MOL    H33 9989   6.578   6.521   5.380 -1.2503  0.3487 -0.0736
   39MOL    H34 9990   6.490   6.601   5.508 -0.0828 -0.8626  1.6775
   39MOL    H35 9991   6.724   6.536   5.648 -0.1647 -0.2132  0.9877
   39MOL    H36 9992   6.719   6.170   5.663 -0.3133 -1.7438  0.9633
   39MOL    H37 9993   6.642   6.259   5.788 -1.1141 -1.2938 -1.8650
   39MOL    H38 9994   6.798   6.316   5.720  0.1645  1.4939 -2.8738
   39MOL    H39 9995   6.439   6.357   5.506  1.7163  1.4720 -3.0130
   39MOL    H40 9996   6.471   6.210   5.587 -0.3541  0.9362  0.9683
   39MOL    C41 9997   6.567   6.228   5.388 -0.3783 -0.3604 -0.6098
   39MOL    C42 9998   6.456   6.163   5.313 -0.3082 -0.0043  0.6073
   39MOL    C43 9999   6.425   6.184   5.186  0.3356  0.4124  0.4026
   39MOL    C4410000   6.311   6.102   5.134  0.2195 -0.8421 -0.9556
   39MOL    C4510001   6.496   6.275   5.086  0.2960  0.5410 -0.4361
   39MOL    H4610002   6.658   6.169   5.396 -0.3275 -0.1873  0.1291
   39MOL    H4710003   6.602   6.313   5.329  2.8565 -1.9204 -1.0456
   39MOL    H4810004   6.397   6.089   5.363 -1.0529  0.3002  0.1855
   39MOL    H4910005   6.237   6.178   5.113 -1.2627 -1.6911  0.9927
   39MOL    H5010006   6.266   6.027   5.200 -1.4423  1.0469  0.1088
   39MOL    H5110007   6.345   6.055   5.042 -0.9699 -1.7235 -0.9539
   39MOL    H5210008   6.532   6.211   5.006 -3.1189 -0.3564 -1.3034
   39MOL    H5310009   6.581   6.335   5.118  1.9429 -0.8396 -2.1084
   39MOL    C5410010   6.401   6.387   5.031  0.0755  0.0869  0.3528
   39MOL    C5510011   6.349   6.480   5.142 -0.0134  0.1050  0.2522
   39MOL    C5610012   6.341   6.616   5.134  0.0832 -0.3671 -0.0941
   39MOL    C5710013   6.291   6.695   5.257 -0.7074  0.1352  0.6350
   39MOL    C5810014   6.341   6.698   5.006 -0.1363  0.2351 -0.4075
   39MOL    H5910015   6.313   6.357   4.975 -0.1144  2.8269 -0.8976
   39MOL    H6010016   6.452   6.447   4.956 -0.0845  0.8030  0.8096
   39MOL    H6110017   6.312   6.432   5.232 -0.5358 -0.0550 -0.0435
   39MOL    H6210018   6.326   6.797   5.240 -2.3269  1.2519  3.6487
   39MOL    H6310019   6.346   6.654   5.342 -1.3186 -3.9516 -0.8459
   39MOL    H6410020   6.184   6.693   5.274 -1.1604 -1.2093 -2.1073
   39MOL    H6510021   6.402   6.671   4.920  0.1683  0.8180 -0.3830
   39MOL    H6610022   6.372   6.799   5.032 -0.9528  0.0809  1.2292
   39MOL    C6710023   6.193   6.703   4.952  0.0005 -0.4426 -0.0756
   39MOL    C6810024   6.166   6.807   4.846  0.2491 -0.1563  0.2216
   39MOL    C6910025   6.095   6.916   4.844  0.5892  0.2783 -0.2956
   39MOL    C7010026   6.089   7.003   4.716  0.5907  0.4652 -0.4500
   39MOL    C7110027   6.016   6.957   4.962 -0.1758  0.1757 -0.3736
   39MOL    H7210028   6.122   6.721   5.032  1.1194 -0.3793  0.9285
   39MOL    H7310029   6.168   6.612   4.898  0.3147 -1.2701  1.1772
   39MOL    H7410030   6.221   6.780   4.757 -1.4677 -1.1661 -0.5434
   39MOL    H7510031   6.125   7.105   4.731  1.0459  0.3203 -0.5310
   39MOL    H7610032   5.984   7.008   4.690 -0.5851 -3.6248  2.9038
   39MOL    H7710033   6.133   6.963   4.625  1.2254  0.6839 -0.2447
   39MOL    H7810034   5.977   6.871   5.016  0.9048  0.3085  0.6471
   39MOL    H7910035   5.928   7.016   4.938 -0.2762  0.4725  0.6973
   39MOL    C8010036   6.105   7.038   5.058  0.0283  0.2536  0.1585
   39MOL    C8110037   6.034   7.053   5.192  0.0729 -0.4394 -0.4334
   39MOL    C8210038   6.053   7.160   5.270  0.4214  0.0963  0.2624
   39MOL    C8310039   6.163   7.255   5.239 -0.3261 -0.4699  0.1540
   39MOL    C8410040   5.970   7.197   5.388  0.3246 -0.4346  0.1688
   39MOL    H8510041   6.124   7.138   5.019  0.5896  0.7195  1.5890
   39MOL    H8610042   6.198   6.985   5.075 -0.2275  0.0767  1.0538
   39MOL    H8710043   5.948   6.991   5.214 -0.8521  1.2925  1.0024
   39MOL    H8810044   6.122   7.339   5.183 -1.4974 -0.3388  1.1809
   39MOL    H8910045   6.235   7.207   5.173 -1.6204 -0.1013 -1.5652
   39MOL    H9010046   6.221   7.298   5.321 -1.0452  0.3802  0.2309
   39MOL    H9110047   5.886   7.129   5.396 -1.9609  2.0106 -1.6848
   39MOL    H9210048   5.922   7.293   5.366 -0.8645 -0.9189  0.6353
   39MOL    C9310049   6.043   7.187   5.521 -0.0608  0.4839 -0.4321
   39MOL    C9410050   5.944   7.197   5.641 -0.4790 -0.4624  0.8604
   39MOL    C9510051   5.910   7.306   5.707  0.7213 -0.4038  0.2985
   39MOL    C9610052   5.797   7.300   5.806  0.3856  0.6194 -0.3761
   39MOL    C9710053   5.946   7.448   5.667  0.1932 -0.5818 -0.0469
   39MOL    H9810054   6.115   7.269   5.528  0.5527 -0.1035  0.3181
   39MOL    H9910055   6.099   7.094   5.527  1.1952  1.2646  0.2594
   39MOL   H10010056   5.903   7.102   5.671  0.9841 -1.0867  0.9211
   39MOL   H10110057   5.714   7.345   5.751 -0.2639 -1.3987 -1.0919
   39MOL   H10210058   5.756   7.208   5.848 -0.4022  1.4873  0.8222
   39MOL   H10310059   5.825   7.357   5.895 -0.8780  0.8969 -0.1457
   39MOL   H10410060   5.873   7.522   5.701 -1.0602 -2.0883  0.5781
   39MOL   H10510061   5.957   7.453   5.559 -1.3992 -1.1474 -0.2396
   39MOL   C10610062   6.084   7.496   5.723  0.5213 -0.2099  0.1758
   39MOL   C10710063   6.120   7.631   5.662 -0.1676  0.2333  0.4968
   39MOL   C10810064   6.243   7.678   5.618  0.5254  0.0152  0.3362
   39MOL   C10910065   6.382   7.608   5.621 -0.2746 -0.4768 -1.0336
   39MOL   C11010066   6.238   7.822   5.565 -0.1225  0.4899  0.0953
   39MOL   H11110067   6.169   7.430   5.705  0.6875 -0.3700  1.5386
   39MOL   H11210068   6.070   7.504   5.830 -1.6314 -1.6198  0.0376
   39MOL   H11310069   6.037   7.699   5.675 -0.2723 -0.4308  3.5191
   39MOL   H11410070   6.419   7.588   5.520  0.9461 -0.0487 -0.6762
   39MOL   H11510071   6.455   7.681   5.654 -0.2029 -0.0720 -2.0550
   39MOL   H11610072   6.389   7.523   5.689 -1.3272 -0.8287 -1.3532
   39MOL   H11710073   6.285   0.014   5.634  1.5296  0.1814 -0.6959
   39MOL   H11810074   6.132   7.845   5.559 -0.3106 -1.0008 -3.1328
   39MOL   C11910075   6.296   7.846   5.422 -0.1058 -0.1759  0.6955
   39MOL   C12010076   6.278   0.112   5.370 -0.3066  0.0836 -0.1745
   39MOL   C12110077   6.193   0.151   5.272 -0.5026 -0.2363  0.2100
   39MOL   C12210078   6.226   0.290   5.227  0.1457  0.0617  0.2084
   39MOL   C12310079   6.086   0.067   5.202  0.0594 -0.2401 -0.9558
   39MOL   H12410080   6.257   7.777   5.348  0.6905  1.2326 -1.0783
   39MOL   H12510081   6.402   7.822   5.412  0.0595  1.2781 -1.6539
   39MOL   H12610082   6.351   0.178   5.416  0.2962 -2.4970  2.6900
   39MOL   H12710083   6.191   0.348   5.312 -0.5575 -0.1070  0.0297
   39MOL   H12810084   6.169   0.329   5.143 -0.3651 -1.4182 -0.1530
   39MOL   H12910085   6.334   0.303   5.221 -0.0718  1.4421 -0.8104
   39MOL   H13010086   5.998   0.123   5.171 -0.0851  0.2195  0.2374
   39MOL   H13110087   6.047   0.003   5.281  0.4897  0.7687  0.0908
   39MOL   C13210088   6.133   7.868   5.077  0.6183  0.0893  0.0096
   39MOL   C13310089   6.017   7.788   5.024  0.2474  0.0615  0.5354
   39MOL   C13410090   5.957   7.801   4.905  0.9133 -0.5989  0.3430
   39MOL   C13510091   5.843   7.708   4.868  0.0491 -0.9133  0.6963
   39MOL   C13610092   5.996   0.025   4.794  0.0297  0.7102  0.3935
   39MOL   H13710093   6.213   7.796   5.093 -0.0269 -0.3244  1.4295
   39MOL   H13810094   6.177   0.053   5.000  1.7591 -0.1737  0.4394
   39MOL   H13910095   5.984   7.707   5.087 -1.3387  0.3527  0.0908
   39MOL   H14010096   5.872   7.632   4.796 -1.6205 -0.0702 -0.9280
   39MOL   H14110097   5.762   7.756   4.812 -0.4968 -1.8837  0.6458
   39MOL   H14210098   5.795   7.667   4.957 -1.3143  2.4362  1.6059
   39MOL   H14310099   6.057   0.103   4.838  0.9162  0.7888 -0.9352
   39MOL   H14410100   5.899   0.067   4.766 -2.0465 -2.9060  1.7465
   39MOL   C14510101   6.066   7.850   4.669  0.2297 -0.6744 -0.1360
   39MOL   C14610102   6.101   0.079   4.565 -0.0742  0.0630  0.4041
   39MOL   C14710103   6.050   0.090   4.439  0.5593  0.9100  0.2219
   39MOL   C14810104   6.097   0.204   4.352 -0.4882 -0.2236  0.0969
   39MOL   C14910105   5.959   7.867   4.368 -0.7999 -0.6846 -0.3722
   39MOL   H15010106   6.007   7.770   4.625 -0.0701 -0.8741  0.6237
   39MOL   H15110107   6.164   7.807   4.693  1.5142  2.2017  0.0482
   39MOL   H15210108   6.178   0.148   4.596 -0.6645 -0.5342  3.2753
   39MOL   H15310109   6.030   0.217   4.267 -1.3786 -1.1498  0.6533
   39MOL   H15410110   6.196   0.187   4.308 -0.0624 -0.2392  1.0368
   39MOL   H15510111   6.099   0.294   4.413 -0.3587 -0.9736  1.2263
   39MOL   H15610112   5.967   7.775   4.427 -1.2824 -0.2841  0.3184
   39MOL   H15710113   6.008   7.837   4.276  0.6325 -0.5092  0.3154
   39MOL   C15810114   5.812   0.035   4.356  0.4022  0.6010 -0.0207
   39MOL   C15910115   5.725   0.022   4.481  0.5925  0.2984 -0.2527
   39MOL   C16010116   5.614   0.096   4.506  0.2877  0.7641 -1.2542
   39MOL   C16110117   5.565   0.210   4.418  0.0763  0.2279 -0.5182
   39MOL   C16210118   5.553   0.090   4.646 -0.1425  0.1101  0.5499
   39MOL   H16310119   5.771   7.843   4.285  0.1018 -0.1117  0.8529
   39MOL   H16410120   5.825   0.135   4.315  2.3438  0.2571 -0.2915
   39MOL   H16510121   5.739   7.822   4.553 -1.9427  0.1296  0.1146
   39MOL   H16610122   5.635   0.231   4.337 -0.0118 -1.1983 -0.9801
   39MOL   H16710123   5.560   0.298   4.482 -3.1995  0.1386 -0.5607
   39MOL   H16810124   5.471   0.178   4.375 -0.9894  0.9084  1.2369
   39MOL   H16910125   5.550   0.186   4.697 -2.0993  1.7987 -2.5785
   39MOL   H17010126   5.613   0.026   4.712  1.4180  1.4253  0.4372
   39MOL   C17110127   5.413   0.022   4.639  0.1989 -0.0507  0.9020
   39MOL   C17210128   5.361   0.005   4.779  0.2574 -0.2444 -0.8284
   39MOL   C17310129   5.349   7.771   4.844  0.2621 -0.0056  0.1909
   39MOL   C17410130   5.387   7.643   4.780 -0.6941  0.0392 -0.1043
   39MOL   C17510131   5.299   7.768   4.987  0.1599 -0.7345  0.0482
   39MOL   H17610132   5.421   7.809   4.581 -0.2685  1.2130 -1.2050
   39MOL   H17710133   5.357   0.100   4.588 -0.2723  0.1010  1.6381
   39MOL   H17810134   5.326   0.093   4.829 -1.2132 -0.7271 -1.0065
   39MOL   H17910135   5.494   7.625   4.772 -0.6968  0.6193 -1.6116
   39MOL   H18010136   5.353   7.638   4.676 -1.9999 -0.5339  0.3429
   39MOL   H18110137   5.345   7.557   4.832  1.4286 -0.8608  0.1476
   39MOL   H18210138   5.222   7.693   4.977 -0.1057 -0.4083 -0.3494
   39MOL   H18310139   5.250   7.860   5.020  1.6141 -0.3039  1.0980
   39MOL   C18410140   5.401   7.704   5.082 -1.2098  0.2433 -0.2108
   39MOL   C18510141   5.504   7.815   5.111  0.2126  0.5010  0.6091
   39MOL   C18610142   5.569   7.847   5.229  0.9463  0.2523  0.4026
   39MOL   C18710143   5.669   0.074   5.240  0.0787  0.5674  0.5968
   39MOL   C18810144   5.517   7.789   5.360  0.4010  0.6059 -0.6106
   39MOL   H18910145   5.455   7.627   5.027 -0.3415  0.5964  0.1308
   39MOL   H19010146   5.361   7.656   5.171  0.3495 -0.0050  0.3659
   39MOL   H19110147   5.524   7.864   5.017  2.3293 -1.3965  0.0457
   39MOL   H19210148   5.676   0.119   5.141 -1.3893 -1.7137 -0.5909
   39MOL   H19310149   5.765   0.028   5.262 -0.0056  0.1493  0.0778
   39MOL   H19410150   5.655   0.152   5.315  0.9581  3.5890 -2.2699
   39MOL   H19510151   5.441   7.712   5.346  0.8911 -0.3951  2.0584
   39MOL   H19610152   5.459   7.870   5.403 -1.6324 -0.4313 -1.3444
   39MOL   C19710153   5.632   7.730   5.444 -0.5268 -0.1782  0.3225
   39MOL   C19810154   5.579   7.660   5.565  0.3770  0.1781 -0.1295
   39MOL   C19910155   5.624   7.676   5.693 -0.0467  0.1626 -0.8291
   39MOL   C20010156   5.559   7.599   5.802  0.0494  0.4384  0.0071
   39MOL   C20110157   5.749   7.761   5.738  0.3795 -0.0102  0.6466
   39MOL   H20210158   5.694   7.814   5.474 -1.4638  1.0405 -1.0911
   39MOL   H20310159   5.690   7.657   5.388 -2.3979 -0.7983 -0.8441
   39MOL   H20410160   5.488   7.601   5.560 -1.8623  3.3431  1.4159
   39MOL   H20510161   5.627   7.524   5.842 -1.6193 -0.9314  0.3228
   39MOL   H20610162   5.467   7.554   5.766  0.0655 -0.3566  0.9494
   39MOL   H20710163   5.539   7.663   5.888  0.0498 -2.1494  1.9852
   39MOL   H20810164   5.818   7.767   5.654 -2.0948  2.4393 -1.3251
   39MOL   H20910165   5.802   7.710   5.818 -0.3751 -1.0930  0.4642
   39MOL   C21010166   5.707   0.024   5.795  1.4294  0.2431 -0.1597
   39MOL   C21110167   5.605   0.105   5.714 -0.1179  0.1464  0.5279
   39MOL   C21210168   5.608   0.229   5.664 -0.1716 -0.0244  0.2207
   39MOL   C21310169   5.498   0.291   5.587 -0.1082 -0.7112  0.4843
   39MOL   C21410170   5.729   0.316   5.681  0.2663 -0.1828  0.6512
   39MOL   H21510171   5.798   0.079   5.817  1.4005  0.2207  0.0149
   39MOL   H21610172   5.678   0.008   5.899 -2.3085 -0.3019 -1.1804
   39MOL   H21710173   5.516   0.049   5.688  0.8383 -2.2237  2.2108
   39MOL   H21810174   5.464   0.376   5.646  1.5728  2.6254 -3.1967
   39MOL   H21910175   5.423   0.212   5.581  0.0349 -0.9025  1.1632
   39MOL   H22010176   5.526   0.315   5.485  0.2695  0.6094  0.8948
   39MOL   H22110177   5.775   0.286   5.775  1.8595  0.1266 -0.0199
   39MOL   H22210178   5.693   0.419   5.685  0.3457 -0.2103  3.9791
   39MOL   C22310179   5.817   0.299   5.559  0.0254 -0.5390 -0.2947
   39MOL   C22410180   5.963   0.335   5.595 -0.2181 -0.0660  0.3438
   39MOL   C22510181   6.052   0.427   5.546  0.8695 -1.0308  0.3216
   39MOL   C22610182   6.184   0.438   5.616  0.1818  0.4905  0.0888
   39MOL   C22710183   6.019   0.536   5.441  0.0243 -0.5237  0.0576
   39MOL   H22810184   5.779   0.353   5.473  0.8313 -0.2054 -0.4470
   39MOL   H22910185   5.822   0.199   5.515  0.8976 -0.4391 -0.4256
   39MOL   H23010186   6.002   0.267   5.670  0.6526  1.1287  0.9932
   39MOL   H23110187   6.207   0.348   5.673  1.4800  1.1509  0.6085
   39MOL   H23210188   6.199   0.519   5.687  3.2180  2.0149 -2.1564
   39MOL   H23310189   6.261   0.443   5.539  0.6569  1.4869  0.6174
   39MOL   H23410190   5.947   0.506   5.365  0.1723  0.8877 -0.6576
   39MOL   H23510191   6.109   0.546   5.381 -0.4267  0.9379 -0.4032
   39MOL   C23610192   6.000   0.677   5.503 -0.1760  0.3356  0.3747
   39MOL   C23710193   5.964   0.785   5.400 -0.5448  0.6977  0.2767
   39MOL   C23810194   5.951   0.919   5.413  0.6263  0.3280 -0.1538
   39MOL   C23910195   5.930   1.007   5.299 -0.1386 -0.3612  0.5311
   39MOL   C24010196   5.952   0.989   5.542 -0.2216 -0.3404 -0.1938
   39MOL   H24110197   6.093   0.717   5.543 -0.3057  0.3311  0.6788
   39MOL   H24210198   5.929   0.669   5.585 -1.1034 -0.1932 -0.4686
   39MOL   H24310199   5.969   0.755   5.296  2.6779 -0.3482  0.6594
   39MOL   H24410200   5.877   0.948   5.224 -0.4283 -0.3614  0.7329
   39MOL   H24510201   6.023   1.046   5.259 -0.8295  1.0550  0.2669
   39MOL   H24610202   5.874   1.099   5.317 -0.6879 -0.5757 -0.0485
   39MOL   H24710203   5.970   1.095   5.525  2.3656 -0.1171  3.3870
   39MOL   H24810204   6.039   0.945   5.590  0.1919  1.3474  0.6365
   39MOL   C24910205   5.827   0.967   5.632 -0.6384  0.0785 -0.0192
   39MOL   C25010206   5.817   1.065   5.742 -0.1928  0.1259  0.7013
   39MOL   C25110207   5.762   1.040   5.860  0.3236  0.3757  0.3240
   39MOL   C25210208   5.749   1.147   5.973 -0.2169 -0.4076  0.2396
   39MOL   C25310209   5.698   0.903   5.894 -0.0582  0.4993 -0.4830
   39MOL   H25410210   5.821   0.863   5.662 -2.0517  0.4634  1.0469
   39MOL   H25510211   5.735   0.991   5.579 -1.0402 -0.3141  0.5101
   39MOL   H25610212   5.854   1.165   5.722 -0.1283 -0.4387 -2.3102
   39MOL   H25710213   5.809   1.235   5.951 -0.4920 -0.4555 -0.7619
   39MOL   H25810214   5.797   1.096   6.056 -0.5958  1.6600  1.7943
   39MOL   H25910215   5.648   1.181   5.998 -0.3657  0.3727 -1.3309
   39MOL   H26010216   5.730   0.872   5.994 -0.4436  1.7748  0.0579
   39MOL   H26110217   5.699   0.823   5.821  0.6738  0.1290 -0.0750
   39MOL   H26210218   5.590   0.915   5.901  0.2239  1.9044  2.3630
   40MOL     C110219   1.931   3.001   0.804 -0.1042  1.2933  0.3110
   40MOL     C210220   1.993   3.106   0.890  0.5468 -0.3248 -0.1401
   40MOL     C310221   1.966   3.133   1.020 -0.2273 -0.3179  0.6447
   40MOL     C410222   2.044   3.231   1.100 -0.3121 -0.0907  0.3713
   40MOL     C510223   1.862   3.050   1.106 -0.3286  0.1756  0.6499
   40MOL     H610224   1.886   2.921   0.862  0.8242  0.1102 -0.5881
   40MOL     H710225   1.852   3.050   0.748 -1.4160 -1.1041  0.0086
   40MOL     H810226   2.068   3.158   0.832 -0.5935  1.4720 -0.0209
   40MOL     H910227   2.110   3.303   1.051  1.2962 -2.7878 -1.6151
   40MOL    H1010228   2.103   3.184   1.178  1.5869 -0.2831 -1.1280
   40MOL    H1110229   1.972   3.298   1.147  2.7755  1.0021  3.7470
   40MOL    H1210230   1.788   3.017   1.032  0.8941 -0.4506 -0.3041
   40MOL    H1310231   1.813   3.122   1.172 -1.8663 -0.6617  0.4447
   40MOL    H1410232   1.995   2.948   0.733 -0.1714 -0.2407  1.3900
   40MOL    C1510233   1.916   2.926   1.176 -0.3026  0.0466 -0.6562
   40MOL    C1610234   1.824   2.863   1.270  0.3159  0.3560 -0.0698
   40MOL    C1710235   1.840   2.743   1.328  0.7222 -0.5439 -0.2594
   40MOL    C1810236   1.721   2.690   1.406  0.1920 -0.0088  0.7259
   40MOL    C1910237   1.965   2.658   1.316  0.6371  0.6439 -0.4022
   40MOL    H2010238   2.003   2.964   1.231 -0.6628  0.0125 -0.0544
   40MOL    H2110239   1.951   2.845   1.112  0.3255  1.7812 -2.5522
   40MOL    H2210240   1.730   2.910   1.294 -0.7524 -2.1772  0.8939
   40MOL    H2310241   1.749   2.686   1.511 -0.3883  1.2273  0.9402
   40MOL    H2410242   1.693   2.598   1.356  0.3175 -0.6256  1.7969
   40MOL    H2510243   1.634   2.756   1.405  0.7923  0.8118 -1.5452
   40MOL    H2610244   2.014   2.673   1.220  0.8512 -0.2784 -0.4486
   40MOL    H2710245   1.941   2.552   1.328 -0.3335  1.2308  3.1710
   40MOL    C2810246   2.068   2.694   1.424 -0.3557 -0.3263  0.0942
   40MOL    C2910247   2.213   2.637   1.401  0.9206  0.2894  0.3264
   40MOL    C3010248   2.286   2.558   1.481  0.0334 -0.0162 -0.1329
   40MOL    C3110249   2.430   2.533   1.439  0.0260  1.1738  0.7595
   40MOL    C3210250   2.234   2.488   1.608  0.2749  1.1930 -0.1101
   40MOL    H3310251   2.015   2.674   1.517 -0.4952  2.3945  0.6186
   40MOL    H3410252   2.089   2.800   1.413  1.6130 -0.7083  0.0427
   40MOL    H3510253   2.243   2.672   1.303 -2.4325 -0.4022 -1.0124
   40MOL    H3610254   2.454   2.591   1.350 -0.9351  1.0446  0.4203
   40MOL    H3710255   2.453   2.427   1.433 -0.8800  1.1377 -2.9557
   40MOL    H3810256   2.494   2.575   1.517 -0.3491  0.2116  1.5920
   40MOL    H3910257   2.159   2.545   1.664 -0.1701  0.1986  0.3197
   40MOL    H4010258   2.318   2.475   1.676  0.4147 -0.4078 -0.5572
   40MOL    C4110259   2.156   2.358   1.569  0.1315  0.1407 -0.5067
   40MOL    C4210260   2.090   2.285   1.688  0.1870 -0.1855 -0.2132
   40MOL    C4310261   2.045   2.157   1.685  0.1055 -0.9728  0.0935
   40MOL    C4410262   1.974   2.087   1.800 -0.1125 -0.3476 -0.9315
   40MOL    C4510263   2.048   2.061   1.560  0.5045 -0.3297  0.0089
   40MOL    H4610264   2.207   2.286   1.506 -0.1528 -1.6937  1.3361
   40MOL    H4710265   2.072   2.386   1.505  0.2577 -1.9960 -1.6492
   40MOL    H4810266   2.073   2.337   1.781 -0.9808 -0.5486 -0.2102
   40MOL    H4910267   1.979   1.979   1.786 -2.1774 -0.4721 -0.9579
   40MOL    H5010268   1.867   2.110   1.795 -0.0077  0.0424 -1.4144
   40MOL    H5110269   2.017   2.116   1.896  0.5687 -0.3573 -1.2304
   40MOL    H5210270   2.062   1.956   1.582 -0.4455 -0.0041  2.2900
   40MOL    H5310271   2.132   2.093   1.498 -1.8196  1.8122 -2.2018
   40MOL    C5410272   1.921   2.075   1.477 -0.0776  0.1925  0.4080
   40MOL    C5510273   1.928   1.996   1.349  0.2140  0.2449  0.4810
   40MOL    C5610274   1.897   2.029   1.226  0.6647 -0.1439  0.8316
   40MOL    C5710275   1.923   1.934   1.103  0.2631 -0.1320 -0.2720
   40MOL    C5810276   1.884   2.175   1.186  0.3281 -0.2418 -0.2988
   40MOL    H5910277   1.898   2.181   1.464  1.1491  0.3577 -0.5343
   40MOL    H6010278   1.840   2.034   1.536 -1.4900  1.5408 -0.5383
   40MOL    H6110279   1.964   1.895   1.356 -0.2419  0.0097 -0.4655
   40MOL    H6210280   1.862   1.971   1.020 -0.9986 -2.2688 -0.3276
   40MOL    H6310281   1.902   1.830   1.128 -3.0994  0.1793 -1.4727
   40MOL    H6410282   2.029   1.947   1.082 -0.2166  1.2312 -2.0240
   40MOL    H6510283   1.951   2.197   1.103  0.9978  1.5037  0.6751
   40MOL    H6610284   1.927   2.245   1.257 -1.2755  0.0183  0.4357
   40MOL    C6710285   1.745   2.213   1.149 -0.5552  0.4140 -0.4580
   40MOL    C6810286   1.742   2.344   1.072  0.1387 -0.2514  0.5567
   40MOL    C6910287   1.700   2.360   0.943 -0.7055 -0.3555 -0.3884
   40MOL    C7010288   1.709   2.499   0.885  0.9288  0.3161 -0.0714
   40MOL    C7110289   1.659   2.251   0.842 -0.0544 -0.7548 -0.5514
   40MOL    H7210290   1.686   2.222   1.240 -2.3059  0.4554 -1.5721
   40MOL    H7310291   1.702   2.135   1.086 -0.5822 -0.2607  0.3932
   40MOL    H7410292   1.764   2.427   1.137  1.6143  1.0299 -1.5033
   40MOL    H7510293   1.786   2.506   0.808 -0.8300 -0.6552 -1.9690
   40MOL    H7610294   1.737   2.574   0.959 -1.9929 -1.6856  3.2034
   40MOL    H7710295   1.620   2.528   0.829  0.9411 -1.2624 -0.9308
   40MOL    H7810296   1.559   2.274   0.805  1.0384  1.6633 -2.0892
   40MOL    H7910297   1.647   2.151   0.886 -1.3131  0.9081  3.1048
   40MOL    C8010298   1.751   2.251   0.715 -0.2188  0.2614 -0.4196
   40MOL    C8110299   1.734   2.122   0.640 -0.2357  0.1267  0.4107
   40MOL    C8210300   1.621   2.093   0.566 -0.4316  1.0160 -0.6256
   40MOL    C8310301   1.490   2.174   0.561 -0.2804 -0.3495 -0.1247
   40MOL    C8410302   1.611   1.958   0.495  0.4763  0.0402  0.2318
   40MOL    H8510303   1.856   2.252   0.742 -0.3271 -0.8324  0.0867
   40MOL    H8610304   1.733   2.344   0.662 -0.9116  0.5971  0.3870
   40MOL    H8710305   1.814   2.050   0.649  0.0611  0.4913  0.6761
   40MOL    H8810306   1.437   2.147   0.470  0.5636 -0.2975 -0.6354
   40MOL    H8910307   1.513   2.279   0.578 -3.2198  0.7308 -2.3509
   40MOL    H9010308   1.429   2.133   0.642 -0.2984  0.7693  0.4374
   40MOL    H9110309   1.546   1.888   0.547  1.7491 -0.2414  1.4681
   40MOL    H9210310   1.708   1.910   0.504  0.9027  1.1351  1.5675
   40MOL    C9310311   1.593   1.964   0.344 -0.1553 -0.1003 -0.8244
   40MOL    C9410312   1.546   1.829   0.286  0.2273  0.4765  1.0539
   40MOL    C9510313   1.595   1.758   0.178 -0.5158  1.0794  0.7576
   40MOL    C9610314   1.538   1.631   0.128  0.0459 -0.0412  0.4404
   40MOL    C9710315   1.723   1.789   0.104 -0.2348 -0.4459  0.6712
   40MOL    H9810316   1.683   2.000   0.294  0.3781 -1.9282 -1.2154
   40MOL    H9910317   1.511   2.022   0.302 -0.3612 -0.5680 -1.0754
   40MOL   H10010318   1.464   1.783   0.338  0.9880  1.7245  3.4290
   40MOL   H10110319   1.458   1.590   0.190  1.7187 -0.1942  2.5315
   40MOL   H10210320   1.483   1.653   0.036 -2.8599 -2.0012  1.6282
   40MOL   H10310321   1.606   1.552   0.099 -0.0489 -0.6017  1.7218
   40MOL   H10410322   1.743   1.895   0.117 -0.0931 -0.2418 -1.0647
   40MOL   H10510323   1.710   1.771   7.876  1.7844 -1.8071  0.6260
   40MOL   C10610324   1.842   1.703   0.138 -0.2175  0.2745  0.4049
   40MOL   C10710325   1.970   1.738   0.065 -0.0800 -0.0920 -0.3056
   40MOL   C10810326   2.090   1.697   0.114  0.4197  0.2529  1.1861
   40MOL   C10910327   2.107   1.621   0.246 -0.0440 -0.0052 -0.3246
   40MOL   C11010328   2.213   1.729   0.039 -1.0077 -0.4037  0.2459
   40MOL   H11110329   1.815   1.605   0.099 -0.7350  0.4971  0.1971
   40MOL   H11210330   1.844   1.685   0.246 -0.6402  0.6588  0.4761
   40MOL   H11310331   1.970   1.794   7.852  3.1895 -2.7370 -2.0204
   40MOL   H11410332   2.106   1.515   0.223 -1.6640  0.1466 -1.0115
   40MOL   H11510333   2.202   1.643   0.294  0.4419  0.7572 -1.5954
   40MOL   H11610334   2.045   1.647   0.332  0.0371  2.2507 -0.9092
   40MOL   H11710335   2.209   1.761   7.814 -0.0252  0.0081  0.3330
   40MOL   H11810336   2.273   1.640   0.022 -2.3060 -1.1985 -0.2794
   40MOL   C11910337   2.288   1.844   0.110  0.1386  0.4579 -0.2692
   40MOL   C12010338   2.430   1.871   0.069  1.0354 -0.3859 -0.0086
   40MOL   C12110339   2.482   1.989   0.045  0.0728 -0.0449 -0.1283
   40MOL   C12210340   2.626   1.999   7.878  0.3052  0.1964 -0.2261
   40MOL   C12310341   2.412   2.127   0.062  0.1549 -0.0294 -0.9045
   40MOL   H12410342   2.297   1.833   0.218 -1.6456  0.0276 -0.1359
   40MOL   H12510343   2.231   1.937   0.100 -0.7808 -0.1062 -0.3583
   40MOL   H12610344   2.501   1.791   0.056  1.1370 -0.0671 -1.4127
   40MOL   H12710345   2.679   2.035   0.087  2.0529  2.8607 -2.2994
   40MOL   H12810346   2.643   2.075   7.801 -1.2473  1.5905  0.7851
   40MOL   H12910347   2.676   1.907   7.846  2.4656  0.6282  1.8129
   40MOL   H13010348   2.477   2.202   0.107  0.8419 -1.3295  0.3170
   40MOL   H13110349   2.327   2.110   0.128  0.8714  3.3866  1.0285
   40MOL   C13210350   2.359   2.181   7.811 -0.5166  0.8010  0.2355
   40MOL   C13310351   2.260   2.293   7.837  0.4337 -0.6313  0.0128
   40MOL   C13410352   2.291   2.427   7.848  0.0187 -0.2166 -0.2181
   40MOL   C13510353   2.180   2.536   7.867  0.1298  0.4008 -0.6042
   40MOL   C13610354   2.437   2.479   7.834 -0.2303  0.3189 -0.3720
   40MOL   H13710355   2.301   2.110   7.752  0.0479  0.3897  0.1725
   40MOL   H13810356   2.445   2.212   7.751 -1.0588 -0.1191 -1.0249
   40MOL   H13910357   2.157   2.269   7.857  0.4988 -2.1121 -1.2935
   40MOL   H14010358   2.164   2.605   7.784  0.4679  1.0197 -0.1502
   40MOL   H14110359   2.204   2.592   0.078 -1.3910 -2.2542  1.5260
   40MOL   H14210360   2.081   2.491   7.874 -0.0314  1.2053  3.1935
   40MOL   H14310361   2.504   2.401   7.870  0.0283 -0.4421 -2.4205
   40MOL   H14410362   2.461   2.566   0.016 -0.9844  1.1844 -1.2893
   40MOL   C14510363   2.476   2.503   7.688 -0.3218 -0.6756 -0.7055
   40MOL   C14610364   2.626   2.512   7.681 -0.0092 -0.1435 -0.0065
   40MOL   C14710365   2.703   2.615   7.645  0.2273  0.1369  0.3583
   40MOL   C14810366   2.854   2.605   7.645 -0.4458  0.0623  0.1467
   40MOL   C14910367   2.648   2.755   7.589  0.1164  0.0965 -0.1636
   40MOL   H15010368   2.427   2.594   7.654 -0.1654  0.1961  1.3463
   40MOL   H15110369   2.452   2.418   7.624 -1.4295 -0.0455 -1.1318
   40MOL   H15210370   2.670   2.420   7.717 -0.4106  0.2458  1.4977
   40MOL   H15310371   2.891   2.673   7.722 -0.8847  1.6071 -0.9833
   40MOL   H15410372   2.901   2.628   7.549 -1.8758  1.1422 -0.3067
   40MOL   H15510373   2.888   2.508   7.681 -0.3940  0.1351  0.2930
   40MOL   H15610374   2.539   2.758   7.582  0.1459 -0.6693 -1.0596
   40MOL   H15710375   2.687   2.770   7.489  1.3625 -1.3730  0.0877
   40MOL   C15810376   2.700   2.874   7.664 -0.1616  0.3687 -0.0307
   40MOL   C15910377   2.628   3.004   7.633 -0.0983 -0.1796  0.8101
   40MOL   C16010378   2.680   3.120   7.581  0.0904 -0.0012  0.4867
   40MOL   C16110379   2.816   3.145   7.534  0.3287  0.4176 -0.0851
   40MOL   C16210380   2.579   3.235   7.555 -0.4165  0.9692  0.1329
   40MOL   H16310381   2.806   2.890   7.641  0.8113 -0.5005  3.4578
   40MOL   H16410382   2.690   2.864   7.772  1.0097 -2.1537 -0.1302
   40MOL   H16510383   2.522   3.005   7.655  0.3518 -0.0377  3.0493
   40MOL   H16610384   2.847   3.249   7.533  2.6729 -0.2471 -0.4259
   40MOL   H16710385   2.825   3.111   7.431 -2.1491  0.6779 -0.4103
   40MOL   H16810386   2.880   3.083   7.597  0.1741 -3.2812 -3.3937
   40MOL   H16910387   2.624   3.329   7.587  0.4419 -0.5249  3.5475
   40MOL   H17010388   2.489   3.211   7.612 -0.2187 -1.0962 -0.3566
   40MOL   C17110389   2.547   3.253   7.405  0.7954 -0.6615  0.0102
   40MOL   C17210390   2.653   3.324   7.325  0.5018 -0.1138 -0.3018
   40MOL   C17310391   2.711   3.283   7.215 -0.9654  0.5516 -1.1443
   40MOL   C17410392   2.673   3.153   7.143 -0.7896 -0.2455 -0.2473
   40MOL   C17510393   2.834   3.363   7.166  0.0791  0.1635  0.1818
   40MOL   H17610394   2.464   3.322   7.388  1.5155  0.3518  0.5072
   40MOL   H17710395   2.516   3.155   7.371 -2.5678 -1.1354  4.0406
   40MOL   H17810396   2.692   3.409   7.380  2.0383 -0.8643 -0.1984
   40MOL   H17910397   2.571   3.115   7.154 -1.8328  2.7723  0.9879
   40MOL   H18010398   2.733   3.073   7.187 -0.2531 -0.7874 -1.9366
   40MOL   H18110399   2.693   3.163   7.037 -3.7105 -0.9347 -0.9127
   40MOL   H18210400   2.835   3.452   7.229 -1.1016  0.4946 -0.2687
   40MOL   H18310401   2.822   3.397   7.063 -0.7845  2.3115  0.9658
   40MOL   C18410402   2.970   3.285   7.188 -0.3143 -0.6086  0.3650
   40MOL   C18510403   3.094   3.377   7.155  0.3473  0.2476 -0.5994
   40MOL   C18610404   3.212   3.341   7.098 -0.1476 -0.1374  0.6995
   40MOL   C18710405   3.329   3.433   7.076  0.2204  0.1558  0.2035
   40MOL   C18810406   3.247   3.200   7.041  0.2943 -0.1105 -0.1686
   40MOL   H18910407   2.961   3.196   7.127  0.8607 -0.8718  0.5716
   40MOL   H19010408   2.978   3.249   7.290  0.4662  1.0140  0.8921
   40MOL   H19110409   3.083   3.481   7.183  0.2845  0.0776  0.0184
   40MOL   H19210410   3.417   3.376   7.104  0.4444  0.2874 -0.2213
   40MOL   H19310411   3.330   3.522   7.140  0.3685  1.0937 -1.0791
   40MOL   H19410412   3.341   3.458   6.970  3.5821 -0.7373  0.3265
   40MOL   H19510413   3.168   3.132   7.074 -0.9707  1.5810  0.3347
   40MOL   H19610414   3.331   3.168   7.103 -0.9347  2.2668  2.8377
   40MOL   C19710415   3.279   3.209   6.897  0.1063  0.8425  0.2493
   40MOL   C19810416   3.285   3.069   6.838 -0.1140 -0.3938 -0.1682
   40MOL   C19910417   3.201   3.011   6.752 -0.6727 -0.5659  0.0238
   40MOL   C20010418   3.232   2.878   6.689  0.1086  0.6977 -0.1785
   40MOL   C20110419   3.064   3.073   6.706  0.2547  0.4243 -0.1203
   40MOL   H20210420   3.379   3.253   6.890 -0.3351  1.9029  0.5625
   40MOL   H20310421   3.209   3.272   6.843 -0.1510  0.4742  0.1543
   40MOL   H20410422   3.374   3.010   6.852  0.6147  0.2217 -2.0268
   40MOL   H20510423   3.296   2.826   6.760  0.1878 -0.8492 -1.3513
   40MOL   H20610424   3.286   2.891   6.595 -1.0275  0.1131 -0.9189
   40MOL   H20710425   3.136   2.829   6.673  0.7825 -0.7634  0.1342
   40MOL   H20810426   3.033   3.150   6.778 -0.3095 -1.9995  2.3173
   40MOL   H20910427   2.984   2.999   6.712 -0.0870  0.8693  1.0598
   40MOL   C21010428   3.082   3.130   6.556 -0.4711 -0.4575 -0.8854
   40MOL   C21110429   2.947   3.168   6.492  0.5174 -0.6900  0.0629
   40MOL   C21210430   2.932   3.222   6.367 -0.4392  0.1327 -0.0960
   40MOL   C21310431   2.797   3.228   6.301  0.3661 -0.7019 -0.3782
   40MOL   C21410432   3.049   3.269   6.283  0.5984 -0.2801  0.2642
   40MOL   H21510433   3.136   3.061   6.491  2.2649 -1.0994  1.9650
   40MOL   H21610434   3.137   3.224   6.565 -0.4055 -0.6560  0.9493
   40MOL   H21710435   2.863   3.130   6.547 -0.0251  0.0195 -0.2631
   40MOL   H21810436   2.718   3.221   6.376  1.3438 -0.3342  0.7028
   40MOL   H21910437   2.801   3.148   6.227  0.6356  0.4387 -1.6348
   40MOL   H22010438   2.785   3.318   6.240  1.1462 -1.5817 -1.8797
   40MOL   H22110439   3.123   3.320   6.346  1.5645  0.6848 -1.5991
   40MOL   H22210440   3.020   3.350   6.216  2.1914  0.3854  0.3500
   40MOL   C22310441   3.112   3.154   6.193  0.5667  0.3088  1.0221
   40MOL   C22410442   3.225   3.206   6.107 -0.5486 -0.4129 -0.3519
   40MOL   C22510443   3.231   3.255   5.986  0.1886  0.2388  0.3084
   40MOL   C22610444   3.359   3.303   5.927  0.0542 -0.6620  0.0260
   40MOL   C22710445   3.099   3.267   5.907  0.5089 -0.4336  0.4672
   40MOL   H22810446   3.043   3.099   6.128  0.2722 -0.0879  1.6611
   40MOL   H22910447   3.155   3.069   6.246 -1.5959 -1.0986  0.5915
   40MOL   H23010448   3.311   3.198   6.171  0.6156  0.2133 -1.7993
   40MOL   H23110449   3.448   3.303   5.990 -1.1188  2.6835  1.8286
   40MOL   H23210450   3.348   3.410   5.906  0.6030  0.1573  3.5512
   40MOL   H23310451   3.368   3.259   5.828 -2.0175  2.1872 -1.4955
   40MOL   H23410452   3.031   3.192   5.947  0.5583 -1.6566 -1.6579
   40MOL   H23510453   3.118   3.238   5.804 -2.3530  1.3251 -0.6002
   40MOL   C23610454   3.034   3.404   5.920  0.1995  0.6847 -0.0810
   40MOL   C23710455   2.881   3.396   5.933 -0.3442  1.3116 -0.7853
   40MOL   C23810456   2.793   3.492   5.920  0.7111  0.4077 -0.3025
   40MOL   C23910457   2.641   3.472   5.947  0.7126 -0.7282  0.6673
   40MOL   C24010458   2.842   3.636   5.875 -0.3484  0.1054  0.0510
   40MOL   H24110459   3.069   3.469   5.841 -1.2856  0.9348 -0.5565
   40MOL   H24210460   3.073   3.442   6.014  0.5301  0.8023 -0.2663
   40MOL   H24310461   2.845   3.296   5.952  1.9656  1.0313  2.5619
   40MOL   H24410462   2.624   3.380   6.004 -1.7294 -0.4127  0.5177
   40MOL   H24510463   2.590   3.470   5.851  0.7250 -0.6262  0.6598
   40MOL   H24610464   2.608   3.559   6.003  0.5068  0.6695 -1.5594
   40MOL   H24710465   2.766   3.664   5.802  0.5446 -1.2870 -1.4646
   40MOL   H24810466   2.928   3.631   5.808  0.9187  0.3735  1.6312
   40MOL   C24910467   2.854   3.735   5.997  0.0229  0.1924 -0.0145
   40MOL   C25010468   2.983   3.718   6.090 -0.2060 -0.9526 -0.3209
   40MOL   C25110469   2.983   3.670   6.222 -0.1242 -0.0736  0.8745
   40MOL   C25210470   3.111   3.672   6.302 -0.0909  0.1518 -0.6631
   40MOL   C25310471   2.862   3.620   6.308  0.3829  1.1441 -0.1537
   40MOL   H25410472   2.765   3.719   6.058  0.8694 -1.8554  0.7243
   40MOL   H25510473   2.849   3.835   5.953  2.9363 -0.5012 -2.0148
   40MOL   H25610474   3.074   3.752   6.044 -0.5335  0.0358 -0.2405
   40MOL   H25710475   3.198   3.716   6.254  0.1769  0.2877 -0.0564
   40MOL   H25810476   3.140   3.569   6.323  0.8644  0.7976  1.3369
   40MOL   H25910477   3.103   3.730   6.394 -2.4370 -1.0792 -0.0475
   40MOL   H26010478   2.829   3.694   6.380  1.1727 -0.2264  1.6484
   40MOL   H26110479   2.880   3.523   6.354  1.3063 -0.0172 -2.8280
   40MOL   H26210480   2.777   3.602   6.242  1.2233  0.2560 -1.0110
   41MOL     C110481   5.962   1.397   1.798  0.0946 -0.1691  0.2535
   41MOL     C210482   5.926   1.453   1.937 -0.3072 -0.8863  0.3235
   41MOL     C310483   5.881   1.578   1.964 -0.3121  0.4086  0.0972
   41MOL     C410484   5.864   1.619   2.107  0.3103 -0.1875 -0.0256
   41MOL     C510485   5.837   1.673   1.853 -0.3986  0.0821 -0.5564
   41MOL     H610486   6.052   1.440   1.752 -0.8254  0.1866 -1.2451
   41MOL     H710487   5.979   1.290   1.802  0.6815 -0.1059 -0.3986
   41MOL     H810488   5.961   1.394   2.020 -0.9407 -0.8013  0.6472
   41MOL     H910489   5.908   1.544   2.173  1.2366 -1.0961 -1.6618
   41MOL    H1010490   5.759   1.613   2.133  1.2138 -1.7044  3.6616
   41MOL    H1110491   5.915   1.716   2.111 -0.7148  0.3315  0.7324
   41MOL    H1210492   5.889   1.646   1.761 -0.5507 -0.9275 -0.3520
   41MOL    H1310493   5.872   1.774   1.879  0.2570  0.0029 -1.1048
   41MOL    H1410494   5.886   1.419   1.723  0.1126 -3.1705 -0.6924
   41MOL    C1510495   5.686   1.687   1.837 -0.0151 -0.0250 -0.5550
   41MOL    C1610496   5.645   1.772   1.719 -0.6551 -0.3237  0.0492
   41MOL    C1710497   5.602   1.898   1.731 -0.0058 -0.4729  0.1218
   41MOL    C1810498   5.563   1.974   1.610 -0.2086  0.5907 -0.6686
   41MOL    C1910499   5.577   1.979   1.865  0.4053  0.4875 -0.5563
   41MOL    H2010500   5.631   1.731   1.920 -0.7995  0.9320 -1.5681
   41MOL    H2110501   5.638   1.591   1.817 -0.4059  0.0739 -0.0876
   41MOL    H2210502   5.660   1.730   1.621  0.7409 -1.3473  0.6779
   41MOL    H2310503   5.643   2.042   1.580 -0.0492  0.3972 -0.6872
   41MOL    H2410504   5.487   2.047   1.636 -0.7032  0.9347 -2.9933
   41MOL    H2510505   5.532   1.915   1.524  1.4101  0.8458 -1.4656
   41MOL    H2610506   5.536   1.922   1.948  2.2434  0.7405  0.5451
   41MOL    H2710507   5.500   2.052   1.842  0.8297  1.3777  0.7935
   41MOL    C2810508   5.703   2.057   1.901 -0.1447 -0.5772 -0.1631
   41MOL    C2910509   5.698   2.124   2.038  0.5783  1.3954 -0.5972
   41MOL    C3010510   5.739   2.091   2.160  0.0730  0.3632  0.6360
   41MOL    C3110511   5.718   2.188   2.264 -0.9021  0.4682 -0.3517
   41MOL    C3210512   5.812   1.962   2.192 -0.2492 -0.1215 -0.0074
   41MOL    H3310513   5.721   2.138   1.831 -0.0192  0.8383  1.4519
   41MOL    H3410514   5.788   1.993   1.880 -0.1901 -0.4566 -0.7150
   41MOL    H3510515   5.652   2.222   2.029  3.2834  2.8747  0.9700
   41MOL    H3610516   5.811   2.235   2.297 -1.1376  1.0841 -0.5677
   41MOL    H3710517   5.686   2.134   2.354 -0.4856  0.4042 -0.2390
   41MOL    H3810518   5.647   2.269   2.248 -1.1993 -0.7298 -6.1722
   41MOL    H3910519   5.806   1.899   2.103 -0.2910 -0.0743 -0.0376
   41MOL    H4010520   5.767   1.910   2.276  2.2721 -1.4562  0.5713
   41MOL    C4110521   5.961   1.989   2.222  0.1993  0.1783  0.2044
   41MOL    C4210522   6.040   2.034   2.097  0.3256  0.0048  0.6716
   41MOL    C4310523   6.169   2.066   2.076 -0.0836  0.2815 -0.2901
   41MOL    C4410524   6.207   2.123   1.941 -0.2761 -0.2359  0.2407
   41MOL    C4510525   6.280   2.062   2.182  0.3296  0.3474  0.3327
   41MOL    H4610526   6.015   1.898   2.246  1.5882  0.5100 -1.4987
   41MOL    H4710527   5.984   2.055   2.306  0.5545  2.0250 -1.2980
   41MOL    H4810528   5.982   2.041   2.006 -1.7149  2.7526  2.1028
   41MOL    H4910529   6.278   2.057   1.892 -0.5036 -0.7533  0.6006
   41MOL    H5010530   6.247   2.224   1.943 -0.4836 -0.1642  3.3276
   41MOL    H5110531   6.116   2.123   1.881 -1.0252 -0.6623  1.3623
   41MOL    H5210532   6.352   1.981   2.173  0.0116  0.3577 -2.6618
   41MOL    H5310533   6.233   2.037   2.277 -2.7582 -0.5094 -1.3670
   41MOL    C5410534   6.349   2.197   2.188  0.4097  0.1036  0.2188
   41MOL    C5510535   6.416   2.210   2.325 -0.3403 -0.3534  0.0476
   41MOL    C5610536   6.526   2.288   2.351  0.1468  1.0776 -0.7574
   41MOL    C5710537   6.588   2.297   2.498  0.6846  0.3023  0.1798
   41MOL    C5810538   6.602   2.378   2.255  0.1882 -0.9665 -0.7789
   41MOL    H5910539   6.297   2.289   2.159 -1.2843 -0.8096  0.2771
   41MOL    H6010540   6.433   2.187   2.120  0.4028 -2.0108  0.5059
   41MOL    H6110541   6.383   2.155   2.412 -1.7529  0.5851  0.1065
   41MOL    H6210542   6.573   2.392   2.549  1.2705  0.3735  0.2184
   41MOL    H6310543   6.696   2.287   2.490  0.7519 -0.5469  1.9514
   41MOL    H6410544   6.545   2.223   2.565  0.3665  0.5173  0.2140
   41MOL    H6510545   6.587   2.348   2.151 -1.5392  1.2725 -1.2066
   41MOL    H6610546   6.708   2.372   2.277  0.1869  0.5368 -0.3126
   41MOL    C6710547   6.577   2.528   2.290 -0.0086  0.1411  0.3274
   41MOL    C6810548   6.663   2.614   2.201 -0.0071  0.3905 -0.0698
   41MOL    C6910549   6.776   2.681   2.233  0.8542 -0.2072 -0.2233
   41MOL    C7010550   6.848   2.748   2.116  0.0012 -0.3680  0.5405
   41MOL    C7110551   6.830   2.706   2.375 -0.3219 -0.2664 -0.0574
   41MOL    H7210552   6.613   2.556   2.389 -0.3534  0.1829  0.4445
   41MOL    H7310553   6.473   2.560   2.283  0.0331  0.0117 -1.1365
   41MOL    H7410554   6.636   2.610   2.097 -0.5198 -0.8133  0.0966
   41MOL    H7510555   6.955   2.747   2.135  0.0792 -0.7916  0.0786
   41MOL    H7610556   6.818   2.852   2.099  0.0439 -0.3500  0.5775
   41MOL    H7710557   6.831   2.696   2.022 -0.4329  0.5778  0.0824
   41MOL    H7810558   6.934   2.674   2.385  0.1613  1.2899  0.0879
   41MOL    H7910559   6.780   2.650   2.454 -2.7592  0.7736 -0.8361
   41MOL    C8010560   6.820   2.850   2.421  0.8186  0.2233  0.8540
   41MOL    C8110561   6.921   2.948   2.369 -0.6417 -0.5057  0.0895
   41MOL    C8210562   6.895   3.067   2.310  0.4567 -0.1526  0.4721
   41MOL    C8310563   6.759   3.111   2.290 -0.4403 -0.3639  0.7231
   41MOL    C8410564   6.999   3.160   2.252  0.1655 -0.3261 -0.2160
   41MOL    H8510565   6.814   2.857   2.530  0.2384  0.1646  0.8280
   41MOL    H8610566   6.729   2.886   2.374  0.7524  0.2158  0.9763
   41MOL    H8710567   7.021   2.907   2.375 -0.9218 -1.7957 -3.2216
   41MOL    H8810568   6.692   3.035   2.248 -1.6578  1.4408 -0.6883
   41MOL    H8910569   6.765   3.184   2.210 -0.6169 -1.1637 -0.0213
   41MOL    H9010570   6.719   3.162   2.379 -1.6715  1.6522 -0.9358
   41MOL    H9110571   6.968   3.260   2.282  2.0772  0.7037 -1.5865
   41MOL    H9210572   6.979   3.153   2.145  1.2044  1.1316 -0.5138
   41MOL    C9310573   7.146   3.113   2.278  0.1025 -0.5224 -0.3427
   41MOL    C9410574   7.246   3.219   2.230  0.2881  0.0456 -0.4728
   41MOL    C9510575   7.311   3.229   2.109  0.1738  0.8311 -0.1838
   41MOL    C9610576   7.425   3.327   2.087  0.1662 -0.4851 -0.0609
   41MOL    C9710577   7.297   3.125   2.000 -0.0024 -0.3751 -0.6031
   41MOL    H9810578   7.155   3.020   2.222 -0.0940 -0.0622 -1.1327
   41MOL    H9910579   7.175   3.085   2.380  1.2895 -0.2946 -0.6103
   41MOL   H10010580   7.268   3.294   2.305  1.5974 -0.1100 -0.6773
   41MOL   H10110581   7.520   3.275   2.101  1.3669  1.8651  0.8196
   41MOL   H10210582   7.415   3.363   1.985 -2.1563  1.5295  0.8472
   41MOL   H10310583   7.423   3.419   2.145 -0.7202 -0.1589 -0.6001
   41MOL   H10410584   7.301   3.188   1.911  0.3033 -0.4649 -0.6528
   41MOL   H10510585   7.196   3.087   2.016  0.7789 -2.2082  0.2000
   41MOL   C10610586   7.403   3.013   1.986  0.1352 -0.2394  0.3979
   41MOL   C10710587   7.398   2.900   2.091  0.7681 -0.0796 -0.1682
   41MOL   C10810588   7.331   2.784   2.077 -0.0803 -0.2518 -0.1534
   41MOL   C10910589   7.237   2.742   1.961  0.7084  0.2987 -0.0675
   41MOL   C11010590   7.360   2.678   2.179 -0.0843  0.2074 -0.5796
   41MOL   H11110591   7.504   3.055   1.991 -0.3508  1.0905 -0.8494
   41MOL   H11210592   7.389   2.969   1.887 -0.2958  1.4087 -0.2773
   41MOL   H11310593   7.455   2.909   2.182 -0.4884 -0.5645  0.6668
   41MOL   H11410594   7.266   2.785   1.865 -0.9145  0.0012 -0.7009
   41MOL   H11510595   7.217   2.635   1.957 -0.3261  0.5338 -1.6377
   41MOL   H11610596   7.137   2.781   1.980  0.3960 -0.5683  0.0531
   41MOL   H11710597   7.458   2.701   2.221 -0.9825 -0.0028  1.7106
   41MOL   H11810598   7.358   2.581   2.131  3.0267 -1.2573  2.1237
   41MOL   C11910599   7.261   2.679   2.288  0.5746  0.1545 -0.0321
   41MOL   C12010600   7.306   2.586   2.393  0.4881 -0.3613 -0.0407
   41MOL   C12110601   7.311   2.615   2.521  0.1130 -0.3589 -0.7263
   41MOL   C12210602   7.360   2.512   2.619  0.2899  0.2379 -0.3514
   41MOL   C12310603   7.279   2.755   2.582 -0.3175  0.5291 -0.1332
   41MOL   H12410604   7.165   2.644   2.249  0.2600 -0.1715  1.0004
   41MOL   H12510605   7.235   2.780   2.320  0.5747  0.5115 -1.1433
   41MOL   H12610606   7.333   2.487   2.360 -1.4739 -0.4236 -1.5259
   41MOL   H12710607   7.392   2.424   2.563  0.6246  0.1610 -0.0354
   41MOL   H12810608   7.279   2.471   2.679 -0.4729 -1.8507 -2.7091
   41MOL   H12910609   7.445   2.544   2.680  1.2338 -1.2699 -0.8361
   41MOL   H13010610   7.229   2.743   2.677  0.3108  1.5664  0.3414
   41MOL   H13110611   7.202   2.810   2.529  0.0077 -0.4873 -1.7186
   41MOL   C13210612   7.407   2.842   2.598  0.6375  0.1597  0.3067
   41MOL   C13310613   7.355   2.985   2.630 -0.4038 -0.5664 -0.0092
   41MOL   C13410614   7.376   3.098   2.559 -0.0238 -0.1908 -0.6466
   41MOL   C13510615   7.322   3.231   2.622  0.6080 -0.8085  0.3481
   41MOL   C13610616   7.461   3.114   2.436  0.3909  1.0159  0.1292
   41MOL   H13710617   7.460   2.840   2.502  0.4894 -0.1509  0.2295
   41MOL   H13810618   7.476   2.808   2.674  1.1896  0.5305 -0.0246
   41MOL   H13910619   7.298   3.000   2.720 -2.2096 -0.6139 -1.1229
   41MOL   H14010620   7.396   3.309   2.608 -0.4576 -0.1612 -1.8873
   41MOL   H14110621   7.304   3.221   2.730  3.2517 -1.6113  0.7417
   41MOL   H14210622   7.233   3.270   2.573  0.2371 -1.7804  0.2259
   41MOL   H14310623   7.454   3.217   2.401  2.8083  0.9331 -0.6514
   41MOL   H14410624   7.429   3.042   2.361  0.6622  0.8633  0.1630
   41MOL   C14510625   7.616   3.093   2.452 -0.0358 -0.0811 -0.6651
   41MOL   C14610626   7.672   3.101   2.314 -0.8560 -0.4794  0.0225
   41MOL   C14710627   7.704   2.990   2.241 -0.1926 -0.2317  0.6167
   41MOL   C14810628   7.781   3.006   2.109  0.4875  0.1031  0.2364
   41MOL   C14910629   7.685   2.853   2.284 -0.4252  0.5187 -0.8041
   41MOL   H15010630   7.637   2.993   2.492  3.2081 -0.3783 -2.9356
   41MOL   H15110631   7.656   3.156   2.532 -1.0150 -1.9466  1.3790
   41MOL   H15210632   7.694   3.201   2.280 -2.6074 -0.3676 -0.8750
   41MOL   H15310633   7.796   3.110   2.079  0.5323 -0.0932 -0.4417
   41MOL   H15410634   7.715   2.967   2.031  0.1252  3.0272 -0.9987
   41MOL   H15510635   7.868   2.941   2.105  0.3048 -0.0596 -1.6988
   41MOL   H15610636   7.671   2.790   2.196  2.8402  1.6931 -2.2940
   41MOL   H15710637   7.598   2.833   2.346  0.9383 -3.1845  0.0370
   41MOL   C15810638   7.814   2.793   2.350  0.2673  0.1063  0.6922
   41MOL   C15910639   7.799   2.654   2.395  0.2548  0.1621 -0.3370
   41MOL   C16010640   7.858   2.549   2.333  0.5788 -0.0954 -0.2468
   41MOL   C16110641   0.041   2.545   2.191  0.2999 -0.3157 -0.4066
   41MOL   C16210642   7.858   2.409   2.399 -0.5480  0.0885 -0.1236
   41MOL   H16310643   7.818   2.850   2.442 -0.7677  1.5994 -0.1501
   41MOL   H16410644   0.032   2.813   2.305  0.0619 -0.3048  0.0514
   41MOL   H16510645   7.755   2.642   2.492  1.0712  2.3435  0.3417
   41MOL   H16610646   7.850   2.513   2.113  0.5113  0.5124 -0.9470
   41MOL   H16710647   0.123   2.474   2.185  2.3372  1.9248  0.0116
   41MOL   H16810648   0.080   2.637   2.149  1.1495 -0.4296  0.1240
   41MOL   H16910649   7.798   2.341   2.339  0.1786 -0.6664 -0.0006
   41MOL   H17010650   7.808   2.422   2.495 -2.7282 -2.1713 -0.9092
   41MOL   C17110651   0.121   2.360   2.421 -0.8994  0.2496 -0.1106
   41MOL   C17210652   0.123   2.257   2.523  0.0284  0.8254 -0.2275
   41MOL   C17310653   0.160   2.276   2.651 -0.1801  0.4519  0.0097
   41MOL   C17410654   0.212   2.408   2.696 -0.3580 -0.0206  0.1005
   41MOL   C17510655   0.155   2.168   2.762 -0.3486 -0.1124 -0.2172
   41MOL   H17610656   0.187   2.442   2.450 -1.0197  0.1668  0.4048
   41MOL   H17710657   0.168   2.310   2.336 -1.8602  0.0169 -0.5146
   41MOL   H17810658   0.081   2.167   2.482 -1.2492  1.3450 -0.0776
   41MOL   H17910659   0.320   2.414   2.678 -0.5362 -1.4650 -1.5816
   41MOL   H18010660   0.200   2.422   2.803 -0.2393  0.3546  0.0654
   41MOL   H18110661   0.154   2.487   2.649  0.5349  1.5437  1.5832
   41MOL   H18210662   0.240   2.182   2.828  0.2649 -3.2218 -0.2511
   41MOL   H18310663   0.142   2.070   2.715 -0.0248 -0.4776  0.4586
   41MOL   C18410664   0.033   2.180   2.850  0.3782  0.1447 -0.2853
   41MOL   C18510665   7.780   2.147   2.775 -0.6014 -0.3896 -0.0621
   41MOL   C18610666   7.686   2.238   2.737 -0.1147 -0.7102 -0.3797
   41MOL   C18710667   7.562   2.177   2.669 -0.5175 -0.1500  0.6800
   41MOL   C18810668   7.688   2.388   2.747 -0.1401 -0.0612  0.0980
   41MOL   H18910669   0.027   2.273   2.905 -1.0242  0.8839 -1.6273
   41MOL   H19010670   0.044   2.111   2.933 -0.0231  0.0575 -0.3034
   41MOL   H19110671   7.767   2.042   2.755  2.8400 -1.5644  3.4052
   41MOL   H19210672   7.538   2.077   2.705 -0.6991 -0.6662 -0.8300
   41MOL   H19310673   7.560   2.173   2.560  2.0723 -1.5734  0.6535
   41MOL   H19410674   7.477   2.234   2.707 -1.4386 -0.2869 -1.1169
   41MOL   H19510675   7.639   2.432   2.660 -1.5456  0.9819  1.3993
   41MOL   H19610676   7.794   2.414   2.750  0.0524 -0.5486 -1.8247
   41MOL   C19710677   7.621   2.430   2.876  0.7155 -0.1369  0.1714
   41MOL   C19810678   7.624   2.580   2.885  0.6488 -0.2999 -0.2682
   41MOL   C19910679   7.712   2.659   2.944 -0.5088 -0.3783 -0.1516
   41MOL   C20010680   7.701   2.808   2.952  0.2689 -0.4952 -0.1469
   41MOL   C20110681   7.838   2.607   3.013 -0.2232 -0.1230 -0.6254
   41MOL   H20210682   7.673   2.388   2.962  2.2901  1.2281 -0.0945
   41MOL   H20310683   7.518   2.396   2.874  1.0560 -1.2250  0.6197
   41MOL   H20410684   7.536   2.626   2.842 -0.5713 -1.6209  0.7684
   41MOL   H20510685   7.600   2.847   2.941 -0.3076 -2.1040 -0.7006
   41MOL   H20610686   7.774   2.862   2.892 -0.3262 -1.0733 -1.4199
   41MOL   H20710687   7.723   2.848   3.051 -0.3706 -0.7678  0.1099
   41MOL   H20810688   0.048   2.659   2.978  1.3835 -2.5484 -0.2060
   41MOL   H20910689   7.860   2.505   2.982  1.2425  0.4314 -1.4365
   41MOL   C21010690   7.831   2.609   3.174  0.0057 -0.3190 -0.5655
   41MOL   C21110691   0.083   2.664   3.224  0.4995 -0.3868  0.0098
   41MOL   C21210692   0.200   2.596   3.252  0.0432  0.1803  0.3580
   41MOL   C21310693   0.321   2.669   3.306 -0.5260 -0.3166 -0.2387
   41MOL   C21410694   0.210   2.443   3.235  0.5314  0.3953  0.1064
   41MOL   H21510695   7.811   2.508   3.210 -0.6657  0.0290  0.0546
   41MOL   H21610696   7.741   2.662   3.206  1.3619  1.6382  0.0325
   41MOL   H21710697   0.088   2.771   3.234 -0.1401 -0.4636  1.2494
   41MOL   H21810698   0.405   2.609   3.268 -2.2988 -1.4517 -2.4672
   41MOL   H21910699   0.330   2.652   3.413  1.1279 -1.0011 -0.4699
   41MOL   H22010700   0.332   2.772   3.274 -0.0172  1.3536  4.8205
   41MOL   H22110701   0.307   2.424   3.190  0.2097  1.1806 -0.9484
   41MOL   H22210702   0.145   2.406   3.155 -0.6046 -1.0119  1.6440
   41MOL   C22310703   0.202   2.358   3.367  0.3685  0.0578  0.5726
   41MOL   C22410704   0.187   2.212   3.340 -0.1190  0.1290  0.0842
   41MOL   C22510705   0.268   2.111   3.378 -0.2033 -0.1665 -0.1970
   41MOL   C22610706   0.231   1.968   3.344  0.0218  0.3266  0.0562
   41MOL   C22710707   0.393   2.131   3.464  0.0973  0.4470  0.0280
   41MOL   H22810708   0.132   2.385   3.447  1.5793 -0.3862  1.8023
   41MOL   H22910709   0.299   2.362   3.418  0.5434 -1.6620  0.4082
   41MOL   H23010710   0.093   2.182   3.299  0.6808 -2.1691 -0.1235
   41MOL   H23110711   0.284   1.926   3.259  2.9428  3.0630  0.4627
   41MOL   H23210712   0.127   1.957   3.311 -0.7184 -1.1941  2.7255
   41MOL   H23310713   0.225   1.898   3.428 -0.2017 -0.6997 -0.7999
   41MOL   H23410714   0.465   2.209   3.438  0.6586  0.2147  0.8788
   41MOL   H23510715   0.451   2.040   3.452  2.7111  2.1118 -0.4057
   41MOL   C23610716   0.352   2.157   3.610  0.1505  0.0235 -0.0186
   41MOL   C23710717   0.462   2.139   3.711 -0.4097 -0.3754  0.1703
   41MOL   C23810718   0.444   2.128   3.843 -0.0568  0.3013 -0.2837
   41MOL   C23910719   0.561   2.115   3.931 -0.3299  0.3402 -0.4403
   41MOL   C24010720   0.315   2.128   3.918 -0.3780  0.0601  0.8568
   41MOL   H24110721   0.267   2.093   3.636 -1.2279  0.5432 -2.9597
   41MOL   H24210722   0.323   2.261   3.622 -0.4012 -0.0715 -0.4867
   41MOL   H24310723   0.560   2.142   3.667 -0.5079 -0.8194 -0.0747
   41MOL   H24410724   0.546   2.162   4.029  0.8917  0.9400 -0.5251
   41MOL   H24510725   0.648   2.151   3.877 -1.0219  0.9014 -1.1932
   41MOL   H24610726   0.577   2.011   3.959 -0.1253  0.1480 -1.2579
   41MOL   H24710727   0.326   2.049   3.993 -1.0536  0.3561  1.2655
   41MOL   H24810728   0.237   2.096   3.849  1.8909 -1.8222 -0.9369
   41MOL   C24910729   0.286   2.272   3.971  0.5477 -0.5757 -0.4042
   41MOL   C25010730   0.137   2.306   3.991 -0.2563  0.3982  0.2003
   41MOL   C25110731   0.073   2.342   4.111  0.1130 -0.3897  0.5750
   41MOL   C25210732   7.800   2.366   4.125  0.2519  0.6340  0.0683
   41MOL   C25310733   0.156   2.349   4.242 -0.2564  0.0310 -0.4088
   41MOL   H25410734   0.331   2.343   3.901  0.9351  1.0777  1.4852
   41MOL   H25510735   0.345   2.294   4.060 -0.2606 -0.3309  0.0797
   41MOL   H25610736   0.081   2.307   3.899  0.0502  1.1224  0.0140
   41MOL   H25710737   7.766   2.285   4.190 -1.4581  0.7001 -0.7256
   41MOL   H25810738   7.753   2.350   4.028 -2.0056  1.9397  0.9045
   41MOL   H25910739   7.790   2.464   4.172  0.0599  1.1331 -0.9851
   41MOL   H26010740   0.086   2.323   4.322 -1.1470  0.9230 -0.8871
   41MOL   H26110741   0.200   2.443   4.273 -0.3034 -0.9651  2.9582
   41MOL   H26210742   0.230   2.272   4.262 -0.6087 -0.0278  0.6906
   42MOL     C110743   3.990   5.576   3.138  0.1064  0.0869 -0.5747
   42MOL     C210744   3.891   5.687   3.115  0.9599  0.0083  0.5487
   42MOL     C310745   3.853   5.746   2.994 -0.3235 -0.0533  0.1331
   42MOL     C410746   3.748   5.854   2.996  0.2875 -0.7098 -0.0460
   42MOL     C510747   3.913   5.699   2.858 -0.8214  0.1340  0.2313
   42MOL     H610748   4.063   5.555   3.060  1.4841 -0.2027  0.7779
   42MOL     H710749   4.049   5.596   3.227  0.9071  0.3627 -1.1637
   42MOL     H810750   3.830   5.712   3.200  2.4158  0.4424  1.4748
   42MOL     H910751   3.793   5.937   2.941  0.3463 -0.5340  0.2676
   42MOL    H1010752   3.711   5.887   3.093  1.4203 -1.7949  0.7692
   42MOL    H1110753   3.664   5.809   2.942  0.4778  1.4211 -2.2147
   42MOL    H1210754   3.840   5.706   2.777 -1.5035 -0.4318  0.7900
   42MOL    H1310755   3.920   5.591   2.866 -1.0598  0.2541  2.2310
   42MOL    H1410756   3.936   5.482   3.148  2.7312 -1.4647 -0.6303
   42MOL    C1510757   4.048   5.762   2.823  0.0886  0.6016 -0.9163
   42MOL    C1610758   4.075   5.753   2.675 -0.0476 -0.5658 -0.0413
   42MOL    C1710759   4.027   5.840   2.579 -0.0357 -0.2409 -0.2258
   42MOL    C1810760   4.046   5.813   2.436 -0.4664 -0.1272  0.7179
   42MOL    C1910761   3.947   5.966   2.613  0.0241  0.1848 -0.2601
   42MOL    H2010762   4.126   5.722   2.888 -1.5239 -3.2936 -1.3039
   42MOL    H2110763   4.048   5.865   2.861  0.4280  0.1924  0.2104
   42MOL    H2210764   4.121   5.659   2.646 -0.7136 -1.1865  0.8748
   42MOL    H2310765   4.092   5.714   2.431  1.3084  0.7955 -1.8088
   42MOL    H2410766   4.111   5.885   2.388  0.3025  0.6802  2.8982
   42MOL    H2510767   3.947   5.816   2.391 -1.1517 -1.6087  2.0398
   42MOL    H2610768   3.945   5.991   2.719  0.8114  0.8176 -0.3857
   42MOL    H2710769   3.847   5.944   2.576  0.1670 -1.7762  0.4498
   42MOL    C2810770   3.994   6.096   2.540 -0.0693  0.3246 -0.5354
   42MOL    C2910771   3.951   6.229   2.614  0.3050  0.0538  0.1364
   42MOL    C3010772   3.835   6.291   2.600  0.9212  1.0063 -0.3620
   42MOL    C3110773   3.791   6.415   2.677  0.2750 -0.2556 -0.5429
   42MOL    C3210774   3.727   6.242   2.509 -1.5531  0.5728  0.0824
   42MOL    H3310775   3.951   6.084   2.440 -1.4978  0.0874  0.0966
   42MOL    H3410776   4.102   6.099   2.530 -0.0111  1.5045  0.3270
   42MOL    H3510777   4.023   6.272   2.682 -2.1606 -0.6395  3.2888
   42MOL    H3610778   3.755   6.499   2.618 -0.7462  1.8998  2.9547
   42MOL    H3710779   3.867   6.460   2.741  1.4474  0.6763 -2.5475
   42MOL    H3810780   3.723   6.382   2.756  0.9401 -2.4098 -0.8521
   42MOL    H3910781   3.631   6.236   2.560 -0.2920 -0.4122  2.4800
   42MOL    H4010782   3.738   6.138   2.476 -1.1736  1.2789 -2.0621
   42MOL    C4110783   3.723   6.328   2.387  0.2871  0.3249  0.2329
   42MOL    C4210784   3.601   6.301   2.300  0.6592 -0.9995 -0.0624
   42MOL    C4310785   3.581   6.316   2.168  0.8717  0.0521  0.1885
   42MOL    C4410786   3.456   6.271   2.106  0.2057 -0.2583 -0.3466
   42MOL    C4510787   3.678   6.384   2.071  0.0817  0.8548 -0.4832
   42MOL    H4610788   3.809   6.299   2.326 -1.2412 -0.7841 -1.4170
   42MOL    H4710789   3.738   6.435   2.404  0.2436  0.4827 -0.7035
   42MOL    H4810790   3.526   6.259   2.365  1.2829 -2.0024  0.0113
   42MOL    H4910791   3.394   6.208   2.171  1.1410  0.0061  0.8261
   42MOL    H5010792   3.475   6.194   2.031  1.6692  1.0876 -1.3859
   42MOL    H5110793   3.383   6.349   2.082 -1.4733 -1.4227  0.8675
   42MOL    H5210794   3.768   6.404   2.129  0.0952 -1.3660  0.3134
   42MOL    H5310795   3.637   6.483   2.052  0.5245  1.0948 -0.1711
   42MOL    C5410796   3.718   6.292   1.957 -0.0349 -0.3355 -0.5461
   42MOL    C5510797   3.833   6.350   1.875  0.1334  0.2082 -0.0191
   42MOL    C5610798   3.824   6.407   1.749  0.2158  0.8138 -0.1398
   42MOL    C5710799   3.947   6.459   1.681 -0.1137  0.2417 -0.0601
   42MOL    C5810800   3.689   6.424   1.680 -0.0779 -0.6944  0.2992
   42MOL    H5910801   3.628   6.265   1.902 -1.7736 -0.0729  2.0879
   42MOL    H6010802   3.741   6.194   1.999 -1.8609 -0.4862  0.1480
   42MOL    H6110803   3.922   6.345   1.936 -0.7822 -2.0787  1.2110
   42MOL    H6210804   4.028   6.399   1.721 -1.0912 -2.0140 -1.3363
   42MOL    H6310805   3.963   6.566   1.685  0.5217  0.1567 -0.3243
   42MOL    H6410806   3.941   6.430   1.576 -0.3858 -3.9095  1.0174
   42MOL    H6510807   3.625   6.336   1.695 -2.7361  0.9970 -0.7909
   42MOL    H6610808   3.693   6.429   1.571  2.0316 -0.0467  0.3876
   42MOL    C6710809   3.617   6.557   1.730  0.3366 -0.0763 -1.1694
   42MOL    C6810810   3.693   6.682   1.694  0.2563 -0.2644  0.3674
   42MOL    C6910811   3.741   6.778   1.775  0.9210 -0.4235  0.3431
   42MOL    C7010812   3.809   6.901   1.718  0.2284 -0.0063 -0.6056
   42MOL    C7110813   3.714   6.782   1.925  0.1942 -1.0777 -0.4745
   42MOL    H7210814   3.593   6.540   1.835 -1.0636 -1.0358 -1.6399
   42MOL    H7310815   3.521   6.548   1.679 -0.9696 -1.8329  1.4432
   42MOL    H7410816   3.714   6.678   1.588 -0.2455 -0.6775  0.2808
   42MOL    H7510817   3.858   6.886   1.621  1.7229  1.1130 -0.0346
   42MOL    H7610818   3.887   6.928   1.789 -0.4912  0.1444  0.1266
   42MOL    H7710819   3.754   6.995   1.712 -0.4165 -0.3515 -0.1076
   42MOL    H7810820   3.620   6.733   1.949 -1.1495  1.3043 -0.6852
   42MOL    H7910821   3.696   6.887   1.948  1.1374 -1.1389  0.5932
   42MOL    C8010822   3.832   6.729   2.011  0.5222  0.8005 -0.3631
   42MOL    C8110823   3.805   6.754   2.153  0.4568 -0.1625 -0.2655
   42MOL    C8210824   3.864   6.701   2.261  0.0706 -1.2367  0.6046
   42MOL    C8310825   3.978   6.604   2.248 -0.6530 -0.1346  0.0538
   42MOL    C8410826   3.855   6.760   2.401 -0.0980 -0.2475  0.5667
   42MOL    H8510827   3.929   6.770   1.983  0.2705  1.9418  0.4459
   42MOL    H8610828   3.833   6.620   2.002 -0.6627  0.7932 -0.5238
   42MOL    H8710829   3.730   6.830   2.167 -1.3428 -1.9301 -0.1523
   42MOL    H8810830   3.973   6.552   2.153 -2.5861  1.5267 -0.8128
   42MOL    H8910831   3.994   6.542   2.337 -0.8224  2.8107  2.2232
   42MOL    H9010832   4.072   6.658   2.247 -1.2956  1.0003 -0.5800
   42MOL    H9110833   3.957   6.795   2.419  0.0910  0.2643 -1.4405
   42MOL    H9210834   3.817   6.676   2.460 -0.9301 -0.9779 -0.9828
   42MOL    C9310835   3.762   6.870   2.424  0.0897 -0.3387 -0.1662
   42MOL    C9410836   3.767   6.914   2.566 -0.4054  0.6267  0.1572
   42MOL    C9510837   3.665   6.967   2.634  0.2140 -0.0392  0.0245
   42MOL    C9610838   3.689   6.997   2.778 -0.2336  0.1533 -0.3849
   42MOL    C9710839   3.528   7.010   2.580  0.3616  0.3527  0.0739
   42MOL    H9810840   3.664   6.832   2.396  0.9083 -1.1318 -2.0931
   42MOL    H9910841   3.791   6.950   2.355  1.1467 -0.5032  0.0792
   42MOL   H10010842   3.860   6.907   2.620 -1.6300  2.7461  2.6961
   42MOL   H10110843   3.707   7.104   2.784 -0.2676  0.1180  0.4554
   42MOL   H10210844   3.610   6.965   2.846 -1.7639  2.4255 -1.0449
   42MOL   H10310845   3.772   6.938   2.817  0.1694  1.0232  0.0852
   42MOL   H10410846   3.529   7.002   2.472 -0.4267 -0.3514  0.1143
   42MOL   H10510847   3.499   7.108   2.618 -0.2659 -0.5110  1.9111
   42MOL   C10610848   3.432   6.901   2.626  0.5553 -0.0068  0.4103
   42MOL   C10710849   3.287   6.925   2.582  0.3480 -0.1279  0.5316
   42MOL   C10810850   3.175   6.890   2.653 -0.3352  0.9114 -0.1213
   42MOL   C10910851   3.173   6.818   2.782  0.4875 -0.7901  0.8050
   42MOL   C11010852   3.036   6.910   2.600  0.7632 -0.2439 -0.0564
   42MOL   H11110853   3.438   6.883   2.734 -2.5814  0.9903  0.8037
   42MOL   H11210854   3.474   6.811   2.582 -0.1922  0.0652 -0.4720
   42MOL   H11310855   3.283   6.964   2.481  1.3085 -1.1033  0.1008
   42MOL   H11410856   3.123   6.721   2.787  2.3737 -1.7088  2.2004
   42MOL   H11510857   3.274   6.808   2.823 -0.5579 -1.6887  3.2292
   42MOL   H11610858   3.114   6.879   2.850  2.0558  2.5550 -0.6700
   42MOL   H11710859   3.048   6.987   2.523  1.0435  0.1369  0.3660
   42MOL   H11810860   2.968   6.950   2.675  0.3397  3.5444 -2.2878
   42MOL   C11910861   2.973   6.778   2.540  0.4526 -0.9182 -0.7194
   42MOL   C12010862   2.836   6.805   2.487 -0.3505 -0.2036 -0.4267
   42MOL   C12110863   2.724   6.722   2.508  0.2701  0.5237  0.5148
   42MOL   C12210864   2.605   6.740   2.418 -0.3169  0.4434 -0.5796
   42MOL   C12310865   2.729   6.603   2.602  0.5918  0.1702 -0.1491
   42MOL   H12410866   2.967   6.706   2.622  0.2344 -0.6484 -0.4977
   42MOL   H12510867   3.036   6.727   2.467 -0.9029 -2.4376 -0.8541
   42MOL   H12610868   2.820   6.880   2.411  0.3003 -0.3111 -0.6682
   42MOL   H12710869   2.625   6.794   2.325 -2.1339  0.9234 -0.7142
   42MOL   H12810870   2.527   6.799   2.465  0.1939 -0.1722  1.0434
   42MOL   H12910871   2.559   6.642   2.404 -0.7158  0.4770  0.5145
   42MOL   H13010872   2.830   6.562   2.591  0.4070 -0.0221 -1.1289
   42MOL   H13110873   2.664   6.517   2.586 -0.7443  1.5988 -2.5995
   42MOL   C13210874   2.705   6.646   2.747 -0.2372 -0.0808  0.6597
   42MOL   C13310875   2.695   6.529   2.844 -1.0975 -0.0295 -0.8391
   42MOL   C13410876   2.691   6.527   2.979  0.0172 -0.6413 -0.5899
   42MOL   C13510877   2.684   6.394   3.051 -0.4793 -0.4480 -0.2415
   42MOL   C13610878   2.685   6.654   3.067 -0.9191 -0.3806 -0.4235
   42MOL   H13710879   2.618   6.710   2.756 -0.5217 -0.1981 -1.1798
   42MOL   H13810880   2.791   6.709   2.771 -0.0620  0.2475 -0.7986
   42MOL   H13910881   2.697   6.441   2.780  0.3073 -0.3774 -0.3313
   42MOL   H14010882   2.675   6.311   2.980 -2.3222 -2.3216  2.1276
   42MOL   H14110883   2.606   6.398   3.126 -1.1633 -0.4181 -0.9496
   42MOL   H14210884   2.783   6.375   3.092  1.6599  0.3114 -4.6973
   42MOL   H14310885   2.586   6.678   3.105 -1.2354 -0.2669 -1.3150
   42MOL   H14410886   2.716   6.738   3.005  0.6906 -2.1327 -2.0298
   42MOL   C14510887   2.789   6.640   3.180 -0.5029  0.7072  0.4496
   42MOL   C14610888   2.932   6.675   3.140  0.0102  0.0546 -0.0858
   42MOL   C14710889   3.046   6.649   3.203 -0.0184  0.2404  0.2601
   42MOL   C14810890   3.182   6.675   3.143 -0.6151  0.3167  0.6869
   42MOL   C14910891   3.047   6.591   3.338 -0.2181  0.3311 -0.3955
   42MOL   H15010892   2.772   6.544   3.227  1.3795 -0.5583 -1.3547
   42MOL   H15110893   2.761   6.710   3.259  2.4290 -0.3402  2.5132
   42MOL   H15210894   2.943   6.720   3.042  0.4102 -0.7430 -0.4105
   42MOL   H15310895   3.256   6.596   3.150  1.8239  2.4791  0.2892
   42MOL   H15410896   3.229   6.766   3.180 -3.1783  1.9409  0.0774
   42MOL   H15510897   3.163   6.686   3.037 -0.5330  0.4979  0.6903
   42MOL   H15610898   3.111   6.503   3.337 -1.5216 -0.6537  0.7366
   42MOL   H15710899   2.950   6.554   3.372 -0.5035  1.1104 -0.3428
   42MOL   C15810900   3.104   6.678   3.445 -0.0856  0.1863 -0.7099
   42MOL   C15910901   3.125   6.599   3.575  0.1668  0.0495 -0.3929
   42MOL   C16010902   3.116   6.648   3.703 -0.0177  0.3605 -0.4785
   42MOL   C16110903   3.043   6.773   3.738  0.3410 -1.0404 -0.8386
   42MOL   C16210904   3.172   6.556   3.814 -0.5234 -0.6863  0.3043
   42MOL   H16310905   3.051   6.773   3.454  1.5431  1.3705 -3.0641
   42MOL   H16410906   3.205   6.714   3.427  0.4644 -0.1220  1.6179
   42MOL   H16510907   3.172   6.504   3.554 -0.4288 -0.4844  0.6317
   42MOL   H16610908   3.046   6.790   3.846 -0.0738  0.1883 -1.0068
   42MOL   H16710909   2.937   6.771   3.713  0.1548 -0.7772 -0.0904
   42MOL   H16810910   3.092   6.857   3.689 -0.2909  0.5021  1.1150
   42MOL   H16910911   3.207   6.461   3.774  1.0519 -0.1438  0.3682
   42MOL   H17010912   3.089   6.534   3.882 -0.5395  0.6230  0.7169
   42MOL   C17110913   3.285   6.617   3.906  0.0248 -0.1538 -0.2038
   42MOL   C17210914   3.357   6.528   4.001  0.8575 -0.6323 -0.2995
   42MOL   C17310915   3.489   6.505   4.012 -0.1261  0.0276 -0.0473
   42MOL   C17410916   3.597   6.580   3.942  0.0798 -0.4290  0.4900
   42MOL   C17510917   3.535   6.412   4.116 -0.7095  0.0585  0.5905
   42MOL   H17610918   3.244   6.704   3.957 -1.9912 -0.6574 -0.9362
   42MOL   H17710919   3.365   6.658   3.843  1.1356  1.9709  2.4955
   42MOL   H17810920   3.293   6.475   4.070  0.0450  1.3334  0.4828
   42MOL   H17910921   3.572   6.624   3.845  3.4620 -1.8879 -1.1106
   42MOL   H18010922   3.688   6.523   3.925  0.9784  1.2435 -0.4366
   42MOL   H18110923   3.624   6.659   4.012 -1.8568  0.6344  0.0823
   42MOL   H18210924   3.453   6.382   4.180 -1.7791  0.3789 -0.6111
   42MOL   H18310925   3.614   6.461   4.174 -0.4878  0.1571  0.2135
   42MOL   C18410926   3.594   6.281   4.057  0.1526 -0.2070 -0.0906
   42MOL   C18510927   3.650   6.203   4.169 -0.0123  0.4484  0.1742
   42MOL   C18610928   3.777   6.190   4.203  0.1275 -0.3780  0.0798
   42MOL   C18710929   3.820   6.086   4.308 -0.2010  1.3568  0.2769
   42MOL   C18810930   3.894   6.264   4.140  0.3525  0.6117  0.0108
   42MOL   H18910931   3.668   6.301   3.979 -0.3305 -1.4376 -0.8694
   42MOL   H19010932   3.523   6.212   4.011 -0.1396 -0.5187  0.8162
   42MOL   H19110933   3.573   6.144   4.215  0.4875 -1.4300 -1.3125
   42MOL   H19210934   3.922   6.049   4.296 -0.0445  1.6764  0.6240
   42MOL   H19310935   3.756   5.998   4.306  1.2691  0.2952 -0.3975
   42MOL   H19410936   3.814   6.142   4.402 -0.2045 -0.1777  1.2008
   42MOL   H19510937   3.968   6.263   4.220 -0.2869 -0.2066  0.5882
   42MOL   H19610938   3.854   6.365   4.141  1.2854  1.0144  3.6054
   42MOL   C19710939   3.937   6.209   4.000 -0.4262  0.1673  0.7233
   42MOL   C19810940   3.956   6.330   3.910 -0.3773  0.0670  0.7629
   42MOL   C19910941   3.908   6.356   3.786  0.3668  0.0141 -0.2094
   42MOL   C20010942   3.946   6.481   3.711  0.1779  0.4875  0.1846
   42MOL   C20110943   3.817   6.266   3.708 -0.2886 -0.2226 -0.6275
   42MOL   H20210944   3.867   6.142   3.951  0.7289  0.4408 -1.3288
   42MOL   H20310945   4.035   6.160   4.004 -0.3980  0.3398  3.1852
   42MOL   H20410946   4.030   6.399   3.948  0.0240 -0.0353  0.1806
   42MOL   H20510947   3.909   6.570   3.761  1.2161  2.3112 -2.1960
   42MOL   H20610948   3.897   6.491   3.614  0.8114 -2.5109 -0.5176
   42MOL   H20710949   4.054   6.474   3.698  0.1183 -0.0056 -0.0471
   42MOL   H20810950   3.753   6.325   3.643 -0.7120  1.6844  1.4627
   42MOL   H20910951   3.751   6.223   3.783 -0.6539 -1.6809 -1.7628
   42MOL   C21010952   3.885   6.162   3.625 -0.4061  0.1085  0.2099
   42MOL   C21110953   3.789   6.068   3.565 -0.1551  0.1214 -0.1191
   42MOL   C21210954   3.809   5.985   3.457 -0.1830 -0.1036  0.5345
   42MOL   C21310955   3.698   5.891   3.413 -0.5314 -0.1999  0.1819
   42MOL   C21410956   3.909   6.016   3.346  0.3558 -0.6484 -0.0305
   42MOL   H21510957   3.940   6.127   3.712 -0.0169 -0.0627 -0.1049
   42MOL   H21610958   3.946   6.208   3.547 -3.1887  0.7149 -1.7120
   42MOL   H21710959   3.711   6.040   3.634  0.9098  0.2594  1.1655
   42MOL   H21810960   3.750   5.799   3.386 -0.8974 -0.3252 -0.0996
   42MOL   H21910961   3.647   5.931   3.326  2.0087 -0.0920 -1.3151
   42MOL   H22010962   3.637   5.862   3.498 -0.1115 -2.1335 -0.1507
   42MOL   H22110963   3.939   6.120   3.334 -0.7464 -0.5629 -2.2675
   42MOL   H22210964   3.857   5.993   3.253 -0.0270 -3.4874  0.8519
   42MOL   C22310965   4.031   5.930   3.360  0.0823  0.5799 -0.0041
   42MOL   C22410966   4.141   5.993   3.446 -0.5002 -0.1204 -0.3521
   42MOL   C22510967   4.259   6.045   3.415  0.7075 -0.4200 -0.2183
   42MOL   C22610968   4.353   6.089   3.534 -0.3392  0.4191 -0.2613
   42MOL   C22710969   4.311   6.062   3.272 -0.6268  0.8464  0.6591
   42MOL   H22810970   4.074   5.904   3.263 -2.1971 -0.0093 -0.8891
   42MOL   H22910971   3.999   5.839   3.411  0.1534  1.0136  0.8198
   42MOL   H23010972   4.110   5.974   3.547  0.1175 -2.7068 -0.6026
   42MOL   H23110973   4.415   6.173   3.503  1.3893 -0.5977  0.3910
   42MOL   H23210974   4.423   6.007   3.551 -2.4977 -1.0326  1.9503
   42MOL   H23310975   4.312   6.098   3.635 -0.9289  0.0848 -0.4709
   42MOL   H23410976   4.352   6.161   3.257  0.5748  0.2259 -0.1763
   42MOL   H23510977   4.232   6.034   3.202 -0.9385 -2.3591  2.1611
   42MOL   C23610978   4.414   5.950   3.253 -0.7830  0.1111 -0.0586
   42MOL   C23710979   4.489   5.961   3.120  0.3906  0.5631  0.0321
   42MOL   C23810980   4.622   5.982   3.101 -0.6531 -0.1070  0.0406
   42MOL   C23910981   4.676   5.982   2.961 -0.1407  0.4083 -0.4245
   42MOL   C24010982   4.722   6.001   3.219 -0.4044  0.2363 -0.1175
   42MOL   H24110983   4.363   5.854   3.251  1.5310 -1.1927  0.6443
   42MOL   H24210984   4.492   5.957   3.329 -1.2505 -0.3233  0.4610
   42MOL   H24310985   4.429   5.966   3.030 -1.8835 -1.7552  1.3438
   42MOL   H24410986   4.605   5.951   2.885 -0.1109 -0.0453 -0.2659
   42MOL   H24510987   4.754   5.908   2.940 -1.0523 -0.2516 -1.4899
   42MOL   H24610988   4.711   6.083   2.940 -1.4623  1.0993  0.5934
   42MOL   H24710989   4.820   5.960   3.194 -0.3690  0.6073 -0.6196
   42MOL   H24810990   4.691   5.935   3.300  3.1430  1.7743  2.6357
   42MOL   C24910991   4.736   6.148   3.263 -0.4723  0.1064 -0.0531
   42MOL   C25010992   4.863   6.178   3.339  0.0704  0.0411 -0.6891
   42MOL   C25110993   4.873   6.244   3.455 -0.0254  0.1353  0.3179
   42MOL   C25210994   5.008   6.230   3.534 -0.0054 -0.2197 -0.3752
   42MOL   C25310995   4.765   6.308   3.528  0.4409  0.0259 -0.3537
   42MOL   H25410996   4.643   6.181   3.309  0.2025  0.3887  1.1195
   42MOL   H25510997   4.750   6.203   3.169 -0.6312 -1.9005 -1.2723
   42MOL   H25610998   4.949   6.122   3.305 -0.2024 -0.2070 -0.9800
   42MOL   H25710999   5.053   6.329   3.546  1.8451 -1.2208  1.0549
   42MOL   H25811000   5.071   6.174   3.466  0.4361 -0.7672  0.4888
   42MOL   H25911001   5.006   6.197   3.637  3.3727  0.2570 -0.0932
   42MOL   H26011002   4.814   6.393   3.575  1.0235 -1.1574  1.1758
   42MOL   H26111003   4.712   6.248   3.601 -1.5215  0.8998 -1.0148
   42MOL   H26211004   4.687   6.360   3.471 -0.3386 -2.1849 -1.3622
   43MOL     C111005   7.000   5.189   5.430  0.1116  0.4482 -0.0219
   43MOL     C211006   6.863   5.220   5.486 -0.4527 -0.0402  0.7485
   43MOL     C311007   6.813   5.176   5.604 -0.3404  0.0179  0.2935
   43MOL     C411008   6.671   5.213   5.629  0.2819 -1.0339 -0.2629
   43MOL     C511009   6.890   5.089   5.708 -0.0135 -0.2653  0.1806
   43MOL     H611010   7.075   5.151   5.498 -1.0997 -0.5700  0.7447
   43MOL     H711011   6.993   5.126   5.341 -0.9775  0.8905 -0.2658
   43MOL     H811012   6.793   5.260   5.415 -1.0164  0.7524  1.7290
   43MOL     H911013   6.680   5.299   5.696 -2.3568  0.3913 -1.6581
   43MOL    H1011014   6.619   5.127   5.671 -1.7553 -0.2153 -1.0501
   43MOL    H1111015   6.619   5.228   5.535 -1.4061  0.2669  0.8440
   43MOL    H1211016   6.948   5.015   5.653 -0.2983 -0.3188 -0.0505
   43MOL    H1311017   6.815   5.021   5.749  0.3369 -0.7875 -0.0377
   43MOL    H1411018   7.038   5.280   5.383  1.5588 -0.9835 -1.7156
   43MOL    C1511019   6.963   5.161   5.814  0.5154  0.4554  0.1451
   43MOL    C1611020   7.062   5.262   5.769 -0.0371  0.5765 -0.2087
   43MOL    C1711021   7.068   5.392   5.812 -0.0115 -0.1205  0.6482
   43MOL    C1811022   7.158   5.495   5.739  0.4283 -0.4017 -0.5123
   43MOL    C1911023   6.983   5.455   5.925  0.2453 -0.1482 -0.1423
   43MOL    H2011024   7.035   5.096   5.865 -0.3295  0.0122  0.7849
   43MOL    H2111025   6.896   5.189   5.896  0.6868  1.5297 -0.0735
   43MOL    H2211026   7.126   5.235   5.686  1.8714  0.6071  1.2218
   43MOL    H2311027   7.239   5.525   5.805  0.7284 -1.7666 -0.2377
   43MOL    H2411028   7.102   5.579   5.700  0.0757  0.6565  2.2059
   43MOL    H2511029   7.199   5.453   5.647  4.8267 -0.6471  1.4556
   43MOL    H2611030   6.953   5.369   5.985  2.0538 -1.2714 -0.8105
   43MOL    H2711031   6.886   5.490   5.890 -0.1850 -2.3810 -1.2676
   43MOL    C2811032   7.060   5.555   6.012 -0.2524  0.1307 -0.1436
   43MOL    C2911033   6.969   5.591   6.125  0.0274 -0.5542 -0.5557
   43MOL    C3011034   6.943   5.529   6.243 -0.3806 -0.2706 -0.2462
   43MOL    C3111035   6.852   5.593   6.346  0.5971  0.0711  0.0520
   43MOL    C3211036   7.000   5.398   6.280 -0.5081  0.7468  0.1649
   43MOL    H3311037   7.082   5.642   5.950  0.1284 -2.0689 -3.2493
   43MOL    H3411038   7.154   5.517   6.051  0.2764 -0.3637 -1.8287
   43MOL    H3511039   6.911   5.680   6.107 -0.0401 -0.1905  1.3356
   43MOL    H3611040   6.790   5.509   6.379 -0.0260  0.6156  0.2729
   43MOL    H3711041   6.791   5.674   6.307  0.0373 -0.0097  0.7426
   43MOL    H3811042   6.912   5.632   6.428  0.7641 -0.7645  0.3393
   43MOL    H3911043   7.059   5.355   6.198  0.2213 -0.9873  1.5881
   43MOL    H4011044   6.930   5.319   6.305  0.5070 -0.4157 -0.5671
   43MOL    C4111045   7.097   5.408   6.392 -0.2061  0.0312  0.3338
   43MOL    C4211046   7.159   5.281   6.432 -0.8219 -0.0824 -0.0029
   43MOL    C4311047   7.269   5.219   6.391 -0.3994  0.0775 -0.4044
   43MOL    C4411048   7.320   5.090   6.463 -0.7124  1.0534  0.6086
   43MOL    C4511049   7.350   5.269   6.279 -0.8107  0.3172 -0.2384
   43MOL    H4611050   7.046   5.453   6.477  1.0755  1.0218  0.5858
   43MOL    H4711051   7.173   5.481   6.364  1.8579 -2.1327  0.0959
   43MOL    H4811052   7.109   5.240   6.518 -1.8674  0.6651 -0.2498
   43MOL    H4911053   7.314   4.999   6.403 -0.3501  1.8056 -0.6054
   43MOL    H5011054   7.276   5.078   6.561  1.1359 -1.0607  1.2199
   43MOL    H5111055   7.426   5.118   6.467 -0.6366  0.9177 -0.2542
   43MOL    H5211056   7.440   5.309   6.326 -0.9382  1.6078 -1.0684
   43MOL    H5311057   7.292   5.342   6.223  0.4388  1.4774 -0.0608
   43MOL    C5411058   7.391   5.160   6.181 -0.1870 -0.3730 -0.4164
   43MOL    C5511059   7.455   5.207   6.054  0.2009 -0.1700  1.5372
   43MOL    C5611060   7.564   5.164   5.995  0.4645  0.7631 -0.5254
   43MOL    C5711061   7.615   5.224   5.865 -0.4162  0.9449 -0.2323
   43MOL    C5811062   7.651   5.056   6.057  0.0096  0.8095  0.4166
   43MOL    H5911063   7.299   5.104   6.165 -0.0073 -0.9674  0.5620
   43MOL    H6011064   7.462   5.098   6.237  1.3602  0.6924 -1.1791
   43MOL    H6111065   7.404   5.283   5.997 -1.3166 -0.4589  2.5057
   43MOL    H6211066   7.620   5.332   5.875 -1.3537  0.9984 -0.2806
   43MOL    H6311067   7.537   5.195   5.794 -0.9129 -1.9218  1.3886
   43MOL    H6411068   7.712   5.187   5.831 -0.3980  0.2345  0.6017
   43MOL    H6511069   7.692   4.998   5.975 -1.7060  1.2613 -0.7799
   43MOL    H6611070   7.592   4.988   6.118 -0.0199 -0.6241 -1.1873
   43MOL    C6711071   7.769   5.118   6.135 -0.2590 -0.3279 -0.1785
   43MOL    C6811072   7.824   5.022   6.234  0.6910  0.6214 -0.2308
   43MOL    C6911073   0.021   5.043   6.343  0.8122  0.4888 -0.5915
   43MOL    C7011074   0.055   4.939   6.441 -0.6182  0.7193  0.1793
   43MOL    C7111075   0.073   5.180   6.386 -0.0808  0.3928  0.0166
   43MOL    H7211076   7.757   5.215   6.184  0.0582 -1.3885  2.0593
   43MOL    H7311077   7.847   5.140   6.062  1.4266 -1.8647  1.1105
   43MOL    H7411078   7.799   4.920   6.209  0.1415  0.9316 -0.9808
   43MOL    H7511079   0.029   4.976   6.540 -1.7630 -1.1180  0.5865
   43MOL    H7611080   0.161   4.914   6.443 -0.3393  1.7914 -1.0178
   43MOL    H7711081   0.007   4.844   6.416  0.2130  0.1379  0.7593
   43MOL    H7811082   0.063   5.248   6.301 -0.7972  0.4284  0.1272
   43MOL    H7911083   0.178   5.162   6.407 -0.4618  1.1778  2.7969
   43MOL    C8011084   7.874   5.237   6.511  0.2217 -0.6200 -0.3153
   43MOL    C8111085   0.041   5.379   6.546  0.3765 -0.6947 -0.2082
   43MOL    C8211086   7.864   5.495   6.520  0.3763 -0.6346 -0.3220
   43MOL    C8311087   7.752   5.531   6.419  0.3782  0.0607  0.1909
   43MOL    C8411088   0.046   5.624   6.583 -0.5177  0.7126  0.3251
   43MOL    H8511089   0.019   5.188   6.605  1.6541 -0.1330 -0.4254
   43MOL    H8611090   7.767   5.233   6.488  0.2676 -0.3252 -0.5778
   43MOL    H8711091   0.126   5.387   6.612  2.0482 -0.7426 -2.2889
   43MOL    H8811092   7.681   5.604   6.457  0.7830 -0.4652  1.9715
   43MOL    H8911093   7.697   5.444   6.384  1.3771  0.0322 -1.3667
   43MOL    H9011094   7.816   5.557   6.334  0.2930  1.6398  0.5986
   43MOL    H9111095   0.051   5.696   6.501  1.7757  1.2535  0.8851
   43MOL    H9211096   0.152   5.598   6.591 -0.5043  1.1671  1.8410
   43MOL    C9311097   7.849   5.661   6.716  0.1821  0.3878  0.4261
   43MOL    C9411098   7.870   5.805   6.758 -0.0508 -0.1636 -0.0207
   43MOL    C9511099   7.851   5.851   6.886 -0.7789  0.0884 -0.4192
   43MOL    C9611100   0.009   6.001   6.913 -0.0410 -0.1458  0.4084
   43MOL    C9711101   7.811   5.766   7.009  0.2230 -0.1831 -0.2101
   43MOL    H9811102   7.877   5.590   6.794  0.8237 -0.0231 -0.1835
   43MOL    H9911103   7.744   5.648   6.692  0.2911 -0.5800  0.4772
   43MOL   H10011104   0.012   5.876   6.679  0.0703  0.6721  0.7542
   43MOL   H10111105   0.008   6.059   6.821  1.9334 -1.8038 -0.6915
   43MOL   H10211106   7.817   6.041   6.985 -0.1513  0.2713  0.0707
   43MOL   H10311107   0.109   6.006   6.956 -0.1259 -3.1334  1.0132
   43MOL   H10411108   0.029   5.742   7.051  0.7286 -0.8486 -1.7374
   43MOL   H10511109   7.765   5.672   6.980  2.0870  0.0545 -4.3713
   43MOL   C10611110   7.719   5.834   7.106  0.2191  0.1918  0.8690
   43MOL   C10711111   7.661   5.741   7.204 -0.7413 -0.0947  0.3101
   43MOL   C10811112   7.560   5.769   7.290 -0.0385 -0.2934  0.7407
   43MOL   C10911113   7.494   5.905   7.295 -0.1751  0.1049 -0.0079
   43MOL   C11011114   7.491   5.650   7.363  0.5923 -0.5326 -0.4066
   43MOL   H11111115   7.635   5.882   7.055 -0.9027  1.4163  3.7731
   43MOL   H11211116   7.776   5.913   7.156  1.6376  0.3570 -0.9531
   43MOL   H11311117   7.708   5.645   7.212  1.6834  1.0360 -0.0183
   43MOL   H11411118   7.408   5.904   7.229 -0.3633 -1.8014  0.2363
   43MOL   H11511119   7.491   5.926   7.402 -1.2398  2.0953 -0.4201
   43MOL   H11611120   7.565   5.980   7.260  1.0725 -1.4247 -0.8290
   43MOL   H11711121   7.495   5.673   7.470  0.7340  0.5211 -0.6318
   43MOL   H11811122   7.543   5.558   7.336 -0.0843 -0.9736 -0.2223
   43MOL   C11911123   7.338   5.639   7.341 -0.1734 -0.0082  0.1045
   43MOL   C12011124   7.287   5.514   7.413 -0.0800  0.8998  0.1508
   43MOL   C12111125   7.195   5.423   7.367 -0.1894 -0.7108 -0.6114
   43MOL   C12211126   7.161   5.306   7.449 -0.9704 -0.2193 -0.0574
   43MOL   C12311127   7.118   5.427   7.230 -0.8013  0.1157  0.2651
   43MOL   H12411128   7.313   5.642   7.235 -2.6633 -0.7145  0.6220
   43MOL   H12511129   7.293   5.726   7.389 -1.6240 -0.0813 -1.1009
   43MOL   H12611130   7.330   5.484   7.507  0.9938  0.8474 -0.3561
   43MOL   H12711131   7.208   5.211   7.422 -0.9732 -0.5609  1.0799
   43MOL   H12811132   7.053   5.293   7.456 -0.9588 -1.1392 -1.4406
   43MOL   H12911133   7.204   5.311   7.550  0.6222 -1.5343 -0.6324
   43MOL   H13011134   7.112   5.524   7.181  1.0454 -1.0002 -2.2712
   43MOL   H13111135   7.014   5.403   7.253 -0.6866 -0.7262 -0.0924
   43MOL   C13211136   7.158   5.318   7.126 -0.9220 -0.3767  0.9279
   43MOL   C13311137   7.045   5.303   7.027  0.1624 -0.1711  0.0509
   43MOL   C13411138   7.043   5.357   6.901 -0.5514  0.8137 -0.3582
   43MOL   C13511139   6.928   5.320   6.810  0.0877 -0.7501 -0.5589
   43MOL   C13611140   7.142   5.451   6.844 -0.0925  0.2900 -0.3402
   43MOL   H13711141   7.191   5.222   7.167 -0.9511  0.5304  3.1594
   43MOL   H13811142   7.255   5.351   7.087 -1.9617  1.7015  0.0370
   43MOL   H13911143   6.963   5.236   7.046  0.2222 -0.3717 -0.3812
   43MOL   H14011144   6.850   5.262   6.861 -0.5618  0.5473 -0.0496
   43MOL   H14111145   6.968   5.271   6.722  1.2918 -0.4847 -0.1658
   43MOL   H14211146   6.886   5.410   6.765 -2.2530 -0.9174  1.1492
   43MOL   H14311147   7.168   5.417   6.744 -0.1627  1.8128 -0.8895
   43MOL   H14411148   7.236   5.459   6.900 -1.2750  2.6031  1.3808
   43MOL   C14511149   7.081   5.586   6.837 -0.3523 -0.5424  0.5478
   43MOL   C14611150   7.204   5.668   6.781  0.0541 -0.1839 -0.0733
   43MOL   C14711151   7.283   5.749   6.847 -0.0109 -0.1372 -0.4122
   43MOL   C14811152   7.388   5.832   6.771  0.4407 -0.4133 -0.0221
   43MOL   C14911153   7.264   5.787   6.995 -0.9602 -0.2575  0.7347
   43MOL   H15011154   7.039   5.622   6.931 -0.3794  1.7568 -0.3069
   43MOL   H15111155   7.000   5.597   6.765 -1.2278 -1.7563  1.3327
   43MOL   H15211156   7.233   5.658   6.677  0.5708 -2.2380  0.2459
   43MOL   H15311157   7.329   5.916   6.734  1.6843  1.2724  1.7441
   43MOL   H15411158   7.428   5.771   6.690  1.6259  1.2132 -0.6824
   43MOL   H15511159   7.471   5.874   6.827 -0.9396  2.1317  0.2316
   43MOL   H15611160   7.362   5.806   7.040 -0.4012 -0.7139 -0.2807
   43MOL   H15711161   7.211   5.713   7.056  1.4222 -2.2182  0.5432
   43MOL   C15811162   7.187   5.921   6.994 -0.5824  0.0680 -0.2153
   43MOL   C15911163   7.128   5.957   7.125 -0.3561  0.0189  0.3999
   43MOL   C16011164   7.070   6.075   7.151  0.4466 -0.1080  0.9890
   43MOL   C16111165   7.062   6.184   7.047 -0.7606 -0.6259 -0.0877
   43MOL   C16211166   7.010   6.115   7.283  0.5625 -0.6868 -0.2791
   43MOL   H16311167   7.108   5.924   6.918 -1.2113  1.1151  0.4680
   43MOL   H16411168   7.254   5.999   6.959  0.5776 -0.6191  0.4502
   43MOL   H16511169   7.128   5.881   7.201  1.2168 -1.1322 -0.7253
   43MOL   H16611170   7.142   6.174   6.974 -0.1549  0.0318  0.4766
   43MOL   H16711171   7.094   6.278   7.092  3.9611 -2.1243  0.0174
   43MOL   H16811172   6.960   6.196   7.010 -1.2583  2.4694  2.0504
   43MOL   H16911173   7.049   6.211   7.319 -0.4575  0.6862 -2.7624
   43MOL   H17011174   7.037   6.051   7.368 -1.2870 -1.3832 -0.2042
   43MOL   C17111175   6.856   6.123   7.279 -0.1796  0.4234  0.1626
   43MOL   C17211176   6.790   6.141   7.419  0.6104 -0.0960 -0.5525
   43MOL   C17311177   6.657   6.138   7.437 -0.2232 -0.4008  0.2284
   43MOL   C17411178   6.556   6.098   7.333 -0.1686 -0.1458  0.1420
   43MOL   C17511179   6.608   6.157   7.575 -0.0276  1.0230 -0.5465
   43MOL   H17611180   6.820   6.031   7.232  0.9806 -0.0369  0.1541
   43MOL   H17711181   6.829   6.193   7.200  0.3639 -1.7142 -1.9502
   43MOL   H17811182   6.862   6.146   7.499 -0.0177 -2.3424  0.1892
   43MOL   H17911183   6.604   6.117   7.237  0.8537  1.7722  1.0109
   43MOL   H18011184   6.462   6.154   7.332  1.4944  2.7759  0.8761
   43MOL   H18111185   6.527   5.993   7.342 -0.4387 -0.0402  0.5290
   43MOL   H18211186   6.551   6.250   7.581 -1.9137 -0.1927  1.2383
   43MOL   H18311187   6.691   6.177   7.642 -0.2803  0.6763 -0.1323
   43MOL   C18411188   6.538   6.029   7.631 -0.4683 -0.6173  1.4718
   43MOL   C18511189   6.472   6.051   7.771 -0.2123 -0.2194 -0.4207
   43MOL   C18611190   6.536   6.047   0.009 -0.0647  0.6876 -0.4010
   43MOL   C18711191   6.457   6.060   0.138 -0.2844  0.0221  0.1311
   43MOL   C18811192   6.681   5.999   0.027 -0.0476  0.0665  0.1667
   43MOL   H18911193   6.604   5.943   7.638 -1.6584 -1.7659 -0.8633
   43MOL   H19011194   6.455   6.005   7.564 -0.1039 -0.1376  0.8488
   43MOL   H19111195   6.372   6.091   7.763 -0.6794 -1.1262  0.7236
   43MOL   H19211196   6.507   6.111   0.221  1.7517 -2.4402  0.4739
   43MOL   H19311197   6.456   5.957   0.172  0.5331 -0.3106 -0.8231
   43MOL   H19411198   6.355   6.097   0.135 -0.2890 -0.0133 -0.1064
   43MOL   H19511199   6.704   5.957   7.809  0.3295  0.3668  0.1225
   43MOL   H19611200   6.691   5.916   0.097  2.8999  1.4494  1.4950
   43MOL   C19711201   6.774   6.116   0.063 -0.5509  0.0458 -0.2942
   43MOL   C19811202   6.917   6.084   0.098 -0.2224 -0.3661  0.0207
   43MOL   C19911203   6.987   6.131   0.202 -0.2954  0.2578 -0.3969
   43MOL   C20011204   7.128   6.089   0.207  0.0096 -0.6084  0.2089
   43MOL   C20111205   6.955   6.228   0.313 -0.8048 -0.0677 -0.5739
   43MOL   H20211206   6.731   6.166   0.150  2.3437  2.2319 -0.0179
   43MOL   H20311207   6.778   6.190   7.862  1.1920  2.2534  1.7240
   43MOL   H20411208   6.968   6.026   0.021  2.4412 -1.1166  2.2480
   43MOL   H20511209   7.166   6.046   0.114  0.1998 -0.4384  0.2081
   43MOL   H20611210   7.133   6.020   0.291 -1.1171  0.9136  1.5481
   43MOL   H20711211   7.197   6.171   0.224  0.4979  0.0078 -4.0579
   43MOL   H20811212   6.859   6.270   0.283  0.4065  0.2073 -4.3622
   43MOL   H20911213   7.024   6.310   0.331  2.1036 -2.9897  2.2940
   43MOL   C21011214   6.927   6.149   0.446  0.2052  0.1137 -0.6044
   43MOL   C21111215   6.900   6.255   0.558 -0.1500  0.3331 -0.3691
   43MOL   C21211216   6.868   6.223   0.685 -0.4961  0.2102  0.3717
   43MOL   C21311217   6.836   6.329   0.787  0.1153 -0.3186  0.3990
   43MOL   C21411218   6.859   6.082   0.734  0.0673  0.1651  0.1489
   43MOL   H21511219   7.006   6.080   0.477 -2.1163 -1.9807  0.8505
   43MOL   H21611220   6.831   6.099   0.436  0.3231  0.1393 -1.8857
   43MOL   H21711221   6.904   6.358   0.525 -1.1273  1.1392  1.9096
   43MOL   H21811222   6.737   6.326   0.832 -0.7419 -1.0807 -1.5101
   43MOL   H21911223   6.862   6.433   0.767  0.2702 -0.3833  0.2677
   43MOL   H22011224   6.899   6.313   0.875  0.7987  0.0091 -0.0229
   43MOL   H22111225   6.857   6.017   0.646  0.7524  0.5963 -0.1929
   43MOL   H22211226   6.768   6.057   0.787  1.3050 -2.0776  1.3209
   43MOL   C22311227   6.988   6.029   0.807 -0.0375 -0.1558  0.1524
   43MOL   C22411228   6.966   5.885   0.847  0.1180  0.0985  0.5317
   43MOL   C22511229   6.978   5.836   0.972 -0.6553 -0.8984  0.1531
   43MOL   C22611230   6.957   5.689   0.996 -0.3655  0.2942  0.4797
   43MOL   C22711231   7.019   5.915   1.108  0.5998  0.0096  0.4435
   43MOL   H22811232   7.007   6.089   0.895 -0.2867 -0.2774  0.2895
   43MOL   H22911233   7.074   6.045   0.742 -1.4291 -0.1432 -1.7509
   43MOL   H23011234   6.953   5.817   0.764  0.2579  0.4962  0.1808
   43MOL   H23111235   7.055   5.648   1.019 -0.0121  1.7042  1.5039
   43MOL   H23211236   6.910   5.628   0.918 -0.8333 -0.7051  1.5314
   43MOL   H23311237   6.882   5.674   1.074 -1.4328  0.5011 -0.4872
   43MOL   H23411238   6.933   5.944   1.169  0.8280 -0.3237  0.9243
   43MOL   H23511239   7.054   6.012   1.072 -0.7418  0.7055  0.9787
   43MOL   C23611240   7.123   5.843   1.197  0.1746 -1.0041  0.3240
   43MOL   C23711241   7.183   5.947   1.297 -0.3312  0.8221  1.0601
   43MOL   C23811242   7.125   6.004   1.407 -0.1395  0.2304  0.1015
   43MOL   C23911243   7.183   6.113   1.493 -0.6718  0.0810  0.4137
   43MOL   C24011244   6.980   5.967   1.443  1.1069  0.1804 -0.1314
   43MOL   H24111245   7.207   5.805   1.139  0.1603 -0.8089  0.1763
   43MOL   H24211246   7.079   5.756   1.246 -0.9780 -0.8810 -0.4707
   43MOL   H24311247   7.282   5.987   1.283 -0.4525  1.1179  1.0289
   43MOL   H24411248   7.276   6.159   1.461 -0.2937  1.0378  2.8358
   43MOL   H24511249   7.187   6.077   1.595 -0.0707 -1.4073 -0.1148
   43MOL   H24611250   7.122   6.203   1.491 -0.3900  0.2530 -0.9780
   43MOL   H24711251   6.972   5.949   1.550 -2.3471  2.4135  0.0795
   43MOL   H24811252   6.949   5.876   1.391  1.2050 -1.3168  2.3569
   43MOL   C24911253   6.882   6.081   1.409  0.1855 -0.0735  0.2269
   43MOL   C25011254   6.735   6.034   1.419  0.2261 -0.1207  0.0064
   43MOL   C25111255   6.654   6.007   1.318  0.3066  0.0305 -0.4837
   43MOL   C25211256   6.512   5.956   1.361  0.2221 -0.4373  0.0296
   43MOL   C25311257   6.686   6.042   1.170 -1.3918  0.6548  0.1755
   43MOL   H25411258   6.903   6.124   1.311 -0.0434 -0.0146  0.2030
   43MOL   H25511259   6.891   6.163   1.480  0.4928  0.3943 -0.3476
   43MOL   H25611260   6.703   6.017   1.521 -0.1211  2.5213  0.3917
   43MOL   H25711261   6.479   5.855   1.338 -3.3404  0.6246  0.3128
   43MOL   H25811262   6.437   6.020   1.315 -0.0006 -0.2343  0.6723
   43MOL   H25911263   6.491   5.965   1.467  0.7173  0.0965  0.0851
   43MOL   H26011264   6.597   6.084   1.123  0.3411  1.3784 -2.5537
   43MOL   H26111265   6.717   5.958   1.107  0.5614  0.1996  1.6816
   43MOL   H26211266   6.770   6.110   1.158 -1.8297  0.9454 -1.2598
   44MOL     C111267   5.943   1.928   2.916  0.0507 -0.2774 -0.7029
   44MOL     C211268   5.894   1.786   2.934  0.1304  0.2534 -0.1974
   44MOL     C311269   5.782   1.727   2.890  0.6454 -0.3657 -0.3101
   44MOL     C411270   5.751   1.589   2.941  0.2917  0.0169  0.1158
   44MOL     C511271   5.665   1.789   2.819  0.0999 -0.2929  0.4301
   44MOL     H611272   5.898   1.985   2.834  0.6802  0.5066 -0.5099
   44MOL     H711273   5.926   1.978   3.011 -1.1055  1.5522 -1.8471
   44MOL     H811274   5.959   1.725   2.995 -1.2213 -1.6503 -0.6192
   44MOL     H911275   5.684   1.603   3.026  2.1845  1.7215  1.3736
   44MOL    H1011276   5.831   1.522   2.974 -0.5726 -0.0038  2.2645
   44MOL    H1111277   5.687   1.539   2.867 -1.7740 -0.5529  2.2306
   44MOL    H1211278   5.630   1.752   2.723  0.7089 -0.8797  0.4327
   44MOL    H1311279   5.701   1.889   2.793 -2.6583  0.4660 -0.6138
   44MOL    H1411280   6.050   1.921   2.897  0.1513  0.3635 -0.3758
   44MOL    C1511281   5.540   1.803   2.903  0.1796 -0.1367  0.5676
   44MOL    C1611282   5.567   1.885   3.029 -0.7698  0.2287  0.7095
   44MOL    C1711283   5.538   1.857   3.159 -0.3196  0.3942  0.1316
   44MOL    C1811284   5.594   1.934   3.283  0.1072  0.1480 -0.4721
   44MOL    C1911285   5.462   1.737   3.202  0.4938 -0.7569 -0.4324
   44MOL    H2011286   5.516   1.702   2.934  0.2600 -0.1647  0.5393
   44MOL    H2111287   5.456   1.842   2.846 -1.3294 -1.9812  1.4816
   44MOL    H2211288   5.624   1.974   3.008  1.3312 -1.6313 -1.8914
   44MOL    H2311289   5.703   1.926   3.284  0.0532 -0.4278  1.0895
   44MOL    H2411290   5.560   1.892   3.377  0.9271 -1.4125 -0.8593
   44MOL    H2511291   5.557   2.033   3.311 -0.0406  0.2215 -0.9173
   44MOL    H2611292   5.530   1.673   3.258  1.6836 -3.3410 -4.6111
   44MOL    H2711293   5.432   1.681   3.113 -0.0446  0.0835 -0.7829
   44MOL    C2811294   5.333   1.779   3.278  0.3884  0.2151  0.2890
   44MOL    C2911295   5.259   1.657   3.334 -0.2059  0.0317 -0.0017
   44MOL    C3011296   5.260   1.624   3.467  0.5598 -0.0033  0.6558
   44MOL    C3111297   5.195   1.496   3.523 -0.3562 -0.3068 -0.8492
   44MOL    C3211298   5.324   1.709   3.573  0.1812 -0.0012 -0.0937
   44MOL    H3311299   5.272   1.828   3.202 -1.7387  3.1842  3.7632
   44MOL    H3411300   5.362   1.845   3.359 -0.1020  0.0743  0.5799
   44MOL    H3511301   5.208   1.594   3.262 -1.4045  0.3437  0.5687
   44MOL    H3611302   5.254   1.434   3.591  1.4465  1.2690 -0.9158
   44MOL    H3711303   5.172   1.439   3.433 -2.0547 -3.1555  1.2997
   44MOL    H3811304   5.102   1.523   3.572  1.7868  2.7900  1.7021
   44MOL    H3911305   5.411   1.767   3.542  0.7715 -1.9674 -2.3279
   44MOL    H4011306   5.366   1.639   3.645 -1.1244  1.6737  2.3341
   44MOL    C4111307   5.241   1.807   3.629 -0.0562 -0.0824 -0.5481
   44MOL    C4211308   5.304   1.859   3.757 -0.3453 -0.1133  0.2486
   44MOL    C4311309   5.301   1.817   3.883  0.0344  0.4008  0.6559
   44MOL    C4411310   5.373   1.884   3.993  0.4281  0.2285 -0.1286
   44MOL    C4511311   5.214   1.709   3.939 -0.2864 -0.0859 -0.3698
   44MOL    H4611312   5.145   1.757   3.646 -1.6812  2.6902 -1.2001
   44MOL    H4711313   5.221   1.899   3.573  1.2444  0.8764  0.5134
   44MOL    H4811314   5.384   1.930   3.741  0.1590 -0.7323  0.0037
   44MOL    H4911315   5.439   1.962   3.955  0.0108  0.0518 -1.2349
   44MOL    H5011316   5.423   1.805   4.050  0.2095  0.5345  0.4995
   44MOL    H5111317   5.303   1.939   4.056  0.3351 -1.8455  1.6475
   44MOL    H5211318   5.147   1.678   3.859  1.1830  1.4085 -2.2511
   44MOL    H5311319   5.140   1.752   4.006 -2.0833 -1.6124 -1.3269
   44MOL    C5411320   5.283   1.590   3.998 -0.0232  0.8607  0.0062
   44MOL    C5511321   5.180   1.480   4.005 -0.0862  0.8004 -0.1689
   44MOL    C5611322   5.120   1.423   4.111 -0.7225 -0.1569  0.5077
   44MOL    C5711323   5.013   1.314   4.085  0.9892 -0.7548  0.2602
   44MOL    C5811324   5.142   1.460   4.256  0.3867 -0.8177 -0.5645
   44MOL    H5911325   5.317   1.608   4.100 -1.1989 -1.9675  0.9351
   44MOL    H6011326   5.363   1.545   3.939 -3.3549 -2.3711 -2.2835
   44MOL    H6111327   5.152   1.437   3.910 -0.0382  1.7810 -0.6295
   44MOL    H6211328   4.990   1.323   3.978  1.0034 -0.0217  0.3182
   44MOL    H6311329   4.927   1.307   4.151  0.1745 -0.7330 -0.7887
   44MOL    H6411330   5.064   1.219   4.099  1.5720 -0.1424  2.3655
   44MOL    H6511331   5.228   1.526   4.265  1.2050 -1.9043 -0.2955
   44MOL    H6611332   5.171   1.367   4.306  1.6334 -0.4508 -0.5912
   44MOL    C6711333   5.036   1.531   4.332  0.0610 -1.0256 -0.2109
   44MOL    C6811334   4.929   1.436   4.390  0.1946 -0.0282  0.2948
   44MOL    C6911335   4.794   1.441   4.366 -1.0828 -0.2526 -0.0328
   44MOL    C7011336   4.700   1.340   4.428 -0.0970 -0.0342 -0.4033
   44MOL    C7111337   4.730   1.561   4.288 -0.0571  0.1009 -0.4196
   44MOL    H7211338   4.998   1.617   4.276  1.1366  0.1185  0.7789
   44MOL    H7311339   5.089   1.570   4.419 -0.5160  0.1725 -0.3749
   44MOL    H7411340   4.965   1.347   4.441  1.0787 -0.3206 -0.8331
   44MOL    H7511341   4.759   1.261   4.475 -1.4978 -0.3556  0.8497
   44MOL    H7611342   4.636   1.298   4.350  0.1951  1.3272 -1.3730
   44MOL    H7711343   4.643   1.384   4.510 -0.2787  0.3092 -0.7124
   44MOL    H7811344   4.807   1.638   4.281  0.7844 -0.8174 -1.3590
   44MOL    H7911345   4.650   1.601   4.351  0.0918 -0.2502 -0.0082
   44MOL    C8011346   4.674   1.517   4.153  0.8413 -0.3787  0.2630
   44MOL    C8111347   4.641   1.648   4.078  0.1094  0.0621 -0.5386
   44MOL    C8211348   4.530   1.723   4.093 -0.3495 -0.0481  0.2384
   44MOL    C8311349   4.415   1.674   4.185 -0.6041 -0.1819 -0.0050
   44MOL    C8411350   4.519   1.856   4.023  0.5058  0.9356  0.4917
   44MOL    H8511351   4.597   1.442   4.169  0.1118  0.0913 -0.8926
   44MOL    H8611352   4.735   1.453   4.090 -2.3308 -1.8570 -1.4563
   44MOL    H8711353   4.717   1.688   4.013  0.3875  3.1716  1.5862
   44MOL    H8811354   4.322   1.667   4.130  0.1491  2.2317 -1.6444
   44MOL    H8911355   4.409   1.744   4.268 -0.2292  1.2408 -1.1686
   44MOL    H9011356   4.433   1.580   4.237  1.7670  0.2517  0.0155
   44MOL    H9111357   4.599   1.879   3.953  1.5024 -1.1380  0.9361
   44MOL    H9211358   4.514   1.934   4.099  1.9220  2.0529 -0.5355
   44MOL    C9311359   4.385   1.883   3.956  0.1454 -0.2483  0.2305
   44MOL    C9411360   4.358   1.799   3.835 -0.9578  0.1394  0.8418
   44MOL    C9511361   4.382   1.851   3.715 -0.2232 -0.3417 -0.3787
   44MOL    C9611362   4.375   1.768   3.589 -0.1707 -0.1459 -0.0585
   44MOL    C9711363   4.451   1.989   3.684  0.5533  0.4009 -0.2381
   44MOL    H9811364   4.376   1.990   3.939  0.5686  0.1691  2.5254
   44MOL    H9911365   4.309   1.865   4.032 -0.4783  0.6407 -0.1652
   44MOL   H10011366   4.315   1.701   3.848  3.9596 -2.5042 -1.4312
   44MOL   H10111367   4.318   1.677   3.609  0.8004 -0.8869 -0.5808
   44MOL   H10211368   4.336   1.826   3.506  0.7075  0.6674  0.0776
   44MOL   H10311369   4.474   1.735   3.556  0.2817  0.0330  1.1009
   44MOL   H10411370   4.507   1.989   3.591 -1.0521 -0.5645 -1.2159
   44MOL   H10511371   4.528   2.006   3.760  1.6680 -1.4493 -0.8984
   44MOL   C10611372   4.342   2.101   3.671  0.4849  0.1340  0.1049
   44MOL   C10711373   4.397   2.232   3.625 -0.8597  0.1005 -0.0342
   44MOL   C10811374   4.320   2.344   3.606  0.2657 -0.6844  0.0888
   44MOL   C10911375   4.175   2.340   3.642 -0.0155  0.7874 -0.0991
   44MOL   C11011376   4.379   2.474   3.565  0.1372 -0.1481 -0.0712
   44MOL   H11111377   4.299   2.123   3.769 -2.2040 -2.4002 -0.4573
   44MOL   H11211378   4.256   2.075   3.609  0.9885  4.4144 -2.5948
   44MOL   H11311379   4.503   2.240   3.607 -0.6705 -0.4635  0.8254
   44MOL   H11411380   4.150   2.368   3.745 -0.2213  0.4915 -0.0668
   44MOL   H11511381   4.136   2.423   3.583  0.1149 -0.1216 -1.4852
   44MOL   H11611382   4.114   2.256   3.610 -0.4261  0.5717  1.2031
   44MOL   H11711383   4.486   2.468   3.580  0.2946 -0.7433 -1.3540
   44MOL   H11811384   4.342   2.562   3.618  1.5873  0.2692  0.2798
   44MOL   C11911385   4.353   2.509   3.417 -0.4008  0.0132  0.0368
   44MOL   C12011386   4.468   2.600   3.366 -0.2288  0.3491  0.8125
   44MOL   C12111387   4.456   2.730   3.317 -0.9389  0.3816  0.3835
   44MOL   C12211388   4.589   2.805   3.282  0.6236 -0.0974  0.3155
   44MOL   C12311389   4.325   2.808   3.307  0.1757  0.9587 -0.2301
   44MOL   H12411390   4.258   2.558   3.397 -0.0581  0.6828  0.0324
   44MOL   H12511391   4.373   2.421   3.356  0.7438  0.8110 -0.7626
   44MOL   H12611392   4.564   2.555   3.385  0.4813  0.8964 -1.3031
   44MOL   H12711393   4.582   2.843   3.181 -2.7395  0.0483  0.5626
   44MOL   H12811394   4.674   2.737   3.276 -0.2437 -0.9047 -3.5904
   44MOL   H12911395   4.601   2.891   3.348 -1.4263  1.5559 -1.4268
   44MOL   H13011396   4.244   2.737   3.293  2.2393 -1.5242  0.0981
   44MOL   H13111397   4.342   2.873   3.220 -1.5272  1.3927 -0.2643
   44MOL   C13211398   4.304   2.893   3.437  0.0499 -0.2017 -0.1122
   44MOL   C13311399   4.181   2.983   3.423 -0.3931 -0.8561 -0.4879
   44MOL   C13411400   4.049   2.952   3.449 -0.4175  0.0907 -0.5327
   44MOL   C13511401   3.947   3.061   3.436  0.3749  0.2932 -0.4183
   44MOL   C13611402   3.998   2.817   3.487  0.4020 -0.2196 -0.2523
   44MOL   H13711403   4.386   2.962   3.452  0.2494 -0.5285  0.3303
   44MOL   H13811404   4.304   2.825   3.523  1.5175 -0.0922 -0.0257
   44MOL   H13911405   4.201   3.086   3.398 -0.3471 -0.3652  1.4557
   44MOL   H14011406   3.850   3.044   3.483  0.8661 -1.4859 -0.0006
   44MOL   H14111407   3.926   3.063   3.329 -1.7537 -1.6370 -0.0572
   44MOL   H14211408   3.985   3.161   3.459  0.0229  0.4042 -0.3180
   44MOL   H14311409   3.932   2.840   3.571  1.1104  0.4835  0.1113
   44MOL   H14411410   4.083   2.762   3.527  1.1358  2.8207  2.4867
   44MOL   C14511411   3.916   2.743   3.383  0.2396 -0.3897 -0.5194
   44MOL   C14611412   3.880   2.603   3.441 -0.0912 -0.3330  0.3621
   44MOL   C14711413   3.866   2.488   3.374 -0.1967  0.0460  0.1809
   44MOL   C14811414   3.806   2.368   3.443 -0.8796 -1.2835 -0.4932
   44MOL   C14911415   3.885   2.463   3.227  0.2550  0.1626  0.2135
   44MOL   H15011416   3.966   2.745   3.286  1.5700 -0.3408  0.1542
   44MOL   H15111417   3.825   2.802   3.372 -1.6343 -2.5338  2.5095
   44MOL   H15211418   3.849   2.614   3.544  1.7559 -2.6556  1.2138
   44MOL   H15311419   3.721   2.336   3.384 -0.7333  0.0689 -1.4698
   44MOL   H15411420   3.776   2.396   3.544  3.9128 -0.7419  0.9099
   44MOL   H15511421   3.886   2.296   3.458 -0.6689 -0.6223  1.8157
   44MOL   H15611422   3.966   2.522   3.183  2.2536 -1.6266  1.3596
   44MOL   H15711423   3.792   2.487   3.177  0.7759  1.7344 -0.0321
   44MOL   C15811424   3.912   2.312   3.181 -0.3638 -0.4133  0.6924
   44MOL   C15911425   3.893   2.288   3.029  1.2703  0.2230 -0.1584
   44MOL   C16011426   3.815   2.197   2.967  0.1370 -0.1432  0.2101
   44MOL   C16111427   3.733   2.086   3.026  0.0045 -0.1941  0.3235
   44MOL   C16211428   3.790   2.204   2.820 -0.6852  0.0276 -0.1821
   44MOL   H16311429   3.865   2.226   3.229  2.0213 -0.2962  3.3874
   44MOL   H16411430   4.019   2.300   3.200 -0.1845  0.9327  0.5907
   44MOL   H16511431   3.943   2.354   2.960  0.9101 -1.0042 -1.6288
   44MOL   H16611432   3.630   2.120   3.026 -0.7439 -2.4168 -0.3377
   44MOL   H16711433   3.752   2.043   3.124 -0.8212 -1.4130 -0.0505
   44MOL   H16811434   3.735   2.003   2.956 -1.7775 -0.7015  0.8567
   44MOL   H16911435   3.769   2.107   2.776 -0.6567  0.1850 -0.5449
   44MOL   H17011436   3.877   2.238   2.764 -0.0990 -1.3813 -0.1462
   44MOL   C17111437   3.676   2.303   2.787 -0.9186 -0.0745 -1.0820
   44MOL   C17211438   3.649   2.313   2.636 -0.4025 -0.1861 -0.5280
   44MOL   C17311439   3.534   2.286   2.579 -0.0843 -0.2206  0.3055
   44MOL   C17411440   3.410   2.241   2.647 -0.1157  1.0352  0.4695
   44MOL   C17511441   3.513   2.323   2.431  0.7681  0.7830 -0.9173
   44MOL   H17611442   3.714   2.396   2.830 -0.8191  0.5856 -2.5783
   44MOL   H17711443   3.580   2.283   2.834 -1.2367 -0.1652 -1.7756
   44MOL   H17811444   3.729   2.356   2.578 -1.9693 -0.0040 -2.6327
   44MOL   H17911445   3.341   2.189   2.581  1.5353 -1.1624  0.4052
   44MOL   H18011446   3.360   2.332   2.679 -0.1518  0.3758  2.3447
   44MOL   H18111447   3.421   2.184   2.739  0.5549 -1.6499 -1.2272
   44MOL   H18211448   3.483   2.231   2.383  0.5079  0.7563 -0.7062
   44MOL   H18311449   3.610   2.336   2.383 -0.3398  1.3662 -3.0224
   44MOL   C18411450   3.406   2.429   2.403  0.5340  0.2181 -0.3855
   44MOL   C18511451   3.413   2.472   2.257 -0.2267 -0.1648 -0.3978
   44MOL   C18611452   3.327   2.451   2.157 -0.2329  0.3449  0.1308
   44MOL   C18711453   3.357   2.493   2.014  0.3008 -0.3921 -0.6341
   44MOL   C18811454   3.197   2.365   2.168 -0.5037 -0.1901  0.7011
   44MOL   H18911455   3.419   2.514   2.470 -2.0774 -0.2179  0.7530
   44MOL   H19011456   3.306   2.390   2.425  0.2482  0.4063 -1.3176
   44MOL   H19111457   3.498   2.534   2.233  0.7703 -1.7152 -0.9544
   44MOL   H19211458   3.413   2.586   2.022 -0.2369 -0.0805 -0.5182
   44MOL   H19311459   3.268   2.509   1.952  1.0246  0.0281 -1.5830
   44MOL   H19411460   3.412   2.411   1.967 -1.5295 -1.3813 -1.0889
   44MOL   H19511461   3.214   2.298   2.252  0.8895 -0.3455  0.3181
   44MOL   H19611462   3.176   2.309   2.077 -2.6477 -0.4410  1.3270
   44MOL   C19711463   3.081   2.458   2.204  0.5767  0.2141 -0.4474
   44MOL   C19811464   2.954   2.383   2.256 -0.2474 -0.5581 -0.0651
   44MOL   C19911465   2.840   2.372   2.187 -0.3369  0.5171 -0.4515
   44MOL   C20011466   2.730   2.291   2.245 -0.7752  0.2825 -0.5292
   44MOL   C20111467   2.809   2.449   2.053  0.1102 -0.0283 -0.1407
   44MOL   H20211468   3.061   2.529   2.124 -0.2973  1.8804  1.2044
   44MOL   H20311469   3.119   2.514   2.290 -1.1137 -0.7684  0.9665
   44MOL   H20411470   2.967   2.333   2.351  0.1377  0.6664  0.5389
   44MOL   H20511471   2.683   2.253   2.154 -1.9499 -1.3037  0.7150
   44MOL   H20611472   2.655   2.345   2.303 -0.7801  0.1051 -0.3724
   44MOL   H20711473   2.754   2.197   2.294  0.3395  0.7893 -0.0952
   44MOL   H20811474   2.753   2.381   1.990 -0.0550 -1.1105  1.1620
   44MOL   H20911475   2.895   2.463   1.988  1.3133  1.9328  1.8071
   44MOL   C21011476   2.721   2.574   2.077 -0.2336 -0.5399 -0.1951
   44MOL   C21111477   2.652   2.613   1.947 -0.3608  0.1013  0.1897
   44MOL   C21211478   2.626   2.733   1.900 -0.3111 -0.2769  0.2745
   44MOL   C21311479   2.543   2.746   1.774 -0.0640  0.3186 -0.0328
   44MOL   C21411480   2.670   2.868   1.962  0.1378  0.1040  0.1123
   44MOL   H21511481   2.782   2.656   2.115 -0.5561 -0.5753  0.4013
   44MOL   H21611482   2.652   2.554   2.159 -0.0283  0.2212  0.1658
   44MOL   H21711483   2.613   2.528   1.892 -0.8988 -1.4705  2.8916
   44MOL   H21811484   2.608   2.782   1.694  0.1959  1.1760  0.5469
   44MOL   H21911485   2.451   2.801   1.792  0.1332  0.7295 -0.2669
   44MOL   H22011486   2.509   2.653   1.730  3.2975 -1.0618  0.0847
   44MOL   H22111487   2.678   2.869   2.071 -1.8540 -1.0354  0.2944
   44MOL   H22211488   2.587   2.937   1.945 -0.3644 -0.3776  0.5707
   44MOL   C22311489   2.795   2.929   1.892  0.2347  0.4248  0.1692
   44MOL   C22411490   2.921   2.859   1.920  0.2940  0.2066  0.2331
   44MOL   C22511491   3.035   2.916   1.961 -0.0930  0.0611  0.1181
   44MOL   C22611492   3.166   2.838   2.000  0.3724 -0.3185  0.5474
   44MOL   C22711493   3.061   3.064   1.971  0.3477 -0.3384 -0.7695
   44MOL   H22811494   2.804   3.038   1.899  2.5163  0.1069  2.9493
   44MOL   H22911495   2.777   2.910   1.786  3.2294  0.2363 -0.3408
   44MOL   H23011496   2.924   2.751   1.919  0.7985  0.1910  1.9316
   44MOL   H23111497   3.234   2.894   2.065 -0.5864  2.0405 -0.3965
   44MOL   H23211498   3.235   2.825   1.916 -0.4662 -3.2706  0.2775
   44MOL   H23311499   3.139   2.747   2.053  0.9468  0.3956  2.1042
   44MOL   H23411500   2.999   3.114   1.896 -0.9090 -0.0913  0.4078
   44MOL   H23511501   3.167   3.080   1.952  0.4210 -0.5352 -0.5220
   44MOL   C23611502   3.027   3.116   2.115 -0.7433 -0.4596  0.4461
   44MOL   C23711503   3.061   3.262   2.126 -0.4484 -0.5509 -0.6356
   44MOL   C23811504   2.980   3.371   2.141 -0.7059 -0.6976  0.1272
   44MOL   C23911505   3.041   3.506   2.163  0.4403  0.0023  0.6810
   44MOL   C24011506   2.826   3.374   2.136 -0.2681  0.0310 -0.1085
   44MOL   H24111507   3.089   3.061   2.186 -0.7699 -1.5896 -0.4084
   44MOL   H24211508   2.921   3.095   2.128 -0.4642 -1.5113  1.0652
   44MOL   H24311509   3.168   3.277   2.133 -0.4112 -0.1625 -1.8298
   44MOL   H24411510   2.996   3.538   2.257 -0.0958  0.6558  0.2046
   44MOL   H24511511   3.014   3.573   2.081  1.5935 -0.6982 -0.2819
   44MOL   H24611512   3.150   3.502   2.171  0.4862 -3.1286 -0.5908
   44MOL   H24711513   2.780   3.438   2.211 -2.7761 -0.7962 -0.8846
   44MOL   H24811514   2.781   3.275   2.149  0.6814 -0.7623 -2.5569
   44MOL   C24911515   2.769   3.434   2.004 -0.2044  0.1213  0.0692
   44MOL   C25011516   2.618   3.432   2.009  0.3716  0.0005 -0.2854
   44MOL   C25111517   2.543   3.351   1.937  0.0175  0.6951 -0.0520
   44MOL   C25211518   2.394   3.366   1.943 -0.1829  0.6089  0.2988
   44MOL   C25311519   2.591   3.245   1.838 -0.5974  0.3382  0.6054
   44MOL   H25411520   2.816   3.379   1.922  2.9371  1.9852  0.5564
   44MOL   H25511521   2.806   3.536   1.990 -0.6390  0.2779  0.0360
   44MOL   H25611522   2.578   3.509   2.073 -2.7800 -0.3503 -1.7420
   44MOL   H25711523   2.343   3.282   1.896  1.3587  0.7507 -1.7011
   44MOL   H25811524   2.369   3.454   1.884 -0.2409  0.3220 -0.1065
   44MOL   H25911525   2.361   3.369   2.047  2.4509 -1.9532  1.2704
   44MOL   H26011526   2.661   3.180   1.890  0.0033  0.0650 -0.5312
   44MOL   H26111527   2.637   3.290   1.750  3.7175 -0.1311  2.4825
   44MOL   H26211528   2.506   3.182   1.813 -0.9678  0.5797  1.2510
   45MOL     C111529   2.143   0.005   0.890 -0.0717 -0.4116 -0.1667
   45MOL     C211530   2.080   0.136   0.894 -0.0529  0.2236  0.4820
   45MOL     C311531   1.953   0.160   0.848 -0.1637 -0.4972  0.9942
   45MOL     C411532   1.899   0.305   0.855 -0.0458 -0.0922 -0.1829
   45MOL     C511533   1.853   0.052   0.803  0.0308  0.0645  1.0253
   45MOL     H611534   2.074   7.801   0.877  0.8159 -1.1433 -0.2340
   45MOL     H711535   2.231   7.876   0.827  0.9557  0.9660  1.0642
   45MOL     H811536   2.133   0.224   0.925  0.0387  0.6159 -0.7736
   45MOL     H911537   1.897   0.331   0.749 -0.5430  1.0352  0.0961
   45MOL    H1011538   1.976   0.363   0.906 -0.6061  0.4922 -0.0030
   45MOL    H1111539   1.804   0.305   0.908 -0.5823 -0.4230 -1.1225
   45MOL    H1211540   1.888   7.836   0.764 -2.0313 -0.1357 -0.4183
   45MOL    H1311541   1.804   0.103   0.720 -0.8573  1.2419  2.2522
   45MOL    H1411542   2.182   7.863   0.990 -1.6798 -1.1120  0.3345
   45MOL    C1511543   1.734   0.032   0.901 -0.0820  0.5257  0.2299
   45MOL    C1611544   1.775   7.850   1.031 -0.2499  0.5010  0.1675
   45MOL    C1711545   1.752   0.012   1.154 -0.3126  0.1210  0.0861
   45MOL    C1811546   1.783   7.800   1.272 -0.2351  0.2897  0.3133
   45MOL    C1911547   1.665   0.135   1.182 -0.2275 -0.1369 -0.5616
   45MOL    H2011548   1.650   7.858   0.857 -1.2574 -1.3566  4.4181
   45MOL    H2111549   1.686   0.126   0.928  0.9628  1.2002 -0.1981
   45MOL    H2211550   1.813   7.749   1.029 -1.1999  0.0299  2.7627
   45MOL    H2311551   1.686   7.773   1.316  0.0297 -2.1470 -0.5474
   45MOL    H2411552   1.832   7.856   1.352 -1.6478 -0.9294  2.0527
   45MOL    H2511553   1.833   7.706   1.251 -0.6102  0.2872 -0.6021
   45MOL    H2611554   1.684   0.206   1.102  1.2523  0.4153  0.2386
   45MOL    H2711555   1.715   0.167   1.273 -1.6728  1.2366 -0.2382
   45MOL    C2811556   1.518   0.109   1.221  0.3191 -0.8354  0.1534
   45MOL    C2911557   1.439   0.237   1.237  0.3859 -0.6777 -0.6502
   45MOL    C3011558   1.379   0.310   1.144  0.2408  0.1243 -0.3555
   45MOL    C3111559   1.317   0.447   1.179 -0.2289  1.0768  0.0011
   45MOL    C3211560   1.375   0.271   0.993 -1.1974 -0.2800  0.0355
   45MOL    H3311561   1.513   0.053   1.314 -1.7454  0.2152  0.7023
   45MOL    H3411562   1.462   0.050   1.148  0.4751  1.0279 -1.5123
   45MOL    H3511563   1.441   0.271   1.339  0.7329 -1.8714 -0.2532
   45MOL    H3611564   1.209   0.430   1.174  0.0711 -1.2727  0.7542
   45MOL    H3711565   1.342   0.531   1.114  2.9454  0.1169 -0.0891
   45MOL    H3811566   1.334   0.482   1.280  0.4395 -0.9089  0.6043
   45MOL    H3911567   1.273   0.279   0.957 -1.5212  1.3768  1.2328
   45MOL    H4011568   1.418   0.173   0.974 -0.1142  0.3073 -0.5967
   45MOL    C4111569   1.475   0.364   0.916  0.2650  0.4163 -0.0826
   45MOL    C4211570   1.515   0.306   0.783  0.1630 -0.2982  0.1413
   45MOL    C4311571   1.540   0.377   0.670  0.2329 -0.1981  0.3192
   45MOL    C4411572   1.605   0.302   0.554 -0.2313  0.5512 -0.1512
   45MOL    C4511573   1.512   0.518   0.645 -0.5018 -0.2625  0.4562
   45MOL    H4611574   1.569   0.358   0.971 -0.6304  2.5176  1.7371
   45MOL    H4711575   1.438   0.466   0.911  0.6788  0.5913  0.3760
   45MOL    H4811576   1.555   0.206   0.783  0.6076 -0.1229  0.8552
   45MOL    H4911577   1.691   0.356   0.513  1.5340 -1.2284  1.0724
   45MOL    H5011578   1.540   0.272   0.471 -0.1332 -1.0011  0.3128
   45MOL    H5111579   1.648   0.205   0.580 -0.4072  0.2503 -0.9559
   45MOL    H5211580   1.612   0.563   0.646 -0.7185  0.2248  0.5199
   45MOL    H5311581   1.452   0.561   0.725 -2.1598  0.6762 -1.2392
   45MOL    C5411582   1.434   0.547   0.513 -0.7213 -0.5088  0.8262
   45MOL    C5511583   1.415   0.696   0.481  0.6541  0.0392 -0.2394
   45MOL    C5611584   1.488   0.774   0.396  0.0519  0.1643  0.2582
   45MOL    C5711585   1.463   0.924   0.386  0.1212  0.1471  0.7691
   45MOL    C5811586   1.607   0.718   0.314  0.7326  0.0544  0.4317
   45MOL    H5911587   1.340   0.499   0.539 -1.0111 -1.4108 -1.7879
   45MOL    H6011588   1.479   0.502   0.424  1.7342  2.7316  0.3139
   45MOL    H6111589   1.331   0.738   0.533  1.2595  0.3090  0.5336
   45MOL    H6211590   1.359   0.946   0.414 -0.4206 -0.3739 -0.8100
   45MOL    H6311591   1.484   0.962   0.286 -0.1726  0.6319  0.8839
   45MOL    H6411592   1.519   0.993   0.449  0.2534  0.0762  0.7270
   45MOL    H6511593   1.662   0.641   0.368  1.6240 -0.2231 -0.8484
   45MOL    H6611594   1.675   0.803   0.319 -0.5419  1.0357  1.4932
   45MOL    C6711595   1.572   0.681   0.168 -0.0375 -0.4567 -0.1971
   45MOL    C6811596   1.690   0.619   0.102 -0.6690 -0.0484  0.0376
   45MOL    C6911597   1.737   0.662   7.863 -0.3720 -0.5962 -0.0659
   45MOL    C7011598   1.853   0.589   7.799 -0.6073 -0.6784 -0.2301
   45MOL    C7111599   1.679   0.765   7.768  0.4181  0.2801  0.3005
   45MOL    H7211600   1.545   0.774   0.118  0.7000  0.7386  1.5539
   45MOL    H7311601   1.501   0.599   0.163  0.9129 -1.3327  0.5251
   45MOL    H7411602   1.736   0.536   0.154  1.1499 -0.6577 -2.4367
   45MOL    H7511603   1.822   0.526   7.715 -0.1025  0.3892 -1.2380
   45MOL    H7611604   1.895   0.520   7.872 -1.3023  1.8060  2.6302
   45MOL    H7711605   1.936   0.654   7.770  1.8551 -2.9041  1.5952
   45MOL    H7811606   1.761   0.822   7.724  0.4834  0.7634  1.0324
   45MOL    H7911607   1.622   0.839   7.825  0.6660  0.4150  0.3749
   45MOL    C8011608   1.589   0.706   7.656  0.0434  0.1716 -0.0468
   45MOL    C8111609   1.447   0.686   7.693  0.0159 -0.0595  0.1629
   45MOL    C8211610   1.390   0.567   7.715  0.0219  0.2686 -0.0529
   45MOL    C8311611   1.470   0.437   7.724  0.4963  0.3820 -0.5631
   45MOL    C8411612   1.247   0.554   7.763 -0.0834 -0.5225  0.4116
   45MOL    H8511613   1.636   0.623   7.603  1.6155  1.7316 -1.1555
   45MOL    H8611614   1.592   0.792   7.589 -0.0674  2.4338  2.7839
   45MOL    H8711615   1.380   0.771   7.695  0.0370 -0.0040 -1.0548
   45MOL    H8811616   1.424   0.356   7.667 -1.3664  1.5699 -0.7928
   45MOL    H8911617   1.476   0.400   7.827 -1.2032 -0.0117 -0.5777
   45MOL    H9011618   1.566   0.443   7.675  1.6759 -1.9575  1.3450
   45MOL    H9111619   1.190   0.475   7.714 -0.4914 -0.6106  1.0176
   45MOL    H9211620   1.195   0.646   7.738  0.8390  0.1731  1.0045
   45MOL    C9311621   1.237   0.544   0.039  0.1928  0.4556 -0.7955
   45MOL    C9411622   1.091   0.574   0.079  0.2631  0.5920 -0.4517
   45MOL    C9511623   1.030   0.526   0.185 -0.2353  0.0266  0.7041
   45MOL    C9611624   0.884   0.550   0.210 -0.1056  0.2269  0.5553
   45MOL    C9711625   1.088   0.428   0.284 -0.4218 -0.2707  0.3686
   45MOL    H9811626   1.297   0.620   0.088  1.2225 -0.2112 -1.0255
   45MOL    H9911627   1.274   0.445   0.068 -1.6549 -0.0503 -0.0654
   45MOL   H10011628   1.037   0.642   0.015  1.8387  1.5847 -0.7575
   45MOL   H10111629   0.853   0.621   0.134  3.4230 -1.0458 -2.2510
   45MOL   H10211630   0.824   0.459   0.206  1.4062 -0.8670  2.0794
   45MOL   H10311631   0.877   0.585   0.313  1.6966 -0.0577  0.7916
   45MOL   H10411632   1.048   0.457   0.382 -2.7086  0.3010 -0.6929
   45MOL   H10511633   1.192   0.457   0.295 -0.7270  0.7274  0.6928
   45MOL   C10611634   1.081   0.275   0.267  0.0264  0.4334  0.2532
   45MOL   C10711635   1.099   0.223   0.123 -0.0221  0.0918 -0.3902
   45MOL   C10811636   1.209   0.161   0.095 -0.3278  0.4975 -0.3664
   45MOL   C10911637   1.334   0.149   0.182 -0.2006 -0.2364  0.5039
   45MOL   C11011638   1.234   0.104   7.839 -0.0286  0.2502 -0.1844
   45MOL   H11111639   0.975   0.252   0.282  0.1964 -0.4387  0.1190
   45MOL   H11211640   1.136   0.227   0.347 -0.5380 -0.7816 -0.0802
   45MOL   H11311641   1.015   0.243   0.058  0.8905 -0.3074 -1.7190
   45MOL   H11411642   1.321   0.159   0.290 -0.7408  0.7418  0.3582
   45MOL   H11511643   1.373   0.048   0.175 -0.1638 -0.0784 -2.0075
   45MOL   H11611644   1.408   0.220   0.146 -1.7235  1.4830  0.7203
   45MOL   H11711645   1.332   0.132   7.801  0.6359 -0.9221  0.6331
   45MOL   H11811646   1.155   0.136   7.771 -1.6299  0.8584  1.8825
   45MOL   C11911647   1.218   7.833   7.837 -0.0936 -0.0575 -0.4311
   45MOL   C12011648   1.264   7.775   7.709 -0.3878  0.5733 -0.1264
   45MOL   C12111649   1.207   7.665   7.649 -0.4809 -0.3914  0.0064
   45MOL   C12211650   1.248   7.625   7.507 -0.2986 -0.5518 -0.0417
   45MOL   C12311651   1.107   7.572   7.723 -0.1265  0.7107 -0.1124
   45MOL   H12411652   1.112   7.812   7.851  0.1826 -1.1856  0.0837
   45MOL   H12511653   1.278   7.780   0.032  2.1985  2.1688 -0.6502
   45MOL   H12611654   1.342   7.835   7.664 -1.5590  1.1870 -1.3918
   45MOL   H12711655   1.173   7.676   7.445 -1.3402 -0.8743  0.9456
   45MOL   H12811656   1.245   7.517   7.497 -2.5092 -0.4325 -1.0343
   45MOL   H12911657   1.349   7.639   7.469 -0.7499  0.0765 -1.0306
   45MOL   H13011658   1.115   7.587   7.831  2.3104  0.9875 -0.2971
   45MOL   H13111659   1.140   7.468   7.728 -2.8650 -0.1138  1.6196
   45MOL   C13211660   0.957   7.580   7.683  0.3063  0.5286  0.7924
   45MOL   C13311661   0.945   7.558   7.535  0.4589 -0.7772  0.0546
   45MOL   C13411662   0.887   7.641   7.439  0.1543 -0.0378  0.2666
   45MOL   C13511663   0.892   7.598   7.293 -0.2117 -0.0859  0.6808
   45MOL   C13611664   0.819   7.777   7.468 -0.0788  0.4763 -0.9127
   45MOL   H13711665   0.913   7.676   7.710  1.0344  0.6472  1.5487
   45MOL   H13811666   0.901   7.502   7.735 -0.4198 -0.3705 -1.2800
   45MOL   H13911667   0.987   7.463   7.509  1.3252  0.0327 -1.5551
   45MOL   H14011668   0.798   7.568   7.247  1.0690 -1.2876 -1.2584
   45MOL   H14111669   0.955   7.508   7.290 -1.3878 -0.8937 -0.2753
   45MOL   H14211670   0.946   7.671   7.233 -0.9007 -1.3119 -1.4890
   45MOL   H14311671   0.857   7.849   7.396 -2.5755 -0.8244 -3.6716
   45MOL   H14411672   0.831   7.811   7.570 -1.0194 -0.0808 -0.6037
   45MOL   C14511673   0.664   7.777   7.444 -0.7401 -0.0938  0.0189
   45MOL   C14611674   0.609   0.038   7.467 -0.4143  0.3240  0.2115
   45MOL   C14711675   0.505   0.093   7.410 -0.5723  0.5311 -0.7359
   45MOL   C14811676   0.470   0.234   7.442  0.8295 -0.5294 -0.1871
   45MOL   C14911677   0.427   0.027   7.305  0.5800 -0.3453  0.0975
   45MOL   H15011678   0.610   7.699   7.497 -0.1302 -0.2317  0.4457
   45MOL   H15111679   0.650   7.759   7.337 -1.7892 -0.5828  0.2413
   45MOL   H15211680   0.667   0.090   7.542 -1.0285  0.3296  0.6854
   45MOL   H15311681   0.506   0.305   7.368  0.7562  1.5364  1.7326
   45MOL   H15411682   0.504   0.268   7.539  0.0752  1.0095 -0.4461
   45MOL   H15511683   0.363   0.251   7.438  0.9811  0.7873  1.0871
   45MOL   H15611684   0.326   0.062   7.321  0.6609 -1.0636  2.2721
   45MOL   H15711685   0.436   7.798   7.320 -2.0712 -0.4888  0.8256
   45MOL   C15811686   0.463   0.059   7.156 -0.2602  0.3557  0.1702
   45MOL   C15911687   0.342   0.028   7.063  0.4227  0.1902 -0.7947
   45MOL   C16011688   0.274   0.105   6.980 -0.2497  0.9866 -0.5271
   45MOL   C16111689   0.314   0.248   6.940 -0.5442 -0.4373 -0.6484
   45MOL   C16211690   0.148   0.060   6.911 -0.3852  0.0338 -0.2819
   45MOL   H16311691   0.548   0.003   7.119 -0.5408  1.4708 -2.2370
   45MOL   H16411692   0.485   0.164   7.137 -0.7324 -0.0260 -2.6180
   45MOL   H16511693   0.292   7.812   7.075 -0.3111  0.8932  2.0589
   45MOL   H16611694   0.412   0.280   6.976 -1.1639  2.0350 -1.0639
   45MOL   H16711695   0.249   0.318   6.993  2.1713  1.8624 -0.2234
   45MOL   H16811696   0.300   0.281   6.837  2.5204 -0.9631 -1.2631
   45MOL   H16911697   0.127   7.834   6.933  1.1885 -0.4372 -0.9835
   45MOL   H17011698   0.168   0.060   6.804  0.1201  1.3022 -0.1886
   45MOL   C17111699   0.033   0.158   6.924  0.9861 -0.1527 -0.4959
   45MOL   C17211700   7.781   0.102   6.876  0.0423 -0.0971 -0.1925
   45MOL   C17311701   7.690   0.039   6.959  0.2527 -0.4997  0.0252
   45MOL   C17411702   7.720   0.019   7.110  0.0611  0.0351 -0.5776
   45MOL   C17511703   7.554   7.877   6.907 -0.0369 -0.4854  0.0578
   45MOL   H17611704   0.046   0.241   6.855 -0.1646 -0.2878 -0.8764
   45MOL   H17711705   0.024   0.198   7.025  0.3660  1.1460 -1.0467
   45MOL   H17811706   7.758   0.109   6.771 -1.0885 -0.3431  0.0277
   45MOL   H17911707   7.684   0.101   7.172 -1.8571  0.2561 -1.9455
   45MOL   H18011708   7.828   0.011   7.122  0.0988  0.4671 -0.6200
   45MOL   H18111709   7.672   7.806   7.144  0.3469 -0.6775 -2.1082
   45MOL   H18211710   7.558   0.020   6.800  0.1692 -3.3416 -0.5851
   45MOL   H18311711   7.477   0.054   6.958 -1.3534 -1.6832 -0.5799
   45MOL   C18411712   7.515   7.729   6.927 -0.1943 -0.1570 -0.2427
   45MOL   C18511713   7.374   7.702   6.882 -0.0362  0.1068 -0.0935
   45MOL   C18611714   7.327   7.671   6.763  0.3131  0.1853 -0.1662
   45MOL   C18711715   7.181   7.632   6.741 -0.2836 -0.2276  0.2261
   45MOL   C18811716   7.414   7.647   6.636 -0.0483 -0.0549 -1.0147
   45MOL   H18911717   7.530   7.706   7.033  2.2882  0.5013 -0.4221
   45MOL   H19011718   7.584   7.669   6.868  3.1148  1.5615  1.7121
   45MOL   H19111719   7.300   7.722   6.958  0.6110 -0.9171  0.8178
   45MOL   H19211720   7.138   7.699   6.667  0.1354 -0.8046 -0.5361
   45MOL   H19311721   7.132   7.656   6.836  0.5851  2.2707  0.0894
   45MOL   H19411722   7.184   7.525   6.719 -0.5905 -0.5756  1.7637
   45MOL   H19511723   7.510   7.695   6.651 -0.2672  0.4568 -1.2472
   45MOL   H19611724   7.366   7.695   6.551 -1.6556 -1.4614 -0.9540
   45MOL   C19711725   7.444   7.496   6.620  1.0542  1.0880 -0.1310
   45MOL   C19811726   7.520   7.462   6.495 -0.1819  0.4217  0.8331
   45MOL   C19911727   7.485   7.471   6.365  0.3377  0.3098 -0.3127
   45MOL   C20011728   7.566   7.407   6.250  0.2850 -0.3899  0.2562
   45MOL   C20111729   7.343   7.507   6.320  0.1619 -0.6212 -0.4367
   45MOL   H20211730   7.353   7.436   6.617  1.1094  1.0440 -1.0608
   45MOL   H20311731   7.501   7.459   6.706 -0.7572 -1.8277 -0.1117
   45MOL   H20411732   7.616   7.420   6.522  0.4638  1.4621  0.2055
   45MOL   H20511733   7.504   7.325   6.212  0.1358 -0.3696  0.4586
   45MOL   H20611734   7.667   7.376   6.278  0.3057 -0.1780  0.4145
   45MOL   H20711735   7.570   7.478   6.168  0.9859  0.4080  0.9805
   45MOL   H20811736   7.282   7.541   6.403 -0.0252  0.4121 -0.9852
   45MOL   H20911737   7.280   7.423   6.291  1.0988 -1.2054 -0.8018
   45MOL   C21011738   7.336   7.612   6.200 -0.3037  0.3957 -0.0810
   45MOL   C21111739   7.191   7.650   6.164 -0.2295  0.1259 -0.0925
   45MOL   C21211740   7.119   7.765   6.168  0.0487  0.1264 -0.0900
   45MOL   C21311741   6.977   7.767   6.116  0.2188 -0.1025  0.2040
   45MOL   C21411742   7.176   0.017   6.217 -0.2943  0.1528  0.0424
   45MOL   H21511743   7.394   7.573   6.117 -0.0123  0.2505  0.1887
   45MOL   H21611744   7.378   7.706   6.235 -0.8717  0.0393  1.6282
   45MOL   H21711745   7.132   7.569   6.124 -0.2317  0.6255 -1.1218
   45MOL   H21811746   6.972   7.837   6.033 -1.0093 -3.8239 -3.0232
   45MOL   H21911747   6.912   7.807   6.194  1.1962  1.8359  0.0328
   45MOL   H22011748   6.942   7.666   6.093  0.8311 -0.1660 -0.4527
   45MOL   H22111749   7.156   0.103   6.153  1.3847  1.3649  1.0859
   45MOL   H22211750   7.285   0.012   6.212 -0.2077  1.3045  0.6541
   45MOL   C22311751   7.138   0.057   6.359 -0.5420 -0.5795 -0.3748
   45MOL   C22411752   7.198   0.195   6.386  0.0765  0.2139  0.2618
   45MOL   C22511753   7.320   0.227   6.440  0.8051  0.9878  0.3653
   45MOL   C22611754   7.363   0.369   6.463  0.5652  0.0972 -0.0254
   45MOL   C22711755   7.405   0.123   6.511 -0.0801  0.1753  0.0460
   45MOL   H22811756   7.170   7.865   6.434  1.3418  0.4880 -0.1443
   45MOL   H22911757   7.029   0.066   6.366 -0.7563 -2.2125 -1.4274
   45MOL   H23011758   7.137   0.279   6.356 -2.0240 -0.3650  2.6939
   45MOL   H23111759   7.449   0.385   6.399  1.5143  0.5175  1.3386
   45MOL   H23211760   7.393   0.380   6.567  0.1320 -0.1815  0.1292
   45MOL   H23311761   7.287   0.443   6.437 -0.3998 -1.1461 -0.8139
   45MOL   H23411762   7.368   0.023   6.535 -0.7730 -0.3140 -2.9853
   45MOL   H23511763   7.435   0.156   6.611  1.1463  2.4679 -1.0392
   45MOL   C23611764   7.533   0.081   6.431 -0.4006  0.1282  0.3290
   45MOL   C23711765   7.650   0.170   6.456 -0.0489 -0.5303  0.5090
   45MOL   C23811766   7.713   0.249   6.363 -0.5474 -0.3332 -0.4204
   45MOL   C23911767   7.834   0.336   6.408 -0.5260  0.0798  0.7521
   45MOL   C24011768   7.669   0.260   6.216 -0.3557 -0.2040 -0.5510
   45MOL   H24111769   7.514   0.060   6.326 -0.0258 -0.7452  0.4299
   45MOL   H24211770   7.564   7.868   6.481  0.3774  0.2524  0.0771
   45MOL   H24311771   7.680   0.170   6.560 -2.5661  2.0302  1.3006
   45MOL   H24411772   7.821   0.379   6.508  0.3290 -0.3212  1.0388
   45MOL   H24511773   7.859   0.413   6.335  0.4029 -0.1588  0.8142
   45MOL   H24611774   0.041   0.272   6.427 -0.2257  0.2006 -0.1728
   45MOL   H24711775   7.703   0.356   6.177  0.1243  0.0434  0.4784
   45MOL   H24811776   7.564   0.249   6.188 -0.7416 -0.6751  1.0278
   45MOL   C24911777   7.722   0.153   6.123  0.7113  0.0971 -0.0841
   45MOL   C25011778   7.689   0.184   5.979  0.2034  0.0578 -0.2685
   45MOL   C25111779   7.592   0.124   5.908  0.8775  0.5947  1.1179
   45MOL   C25211780   7.565   0.162   5.763 -0.2651 -0.2821 -0.1961
   45MOL   C25311781   7.500   0.012   5.959 -0.1860 -0.0081  0.7771
   45MOL   H25411782   7.685   0.055   6.151 -1.6153  0.7081 -0.9568
   45MOL   H25511783   7.830   0.139   6.136  0.9420  1.0974 -0.8061
   45MOL   H25611784   7.747   0.264   5.937 -0.2204  0.7134  0.3599
   45MOL   H25711785   7.636   0.233   5.720 -2.3566  0.8268 -1.9291
   45MOL   H25811786   7.460   0.192   5.760  0.2171  1.7699  2.2354
   45MOL   H25911787   7.584   0.070   5.707 -2.2100 -1.5844  1.2014
   45MOL   H26011788   7.542   7.797   5.925  2.0016  0.5996  1.6855
   45MOL   H26111789   7.402   0.015   5.913 -1.0842  0.6180  2.6670
   45MOL   H26211790   7.481   0.008   6.066 -1.8819  0.6662  0.5107
   46MOL     C111791   0.722   5.916   3.301  0.3934 -0.1998 -0.3061
   46MOL     C211792   0.866   5.956   3.332 -0.3107  0.2140  0.5684
   46MOL     C311793   0.914   6.079   3.363  0.4231 -0.5200  0.1134
   46MOL     C411794   1.060   6.085   3.394  0.2371 -0.2834 -0.5450
   46MOL     C511795   0.842   6.210   3.346  0.3947  0.3155  0.1380
   46MOL     H611796   0.732   5.861   3.208  0.0505  2.3114 -1.8984
   46MOL     H711797   0.678   5.874   3.392 -0.2773 -0.1353 -0.5914
   46MOL     H811798   0.929   5.869   3.343 -0.6203  0.1357  1.7806
   46MOL     H911799   1.100   6.159   3.324  1.8633  0.0066  0.6759
   46MOL    H1011800   1.109   5.988   3.393 -0.5312 -0.6856  0.6729
   46MOL    H1111801   1.062   6.138   3.489  0.8240 -0.2580 -0.5693
   46MOL    H1211802   0.855   6.264   3.440  1.1807  1.2930 -0.5213
   46MOL    H1311803   0.735   6.189   3.342  0.5542 -0.1963 -1.9234
   46MOL    H1411804   0.658   6.000   3.272 -2.1380 -1.2759  1.9608
   46MOL    C1511805   0.883   6.297   3.229 -0.1310  0.0886  0.5093
   46MOL    C1611806   0.802   6.422   3.218 -0.0895 -0.0078 -0.5056
   46MOL    C1711807   0.841   6.554   3.212 -0.4236  0.2304  0.6487
   46MOL    C1811808   0.735   6.668   3.210  0.0011 -0.0187  0.4799
   46MOL    C1911809   0.990   6.601   3.189 -0.2346 -0.6957  0.9737
   46MOL    H2011810   0.859   6.252   3.133  1.2106  0.3173  0.0574
   46MOL    H2111811   0.990   6.314   3.223  0.0483  0.2620  3.3052
   46MOL    H2211812   0.695   6.409   3.225  0.1199 -1.1852  1.0278
   46MOL    H2311813   0.700   6.700   3.112  2.2493  0.4664 -0.1901
   46MOL    H2411814   0.774   6.759   3.255  0.8584  0.7321 -1.7285
   46MOL    H2511815   0.651   6.642   3.274 -0.8231  2.8602  0.6075
   46MOL    H2611816   0.979   6.664   3.100  0.1051  1.2485  2.2606
   46MOL    H2711817   1.047   6.516   3.153 -1.1188 -0.5472 -0.8527
   46MOL    C2811818   1.055   6.687   3.300 -0.1206 -0.6873  0.1284
   46MOL    C2911819   1.189   6.745   3.247  0.0289  0.0548 -0.1762
   46MOL    C3011820   1.313   6.688   3.271  0.1786 -0.1626 -0.2382
   46MOL    C3111821   1.429   6.744   3.194 -0.2697  0.6427 -0.0102
   46MOL    C3211822   1.336   6.562   3.352  0.3063  0.1383 -0.4194
   46MOL    H3311823   1.077   6.642   3.397  0.0950 -0.3502  0.2367
   46MOL    H3411824   0.988   6.771   3.318  1.0426  0.5930 -1.3294
   46MOL    H3511825   1.182   6.831   3.181 -2.2558  0.5380  0.6675
   46MOL    H3611826   1.490   6.777   3.278 -0.8951  1.2650  0.2025
   46MOL    H3711827   1.403   6.829   3.131  1.4796  0.9260 -0.3713
   46MOL    H3811828   1.497   6.676   3.142  1.9706  0.9418  2.4181
   46MOL    H3911829   1.419   6.501   3.315  1.3480  1.0349  0.4371
   46MOL    H4011830   1.248   6.497   3.345  1.0787 -0.9305 -0.3548
   46MOL    C4111831   1.363   6.589   3.501  0.7019 -0.0539  0.0920
   46MOL    C4211832   1.374   6.453   3.575 -0.1659 -0.4878  0.3991
   46MOL    C4311833   1.311   6.400   3.681  0.2027 -0.1342  0.6369
   46MOL    C4411834   1.350   6.261   3.719 -0.3461  0.3452  0.0922
   46MOL    C4511835   1.196   6.449   3.765 -0.8347  0.0572 -0.1781
   46MOL    H4611836   1.278   6.641   3.544 -0.5263 -1.7285 -0.2683
   46MOL    H4711837   1.449   6.652   3.524 -0.1754  1.2995 -0.3010
   46MOL    H4811838   1.454   6.396   3.530  0.1436  1.7736 -2.0407
   46MOL    H4911839   1.434   6.226   3.659  0.1941  1.4538  0.2016
   46MOL    H5011840   1.282   6.181   3.687  1.4829 -1.2481  0.0704
   46MOL    H5111841   1.371   6.260   3.826 -1.4879  0.4202  0.3230
   46MOL    H5211842   1.171   6.545   3.720  0.8172  0.3900 -0.4312
   46MOL    H5311843   1.217   6.451   3.872  0.0453  1.3010 -0.3555
   46MOL    C5411844   1.076   6.361   3.738  0.5060 -0.5176 -0.7022
   46MOL    C5511845   0.963   6.413   3.817 -0.0738 -0.1160 -0.9046
   46MOL    C5611846   0.887   6.518   3.780  0.1748 -0.3182  0.5871
   46MOL    C5711847   0.790   6.572   3.876  0.1567 -0.4768 -0.2218
   46MOL    C5811848   0.905   6.607   3.658  0.3196 -0.1110 -0.2194
   46MOL    H5911849   1.100   6.258   3.763 -1.1306 -0.9382 -0.8443
   46MOL    H6011850   1.050   6.365   3.633 -1.4387  2.6445 -0.1821
   46MOL    H6111851   0.948   6.365   3.912 -2.2744  2.1600 -0.0701
   46MOL    H6211852   0.813   6.676   3.899  1.3077 -0.6078 -0.7346
   46MOL    H6311853   0.773   6.523   3.972 -1.0519  0.3050 -0.0309
   46MOL    H6411854   0.689   6.573   3.835  0.5520  1.4093 -1.1727
   46MOL    H6511855   0.959   6.552   3.581 -0.0817  1.2490 -1.4905
   46MOL    H6611856   0.974   6.684   3.693 -0.3094  0.0605  0.6695
   46MOL    C6711857   0.773   6.664   3.607  0.3136 -0.3451 -0.2634
   46MOL    C6811858   0.690   6.560   3.542 -0.1113  0.1389 -0.1580
   46MOL    C6911859   0.560   6.532   3.555 -0.0654 -0.0278  0.7877
   46MOL    C7011860   0.496   6.426   3.464 -0.2493 -0.5670  0.3216
   46MOL    C7111861   0.469   6.604   3.648 -0.4836 -0.0318  0.5199
   46MOL    H7211862   0.789   6.735   3.526 -0.5470 -0.9434 -0.9550
   46MOL    H7311863   0.720   6.720   3.685  2.0513  0.8680  0.0816
   46MOL    H7411864   0.755   6.511   3.470  0.4008  2.0099 -1.0084
   46MOL    H7511865   0.566   6.356   3.421 -1.0651 -2.3183  1.7638
   46MOL    H7611866   0.425   6.458   3.388 -0.0731  0.0116  0.3954
   46MOL    H7711867   0.429   6.372   3.530 -2.9880  0.8104 -1.2301
   46MOL    H7811868   0.402   6.635   3.567 -0.4588 -0.7221  0.2379
   46MOL    H7911869   0.496   6.691   3.708  1.3499 -0.6217  0.5685
   46MOL    C8011870   0.375   6.524   3.733 -0.0573 -0.2943  0.4026
   46MOL    C8111871   0.242   6.594   3.768  0.8948  1.5426 -0.4246
   46MOL    C8211872   0.141   6.640   3.686 -0.3171 -0.0461 -0.5665
   46MOL    C8311873   0.140   6.623   3.535 -0.3260  0.0089 -0.1759
   46MOL    C8411874   0.024   6.716   3.744  0.2141  0.0831  1.0719
   46MOL    H8511875   0.429   6.520   3.828  1.4795  1.4901 -0.3650
   46MOL    H8611876   0.347   6.421   3.710 -2.6272  0.2386  0.9490
   46MOL    H8711877   0.229   6.605   3.874 -1.5185  0.8696 -0.6278
   46MOL    H8811878   0.209   6.540   3.518 -0.6172 -0.0873 -0.9108
   46MOL    H8911879   0.180   6.717   3.498  1.5512 -1.0147 -0.8209
   46MOL    H9011880   0.039   6.611   3.494 -0.5802 -0.4949  0.5909
   46MOL    H9111881   0.014   6.693   3.850 -0.3766  2.1716  1.4746
   46MOL    H9211882   7.810   6.694   3.693  1.0383  0.1162 -0.4848
   46MOL    C9311883   0.047   6.871   3.742  0.4303  0.2284  0.2797
   46MOL    C9411884   7.803   6.953   3.785  0.2936  0.5043  0.2905
   46MOL    C9511885   7.804   7.076   3.841  0.4580  0.4684 -0.1112
   46MOL    C9611886   7.669   7.142   3.874 -0.4054 -0.1799 -0.2800
   46MOL    C9711887   0.046   7.157   3.876  0.1689 -0.6102 -0.3017
   46MOL    H9811888   0.057   6.909   3.641  1.2966 -0.9789 -0.1010
   46MOL    H9911889   0.139   6.900   3.793  1.8781  0.2257 -2.2684
   46MOL   H10011890   7.710   6.906   3.758  0.8237 -1.6228  2.0416
   46MOL   H10111891   7.671   7.251   3.867 -1.6077 -0.1479 -0.2380
   46MOL   H10211892   7.581   7.102   3.824 -2.1859  1.0260  1.8053
   46MOL   H10311893   7.654   7.123   3.980  1.4913  2.7186  0.5744
   46MOL   H10411894   0.043   7.249   3.817 -1.0569 -0.6507 -0.3096
   46MOL   H10511895   0.137   7.118   3.831  0.5858  2.2630 -2.0604
   46MOL   C10611896   0.067   7.161   4.029 -0.2094  0.8838  0.1213
   46MOL   C10711897   0.199   7.234   4.062 -0.2438 -0.3314  0.3941
   46MOL   C10811898   0.213   7.364   4.093  0.7005  0.7053 -0.1040
   46MOL   C10911899   0.097   7.462   4.086  0.1582  0.7558  0.0746
   46MOL   C11011900   0.334   7.429   4.153  0.3163  0.4330 -0.5683
   46MOL   H11111901   0.079   7.059   4.066  1.6596  0.9143 -0.3263
   46MOL   H11211902   7.873   7.223   4.080  1.9945  1.4605  2.7084
   46MOL   H11311903   0.289   7.175   4.067  0.1660  0.2970  0.3206
   46MOL   H11411904   0.017   7.429   4.019  1.8963  0.2517 -1.7843
   46MOL   H11511905   0.051   7.493   4.180 -0.5953 -2.6448  0.8711
   46MOL   H11611906   0.133   7.558   4.048  1.6370 -0.2112 -0.9972
   46MOL   H11711907   0.306   7.491   4.238 -0.5736  0.8661 -1.1681
   46MOL   H11811908   0.368   7.503   4.080 -0.0828  1.2946  0.1070
   46MOL   C11911909   0.450   7.345   4.184 -0.3755  0.2029 -0.7651
   46MOL   C12011910   0.577   7.420   4.216 -0.0905  0.6482 -0.1470
   46MOL   C12111911   0.702   7.372   4.200 -0.3965 -0.2993 -0.0515
   46MOL   C12211912   0.821   7.455   4.240 -0.6523 -0.5214 -0.0845
   46MOL   C12311913   0.738   7.252   4.124  0.5906  0.5955  0.8952
   46MOL   H12411914   0.481   7.296   4.091  2.6439  0.1522  0.1943
   46MOL   H12511915   0.424   7.269   4.258  0.0680  0.3565 -0.4468
   46MOL   H12611916   0.557   7.504   4.280 -0.5308  0.1837  0.3303
   46MOL   H12711917   0.902   7.396   4.282  2.3359  2.5469 -1.2981
   46MOL   H12811918   0.794   7.549   4.289  1.4315 -0.2643  0.6153
   46MOL   H12911919   0.862   7.492   4.147  1.5103  0.3834  1.2035
   46MOL   H13011920   0.667   7.173   4.150  0.8852 -0.4334 -1.3230
   46MOL   H13111921   0.839   7.219   4.150  2.2145  3.3880 -1.5855
   46MOL   C13211922   0.773   7.275   3.972  0.4928  0.0773  0.2348
   46MOL   C13311923   0.833   7.145   3.912  0.0710  0.2289 -0.0874
   46MOL   C13411924   0.946   7.137   3.842 -0.0358 -0.1859 -0.7319
   46MOL   C13511925   0.991   7.002   3.799 -0.9938  0.1073 -0.7195
   46MOL   C13611926   1.043   7.246   3.810  0.0185 -0.0856 -0.6996
   46MOL   H13711927   0.844   7.358   3.967 -0.2137  0.8185  2.1277
   46MOL   H13811928   0.685   7.306   3.915  1.0131 -0.1188 -0.6841
   46MOL   H13911929   0.759   7.067   3.922 -0.4275  0.5172 -1.4474
   46MOL   H14011930   0.914   6.927   3.783  0.4935 -1.4178 -0.8837
   46MOL   H14111931   1.037   6.964   3.891 -1.1453  0.5453 -0.4622
   46MOL   H14211932   1.068   6.990   3.724  1.3855 -2.4963  1.9966
   46MOL   H14311933   0.992   7.342   3.821 -0.5802 -0.1734 -2.4930
   46MOL   H14411934   1.065   7.244   3.703 -0.5399  0.5115 -0.8290
   46MOL   C14511935   1.180   7.221   3.880 -0.5352 -0.1276  0.3076
   46MOL   C14611936   1.175   7.250   4.026 -0.1545 -0.3098  0.0043
   46MOL   C14711937   1.266   7.306   4.105 -0.4063 -0.0492  0.3405
   46MOL   C14811938   1.241   7.326   4.251 -0.8282  0.0698 -0.4040
   46MOL   C14911939   1.402   7.358   4.049 -0.0794 -0.7766  0.2000
   46MOL   H15011940   1.248   7.278   3.817 -0.1287  1.8329  2.4365
   46MOL   H15111941   1.213   7.117   3.879 -1.4525 -0.4285  0.7630
   46MOL   H15211942   1.087   7.212   4.076  0.5930  0.0556  1.6481
   46MOL   H15311943   1.304   7.277   4.325  0.1919  3.1802  0.8987
   46MOL   H15411944   1.138   7.322   4.286 -0.3736  1.0413  1.0770
   46MOL   H15511945   1.253   7.433   4.272  1.9953 -0.4739  1.0141
   46MOL   H15611946   1.452   7.416   4.126 -0.4680 -3.0693  2.2740
   46MOL   H15711947   1.381   7.423   3.965 -2.1196  0.8796  1.9285
   46MOL   C15811948   1.505   7.249   4.009  0.2437 -0.1976  0.2489
   46MOL   C15911949   1.634   7.325   3.987 -0.1159  1.0067  0.5689
   46MOL   C16011950   1.729   7.343   4.081 -0.5302  0.2614  0.4263
   46MOL   C16111951   1.716   7.286   4.216 -0.6289 -0.1010 -0.1855
   46MOL   C16211952   1.833   7.438   4.053  0.1900  0.1077  0.3425
   46MOL   H16311953   1.471   7.209   3.913 -0.1841 -1.6153  0.9781
   46MOL   H16411954   1.495   7.164   4.076 -1.5053 -0.9887 -0.9687
   46MOL   H16511955   1.630   7.374   3.891 -1.3535  1.5973  0.9160
   46MOL   H16611956   1.675   7.352   4.292 -1.3606 -0.2997 -0.4034
   46MOL   H16711957   1.815   7.252   4.245 -0.7511  0.3185  0.7307
   46MOL   H16811958   1.641   7.206   4.224  0.3030 -0.8337  1.3277
   46MOL   H16911959   1.839   7.434   3.944 -2.0265  0.9472  0.1674
   46MOL   H17011960   1.929   7.406   4.095  0.9072 -1.2374 -2.2287
   46MOL   C17111961   1.810   7.586   4.096  0.0604  0.3833  0.0494
   46MOL   C17211962   1.697   7.647   4.018 -0.2177 -0.0245 -0.7960
   46MOL   C17311963   1.581   7.686   4.080  0.1491  0.1004 -0.2038
   46MOL   C17411964   1.547   7.670   4.228  0.1251 -0.5273  0.0786
   46MOL   C17511965   1.472   7.755   4.000  0.2294  0.5276 -0.9544
   46MOL   H17611966   1.889   7.657   4.071  0.1702  0.8320  1.5953
   46MOL   H17711967   1.807   7.586   4.205 -0.0687  0.9804  0.0483
   46MOL   H17811968   1.726   7.658   3.915 -1.2199 -2.1729 -1.3224
   46MOL   H17911969   1.594   7.579   4.267 -0.5099 -0.6334  0.6021
   46MOL   H18011970   1.440   7.659   4.240  0.0418  0.0089 -0.1588
   46MOL   H18111971   1.584   7.751   4.291 -1.9599  0.1944  0.4061
   46MOL   H18211972   1.487   7.860   4.025  0.7655  0.3024 -0.3196
   46MOL   H18311973   1.374   7.723   4.036 -0.3137  2.5839 -0.5421
   46MOL   C18411974   1.483   7.732   3.842  0.5924  0.2207  0.4204
   46MOL   C18511975   1.357   7.730   3.755 -0.0068 -0.1298  0.6887
   46MOL   C18611976   1.345   7.684   3.628 -0.4892  0.0154 -0.0458
   46MOL   C18711977   1.209   7.682   3.552 -0.3177 -0.2211 -0.0856
   46MOL   C18811978   1.459   7.622   3.559  0.2106 -0.1008  1.1027
   46MOL   H18911979   1.532   7.635   3.826 -0.7205 -0.3527 -0.2099
   46MOL   H19011980   1.556   7.790   3.785  0.7937 -1.7849 -1.4843
   46MOL   H19111981   1.271   7.784   3.793  0.7783  0.8911  1.0305
   46MOL   H19211982   1.206   7.586   3.498 -0.6230  0.2013 -0.8308
   46MOL   H19311983   1.206   7.761   3.478  1.3717  0.7847  0.8928
   46MOL   H19411984   1.123   7.698   3.617 -1.0708 -1.2076 -0.8132
   46MOL   H19511985   1.559   7.641   3.597  0.1013 -0.2042  1.4371
   46MOL   H19611986   1.465   7.654   3.455  0.2375 -2.5562  0.3187
   46MOL   C19711987   1.450   7.468   3.573 -0.1693  1.2798  0.2103
   46MOL   C19811988   1.495   7.396   3.451  0.1415 -0.5779 -0.2271
   46MOL   C19911989   1.532   7.270   3.442  0.0245 -0.1351  0.4557
   46MOL   C20011990   1.578   7.208   3.316  0.0987  0.0536  0.6607
   46MOL   C20111991   1.531   7.175   3.558 -0.2406  0.6832 -0.7243
   46MOL   H20211992   1.353   7.425   3.598 -0.7318  1.2706 -1.9034
   46MOL   H20311993   1.505   7.438   3.662 -1.0108  3.6244  1.5699
   46MOL   H20411994   1.490   7.454   3.360  1.2336  0.3017  0.2697
   46MOL   H20511995   1.594   7.277   3.233 -1.7264  0.1307  0.3569
   46MOL   H20611996   1.516   7.129   3.273 -0.0989 -0.1072  1.2299
   46MOL   H20711997   1.670   7.158   3.347 -0.0825 -0.1206  0.9234
   46MOL   H20811998   1.501   7.222   3.652 -0.3650 -0.5167 -0.1510
   46MOL   H20911999   1.632   7.140   3.581 -0.3859  1.4629  1.2233
   46MOL   C21012000   1.447   7.047   3.528 -0.1668 -0.7456  0.0266
   46MOL   C21112001   1.444   6.963   3.656 -0.1417  0.0192  0.2324
   46MOL   C21212002   1.536   6.870   3.696 -0.6553 -0.0385  0.1836
   46MOL   C21312003   1.532   6.808   3.839 -0.1393 -0.3414 -0.1152
   46MOL   C21412004   1.655   6.836   3.607 -0.3134  0.4051 -0.3255
   46MOL   H21512005   1.474   6.991   3.438 -1.0647  1.8707 -1.9033
   46MOL   H21612006   1.346   7.082   3.508 -0.8540 -2.0785  1.0377
   46MOL   H21712007   1.368   6.998   3.724  0.7961 -1.4124  2.0579
   46MOL   H21812008   1.427   6.809   3.867 -0.7532 -2.3460 -2.1273
   46MOL   H21912009   1.593   6.859   3.913 -3.3460  0.5731  2.0084
   46MOL   H22012010   1.558   6.702   3.830  0.6830 -0.2999  1.5924
   46MOL   H22112011   1.661   6.870   3.503  0.5128  0.4213 -0.2767
   46MOL   H22212012   1.647   6.728   3.595 -0.5587  0.0906  2.4010
   46MOL   C22312013   1.792   6.853   3.677 -0.2559  0.3796 -0.4995
   46MOL   C22412014   1.816   6.992   3.728  0.0436  0.6875 -0.0927
   46MOL   C22512015   1.920   7.073   3.692 -0.4411 -0.0360  0.2660
   46MOL   C22612016   1.937   7.198   3.776  0.1552 -0.3892  0.1845
   46MOL   C22712017   1.999   7.069   3.563  0.1930  0.0834 -0.0140
   46MOL   H22812018   1.885   6.815   3.635 -0.9207 -4.2213  1.8597
   46MOL   H22912019   1.798   6.793   3.768  2.4014  0.7585 -0.4028
   46MOL   H23012020   1.757   7.023   3.813  1.0377  0.8109  0.5477
   46MOL   H23112021   1.882   7.194   3.870 -0.3822 -2.3927 -0.1875
   46MOL   H23212022   1.879   7.270   3.718 -1.6258 -0.0845  2.2718
   46MOL   H23312023   2.041   7.230   3.765  0.2704 -1.0498 -0.7270
   46MOL   H23412024   1.977   7.159   3.505 -1.3549  1.8831  3.2390
   46MOL   H23512025   1.959   6.989   3.499 -0.6999 -1.0356  1.8811
   46MOL   C23612026   2.145   7.030   3.593 -0.2342 -1.0221  0.1289
   46MOL   C23712027   2.205   6.984   3.459 -0.3473 -0.2572 -0.3114
   46MOL   C23812028   2.214   6.856   3.413 -0.4444 -0.4545  0.5492
   46MOL   C23912029   2.275   6.823   3.272 -0.2954 -0.1199 -0.1768
   46MOL   C24012030   2.148   6.740   3.480 -0.1350  0.5259 -0.2696
   46MOL   H24112031   2.146   6.955   3.672 -3.3439 -0.3893  0.8683
   46MOL   H24212032   2.201   7.116   3.629 -0.1265 -0.1974 -1.9885
   46MOL   H24312033   2.255   7.068   3.411  0.5413  0.0811  1.1500
   46MOL   H24412034   2.365   6.762   3.275  0.5361  0.8975 -2.9464
   46MOL   H24512035   2.304   6.920   3.230 -1.3575  0.7001  0.9306
   46MOL   H24612036   2.197   6.766   3.222 -0.7417 -0.6855  1.1277
   46MOL   H24712037   2.072   6.703   3.411 -0.3608  0.2747  0.1058
   46MOL   H24812038   2.087   6.769   3.566 -1.6536 -0.3834 -1.0207
   46MOL   C24912039   2.249   6.640   3.532 -0.4590 -0.0924  0.0644
   46MOL   C25012040   2.203   6.499   3.509 -0.5305 -0.1560 -0.2873
   46MOL   C25112041   2.217   6.394   3.594 -0.3575 -0.1506 -0.1275
   46MOL   C25212042   2.171   6.258   3.556 -0.6918  0.4854  0.0077
   46MOL   C25312043   2.277   6.406   3.729 -0.2125  0.4978 -0.6243
   46MOL   H25412044   2.259   6.662   3.638 -0.9885  0.0155  0.0948
   46MOL   H25512045   2.345   6.660   3.485  0.4177  2.3802  2.8379
   46MOL   H25612046   2.162   6.485   3.410 -0.7473  0.2234 -0.2511
   46MOL   H25712047   2.081   6.228   3.610 -0.5834  1.0115  0.4920
   46MOL   H25812048   2.244   6.179   3.577 -1.0246  0.0207 -0.5870
   46MOL   H25912049   2.150   6.256   3.449  1.0976 -0.7872 -0.3585
   46MOL   H26012050   2.194   6.408   3.801 -0.4061  0.0187 -0.8309
   46MOL   H26112051   2.336   6.493   3.756 -0.8201  0.5749  0.5232
   46MOL   H26212052   2.344   6.321   3.738 -0.7931 -0.0624 -1.5432
   47MOL     C112053   1.058   2.391   3.416 -0.4600 -0.2588  0.2301
   47MOL     C212054   1.033   2.365   3.559 -0.5799  0.5935 -0.2910
   47MOL     C312055   1.118   2.303   3.648 -0.0534 -0.6576 -0.2087
   47MOL     C412056   1.066   2.300   3.790 -0.1021 -0.0169 -0.1205
   47MOL     C512057   1.251   2.242   3.625  0.0296  0.4799 -0.0318
   47MOL     H612058   0.995   2.328   3.355  0.3074 -0.5979 -0.2167
   47MOL     H712059   1.022   2.492   3.397 -3.1539 -1.4371 -1.1112
   47MOL     H812060   0.936   2.400   3.590  1.1744  4.3663  1.2768
   47MOL     H912061   0.968   2.345   3.805  0.0347  0.4375 -0.5672
   47MOL    H1012062   1.134   2.318   3.873 -0.6300 -2.3000  0.8232
   47MOL    H1112063   1.051   2.194   3.808 -0.6099  0.0835  0.0545
   47MOL    H1212064   1.274   2.251   3.519 -1.7553 -0.7750 -0.5606
   47MOL    H1312065   1.239   2.140   3.662  3.3834 -0.2155 -0.7104
   47MOL    H1412066   1.164   2.387   3.391 -0.3593  0.4998  0.5072
   47MOL    C1512067   1.368   2.304   3.698 -0.4064  0.3732 -0.6372
   47MOL    C1612068   1.506   2.240   3.675 -0.2264  0.0460 -0.2990
   47MOL    C1712069   1.617   2.302   3.631  0.1813  0.2065  0.0967
   47MOL    C1812070   1.744   2.232   3.610 -0.0811 -0.7730 -0.2504
   47MOL    C1912071   1.623   2.450   3.600 -0.1173  0.2850  0.2282
   47MOL    H2012072   1.354   2.303   3.806 -1.5957 -1.0964 -0.7851
   47MOL    H2112073   1.367   2.407   3.663  0.0879  0.8506  0.7266
   47MOL    H2212074   1.506   2.134   3.698 -0.5266 -0.2290 -1.4990
   47MOL    H2312075   1.826   2.284   3.660  0.1253 -0.9249 -0.4301
   47MOL    H2412076   1.769   2.221   3.505  0.9826  0.8538 -0.1928
   47MOL    H2512077   1.733   2.136   3.661 -0.5740 -1.0996 -0.9691
   47MOL    H2612078   1.527   2.492   3.571 -0.0972  0.4882  0.4498
   47MOL    H2712079   1.689   2.459   3.514  1.3765  1.6938  1.4852
   47MOL    C2812080   1.683   2.539   3.708 -0.2023 -0.1550  0.3456
   47MOL    C2912081   1.610   2.528   3.840  0.8831 -0.1274  0.3988
   47MOL    C3012082   1.529   2.617   3.899  0.6822 -0.2910  0.1138
   47MOL    C3112083   1.460   2.573   4.027 -0.1712 -0.2560 -0.4086
   47MOL    C3212084   1.487   2.752   3.852 -0.5965  0.9784 -0.4327
   47MOL    H3312085   1.691   2.641   3.672 -0.2482  0.4226  1.9332
   47MOL    H3412086   1.783   2.503   3.735 -0.2988 -1.0497 -0.4697
   47MOL    H3512087   1.608   2.431   3.887  2.6870  0.2421  1.2888
   47MOL    H3612088   1.490   2.479   4.073 -4.1351 -0.9013  0.9767
   47MOL    H3712089   1.352   2.581   4.024 -0.3051 -1.0096  1.9805
   47MOL    H3812090   1.494   2.648   4.098 -0.2202 -0.1888 -0.4558
   47MOL    H3912091   1.379   2.759   3.847 -1.0064 -2.4214  1.6625
   47MOL    H4012092   1.511   2.762   3.746  2.0809 -0.3456  0.0085
   47MOL    C4112093   1.546   2.865   3.933 -0.0975 -0.4232 -0.4044
   47MOL    C4212094   1.460   2.990   3.917 -0.4339  0.0654  0.0841
   47MOL    C4312095   1.409   3.070   4.013  0.2593 -0.9372  0.4068
   47MOL    C4412096   1.318   3.176   3.968 -0.2095  0.0528  0.1400
   47MOL    C4512097   1.445   3.059   4.164 -0.0641  0.5186  0.7413
   47MOL    H4612098   1.647   2.896   3.907 -0.5379  1.9181  0.4841
   47MOL    H4712099   1.549   2.843   4.040  1.6468 -1.7153 -0.7033
   47MOL    H4812100   1.431   3.012   3.815 -3.1625  0.1487  0.8272
   47MOL    H4912101   1.381   3.265   3.973  1.0777 -0.8972  1.1583
   47MOL    H5012102   1.238   3.178   4.043  2.8894  0.0303  3.5823
   47MOL    H5112103   1.283   3.176   3.865  0.8119 -1.2274 -0.2221
   47MOL    H5212104   1.452   3.164   4.194  2.0355  0.3159  1.0062
   47MOL    H5312105   1.538   3.006   4.181  0.7331  1.9712  0.9868
   47MOL    C5412106   1.330   2.974   4.240 -0.1097  0.3118 -0.5534
   47MOL    C5512107   1.342   2.964   4.390 -0.7227 -0.3467 -0.4380
   47MOL    C5612108   1.381   2.857   4.465  0.1440  0.1799 -0.0246
   47MOL    C5712109   1.392   2.864   4.613 -0.7505  0.0804  0.2525
   47MOL    C5812110   1.423   2.721   4.401 -0.3734  0.6819 -0.1620
   47MOL    H5912111   1.309   2.874   4.200  0.7860 -0.0581 -0.1164
   47MOL    H6012112   1.236   3.024   4.215  0.1018  0.4140 -1.1570
   47MOL    H6112113   1.318   3.051   4.449  0.0604 -0.9662  0.8075
   47MOL    H6212114   1.349   2.959   4.641 -2.2903  0.3947 -2.9760
   47MOL    H6312115   1.494   2.854   4.650 -1.4968 -3.0509  1.6364
   47MOL    H6412116   1.328   2.788   4.657  1.0441 -0.7217  1.5806
   47MOL    H6512117   1.525   2.701   4.432 -0.8580 -3.1082 -0.7590
   47MOL    H6612118   1.433   2.714   4.292 -1.8048  1.2746 -0.3514
   47MOL    C6712119   1.334   2.606   4.457 -0.1651 -0.3836 -0.6193
   47MOL    C6812120   1.355   2.472   4.396  0.5354 -1.1310  0.0204
   47MOL    C6912121   1.420   2.367   4.455 -0.5902 -0.0972  0.6290
   47MOL    C7012122   1.435   2.232   4.388 -0.1870 -0.4416 -0.1314
   47MOL    C7112123   1.479   2.378   4.591  0.0138  0.3719  0.8359
   47MOL    H7212124   1.231   2.630   4.431 -0.9576 -1.8526  1.0753
   47MOL    H7312125   1.349   2.599   4.564  0.2321 -1.0249 -0.7148
   47MOL    H7412126   1.292   2.461   4.308 -1.2241  1.9447  0.8445
   47MOL    H7512127   1.543   2.224   4.378  0.1220  3.1532 -0.5472
   47MOL    H7612128   1.381   2.226   4.294 -2.0459 -1.3861  0.9678
   47MOL    H7712129   1.395   2.158   4.457 -2.6709 -1.5010 -2.6390
   47MOL    H7812130   1.501   2.483   4.612  0.5348  0.5269 -0.4084
   47MOL    H7912131   1.576   2.327   4.593 -0.8047 -1.2602 -0.2354
   47MOL    C8012132   1.393   2.332   4.708 -0.0012 -0.8343  0.9082
   47MOL    C8112133   1.468   2.322   4.846  0.1996 -0.0472  0.6402
   47MOL    C8212134   1.463   2.401   4.959  0.0044 -0.2543  0.0343
   47MOL    C8312135   1.363   2.515   4.969 -0.6033  0.1999 -0.7050
   47MOL    C8412136   1.549   2.367   5.079 -0.5657 -0.2290 -0.2219
   47MOL    H8512137   1.360   2.228   4.700 -0.5469 -0.5373 -0.7073
   47MOL    H8612138   1.305   2.395   4.709  0.5504 -0.0287 -0.4163
   47MOL    H8712139   1.536   2.238   4.843  0.4690  0.2322 -1.5499
   47MOL    H8812140   1.422   2.607   4.968  1.0552 -0.8260 -0.3563
   47MOL    H8912141   1.292   2.494   5.049 -0.3745 -1.3431 -0.8896
   47MOL    H9012142   1.307   2.524   4.876 -0.3380  1.6920 -0.7294
   47MOL    H9112143   1.482   2.303   5.137 -0.7208 -0.9855 -1.2156
   47MOL    H9212144   1.579   2.457   5.132  0.9236 -0.2798 -0.9559
   47MOL    C9312145   1.677   2.284   5.048  0.5148 -0.1289  0.0365
   47MOL    C9412146   1.781   2.307   5.152 -0.0699 -0.3092 -0.2539
   47MOL    C9512147   1.892   2.390   5.141 -0.2269  0.3926 -0.5505
   47MOL    C9612148   1.977   2.403   5.263 -0.1707  0.9600 -0.7979
   47MOL    C9712149   1.940   2.461   5.017  0.2573  0.8423 -0.2908
   47MOL    H9812150   1.721   2.313   4.953 -0.0040 -3.0136 -1.1363
   47MOL    H9912151   1.663   2.176   5.052 -1.4088  0.0505 -1.4026
   47MOL   H10012152   1.762   2.261   5.248  1.2073  0.4785  0.3840
   47MOL   H10112153   1.959   2.332   5.344  0.8963  2.6158  0.9208
   47MOL   H10212154   2.084   2.401   5.245 -0.0102 -0.1967  0.2221
   47MOL   H10312155   1.959   2.500   5.311 -2.4256  0.5384 -0.7035
   47MOL   H10412156   1.937   2.400   4.926 -0.8773 -0.4666  0.6119
   47MOL   H10512157   2.046   2.488   5.014  0.4724  0.5907  3.5098
   47MOL   C10612158   1.865   2.597   4.998  0.3221 -0.2092 -0.3785
   47MOL   C10712159   1.919   2.682   4.881  0.1743 -0.1359 -0.6047
   47MOL   C10812160   1.860   2.723   4.765  0.2612  0.3479 -0.1502
   47MOL   C10912161   1.711   2.680   4.734  0.2198  0.4923 -0.1246
   47MOL   C11012162   1.930   2.813   4.674 -0.5724 -0.1018 -0.3608
   47MOL   H11112163   1.870   2.654   5.090 -0.3115  1.5950 -1.4271
   47MOL   H11212164   1.758   2.581   4.981 -0.0930  0.3699  1.6074
   47MOL   H11312165   2.017   2.714   4.912 -0.0583  0.2506 -0.2564
   47MOL   H11412166   1.701   2.667   4.626 -0.0934  1.1489 -0.1757
   47MOL   H11512167   1.693   2.585   4.784  0.6252 -0.6488 -2.0748
   47MOL   H11612168   1.633   2.748   4.769  1.2468  1.1745  0.8953
   47MOL   H11712169   1.961   2.907   4.721 -0.0082 -0.4675  0.0050
   47MOL   H11812170   1.875   2.853   4.588 -0.6504  2.7247  0.9273
   47MOL   C11912171   2.057   2.742   4.628  0.4518  0.1133 -0.6315
   47MOL   C12012172   2.148   2.827   4.543  0.5240 -0.4361 -0.2784
   47MOL   C12112173   2.284   2.841   4.551 -0.6064  0.0670  0.4616
   47MOL   C12212174   2.366   2.941   4.469 -0.0659 -0.3166 -0.0253
   47MOL   C12312175   2.374   2.754   4.638  0.9757 -0.0827  1.2410
   47MOL   H12412176   2.036   2.658   4.562  0.7647  0.4889 -1.2112
   47MOL   H12512177   2.113   2.694   4.708  0.0911 -0.8068 -0.9253
   47MOL   H12612178   2.097   2.890   4.472  0.9033  0.3672  0.1535
   47MOL   H12712179   2.449   2.902   4.411  0.4971  0.8858 -0.0409
   47MOL   H12812180   2.406   3.001   4.551  1.6216 -0.8092 -0.4649
   47MOL   H12912181   2.300   3.006   4.413 -0.0206 -1.7008 -1.7190
   47MOL   H13012182   2.470   2.722   4.597  0.0022 -1.8254  0.2506
   47MOL   H13112183   2.326   2.659   4.663 -0.8569  0.8775  1.4571
   47MOL   C13212184   2.400   2.826   4.776  0.8217  0.4447 -0.4590
   47MOL   C13312185   2.449   2.716   4.871 -0.4169 -0.4408  0.1236
   47MOL   C13412186   2.416   2.710   5.003 -0.4872 -0.1685  0.0616
   47MOL   C13512187   2.453   2.583   5.082  0.5490 -0.4546 -0.3138
   47MOL   C13612188   2.353   2.818   5.087 -0.3484 -0.2173 -0.0980
   47MOL   H13712189   2.306   2.857   4.822  0.3484 -1.3837 -0.1898
   47MOL   H13812190   2.473   2.907   4.776  1.4474 -0.1215 -1.3143
   47MOL   H13912191   2.510   2.639   4.827 -0.1295 -1.0123  1.4964
   47MOL   H14012192   2.464   2.499   5.012 -1.8858 -1.8352  0.8861
   47MOL   H14112193   2.384   2.549   5.159  0.5149 -0.6443 -0.4287
   47MOL   H14212194   2.545   2.615   5.131 -1.3438  1.0224  2.3805
   47MOL   H14312195   2.286   2.778   5.163  0.3152  0.4634  0.8511
   47MOL   H14412196   2.286   2.875   5.021  0.1463 -0.5541 -0.9021
   47MOL   C14512197   2.457   2.906   5.151 -0.0327 -0.6520  0.0770
   47MOL   C14612198   2.402   3.022   5.237  0.1615  0.4191  0.5980
   47MOL   C14712199   2.449   3.147   5.242  0.1471  0.5462  0.0783
   47MOL   C14812200   2.391   3.242   5.334  0.9707 -0.1869 -0.3060
   47MOL   C14912201   2.562   3.203   5.154 -0.2577 -0.6258 -0.3345
   47MOL   H15012202   2.528   2.945   5.078  0.0270  0.9906  0.9640
   47MOL   H15112203   2.516   2.851   5.223 -2.7774 -1.4281  1.8260
   47MOL   H15212204   2.319   2.993   5.300  0.5639  0.3400  1.0826
   47MOL   H15312205   2.310   3.200   5.393 -0.2083  2.8312  0.3457
   47MOL   H15412206   2.350   3.330   5.285  1.1888 -0.3407 -0.7609
   47MOL   H15512207   2.470   3.282   5.399 -0.7887  1.7601  0.6926
   47MOL   H15612208   2.639   3.129   5.133 -0.5545 -1.4344  1.3304
   47MOL   H15712209   2.610   3.286   5.207 -0.6779  0.9643 -2.4078
   47MOL   C15812210   2.516   3.277   5.028 -0.1202  0.7313  0.0414
   47MOL   C15912211   2.621   3.375   4.979  0.3408 -0.5149 -0.1578
   47MOL   C16012212   2.608   3.505   4.956  0.4014 -0.0648 -0.1539
   47MOL   C16112213   2.479   3.579   4.973 -0.2602  0.4518  0.0385
   47MOL   C16212214   2.728   3.590   4.912  0.0188 -0.2361  0.2930
   47MOL   H16312215   2.414   3.315   5.041 -0.4297  0.0093 -0.2613
   47MOL   H16412216   2.508   3.197   4.955 -2.9057 -0.8520  1.9971
   47MOL   H16512217   2.716   3.331   4.952  0.8614 -0.7289  1.9171
   47MOL   H16612218   2.400   3.512   5.006  0.1672 -0.1090 -0.0725
   47MOL   H16712219   2.446   3.635   4.885 -2.1882  0.5051  0.7744
   47MOL   H16812220   2.495   3.649   5.054 -0.0581  0.8894 -0.3753
   47MOL   H16912221   2.685   3.637   4.824 -0.4566  0.7471  1.0349
   47MOL   H17012222   2.817   3.541   4.875  0.7166  1.3859 -0.2258
   47MOL   C17112223   2.767   3.698   5.023  0.3613 -0.1423  0.2448
   47MOL   C17212224   2.908   3.692   5.066 -1.2632 -1.1161  0.1880
   47MOL   C17312225   3.007   3.784   5.047 -0.0881  0.8039 -0.5854
   47MOL   C17412226   2.995   3.899   4.950  0.5402 -0.2631 -0.0381
   47MOL   C17512227   3.143   3.765   5.098  0.0049  0.0092  0.2331
   47MOL   H17612228   2.706   3.681   5.111 -2.4099  1.8284 -1.2332
   47MOL   H17712229   2.744   3.799   4.991 -1.8773 -0.3401  1.1906
   47MOL   H17812230   2.925   3.609   5.134  3.1652 -0.2763  0.2662
   47MOL   H17912231   3.041   3.991   4.986  0.4810 -0.5369  0.7539
   47MOL   H18012232   2.890   3.917   4.925  1.0910  0.4731 -1.8876
   47MOL   H18112233   3.049   3.871   4.860  0.7285  1.3505 -0.4283
   47MOL   H18212234   3.206   3.760   5.009  1.6917 -0.4501  1.4343
   47MOL   H18312235   3.149   3.663   5.137  1.5176  0.4095  1.0749
   47MOL   C18412236   3.191   3.880   5.181  0.2456  0.1831  0.5551
   47MOL   C18512237   3.342   3.878   5.210  0.6161 -0.0616  0.0299
   47MOL   C18612238   3.404   3.874   5.329 -0.0918  0.2126  0.2320
   47MOL   C18712239   3.558   3.862   5.331  0.5371  0.1864 -0.3595
   47MOL   C18812240   3.338   3.876   5.460 -0.4279  0.0927 -0.4340
   47MOL   H18912241   3.136   3.885   5.275  0.6270 -0.3308  0.8088
   47MOL   H19012242   3.178   3.975   5.131 -1.6505 -0.9459 -1.1440
   47MOL   H19112243   3.394   3.890   5.116  1.7968  0.4861  0.7335
   47MOL   H19212244   3.589   3.812   5.239  0.3140 -0.2775 -0.1787
   47MOL   H19312245   3.598   3.791   5.403  0.3386 -0.7436 -1.1658
   47MOL   H19412246   3.608   3.958   5.346 -1.8696  1.2938  0.7163
   47MOL   H19512247   3.236   3.911   5.446  0.4783  2.1303 -2.2727
   47MOL   H19612248   3.376   3.957   5.522 -2.0314  2.4164 -2.3959
   47MOL   C19712249   3.333   3.744   5.533  0.4388 -0.3604 -0.4455
   47MOL   C19812250   3.321   3.757   5.685 -0.0276 -0.4555  0.2298
   47MOL   C19912251   3.406   3.722   5.784  0.1427 -0.3397  0.3501
   47MOL   C20012252   3.370   3.741   5.935 -0.7504 -0.8194  0.5002
   47MOL   C20112253   3.543   3.660   5.748  0.4211  0.0868  0.1551
   47MOL   H20212254   3.422   3.693   5.496  0.8355 -0.2768  0.3987
   47MOL   H20312255   3.241   3.690   5.513  0.8549 -1.5919  0.9246
   47MOL   H20412256   3.229   3.805   5.715  1.1350  1.7858  0.3250
   47MOL   H20512257   3.350   3.645   5.983 -1.1969  0.4233  2.8803
   47MOL   H20612258   3.288   3.812   5.950 -1.0957 -1.1131  0.0078
   47MOL   H20712259   3.446   3.801   5.986 -0.0415 -0.3603 -1.0759
   47MOL   H20812260   3.550   3.619   5.647  1.8528 -0.4499  0.4563
   47MOL   H20912261   3.557   3.581   5.821 -1.1211  1.5371  2.0567
   47MOL   C21012262   3.659   3.770   5.761 -0.5709  0.2423  0.1224
   47MOL   C21112263   3.798   3.734   5.713  0.0397  0.0147  0.1932
   47MOL   C21212264   3.921   3.769   5.761 -0.1618  0.1890  0.3075
   47MOL   C21312265   4.040   3.700   5.701 -0.1528 -0.3323 -0.5027
   47MOL   C21412266   3.952   3.869   5.871 -0.7067 -0.0989 -0.0987
   47MOL   H21512267   3.669   3.796   5.866  0.1334  0.9241 -0.1114
   47MOL   H21612268   3.633   3.848   5.689 -0.6289 -1.4987 -1.7978
   47MOL   H21712269   3.796   3.649   5.647 -0.3690 -0.2520  0.5478
   47MOL   H21812270   4.020   3.670   5.598  2.7484 -1.0001 -0.9197
   47MOL   H21912271   4.082   3.617   5.757 -0.1181 -0.5280 -0.8169
   47MOL   H22012272   4.117   3.776   5.687 -0.6093 -0.2217 -2.5557
   47MOL   H22112273   4.034   3.827   5.928 -2.0039 -2.1699  0.2861
   47MOL   H22212274   3.872   3.885   5.944  0.2946 -0.9310  1.2001
   47MOL   C22312275   3.975   4.011   5.824  0.2747 -0.5773  0.4164
   47MOL   C22412276   4.012   4.096   5.939 -0.3113 -0.4808 -0.4064
   47MOL   C22512277   3.980   4.230   5.955  0.7140 -0.5686 -0.0642
   47MOL   C22612278   4.033   4.317   6.064  0.1017 -0.2667  0.6561
   47MOL   C22712279   3.907   4.315   5.853  0.1812 -0.0019  0.6349
   47MOL   H22812280   3.882   4.038   5.774  0.7254  0.3382  0.0519
   47MOL   H22912281   4.058   4.017   5.753  1.4761  0.3938  1.8844
   47MOL   H23012282   4.076   4.051   6.014 -1.9284 -0.9139  0.7420
   47MOL   H23112283   4.118   4.267   6.112  1.2363  1.6765  0.7188
   47MOL   H23212284   3.945   4.341   6.122 -1.6182 -0.6843 -1.6884
   47MOL   H23312285   4.091   4.399   6.020 -0.3065  0.1094  0.8175
   47MOL   H23412286   3.898   4.256   5.762  0.9329  0.7124  0.0853
   47MOL   H23512287   3.980   4.389   5.820  1.6918 -1.7282  0.0677
   47MOL   C23612288   3.783   4.381   5.901 -0.5938  1.0487  0.1964
   47MOL   C23712289   3.705   4.446   5.789 -0.1558 -0.6416  0.2316
   47MOL   C23812290   3.575   4.472   5.803  0.4539  0.0822 -0.3141
   47MOL   C23912291   3.501   4.552   5.687 -0.3424 -0.4599  0.4551
   47MOL   C24012292   3.486   4.446   5.923  0.5005  0.5576 -0.4370
   47MOL   H24112293   3.808   4.465   5.966 -0.0088 -0.0802  1.4567
   47MOL   H24212294   3.722   4.305   5.949 -0.6883  0.0895 -1.3891
   47MOL   H24312295   3.754   4.475   5.698 -1.1135  1.8940  0.4824
   47MOL   H24412296   3.565   4.572   5.601  0.5492 -0.6302  1.0710
   47MOL   H24512297   3.471   4.649   5.729  1.6382  0.3499  0.0418
   47MOL   H24612298   3.406   4.513   5.650  0.3539  0.2749 -2.1829
   47MOL   H24712299   3.533   4.365   5.980  2.3303  1.4146 -0.6842
   47MOL   H24812300   3.390   4.432   5.873 -0.8411  0.4937  2.0859
   47MOL   C24912301   3.468   4.563   6.014 -0.1620  0.0625  0.0568
   47MOL   C25012302   3.355   4.544   6.115  0.6771  0.0169 -0.5653
   47MOL   C25112303   3.372   4.518   6.247 -0.3909 -0.0870 -0.0533
   47MOL   C25212304   3.257   4.498   6.331  0.6473 -0.2396  0.4726
   47MOL   C25312305   3.508   4.499   6.323  0.0775  0.2188 -0.7515
   47MOL   H25412306   3.456   4.662   5.968  0.8376  0.2235  0.1486
   47MOL   H25512307   3.559   4.575   6.072 -0.4337 -0.6508  0.6257
   47MOL   H25612308   3.253   4.555   6.084  0.0949 -1.3272  0.8171
   47MOL   H25712309   3.239   4.584   6.395 -0.2455 -0.1830  0.1542
   47MOL   H25812310   3.273   4.408   6.391  0.3701 -0.4881  0.1810
   47MOL   H25912311   3.163   4.483   6.276  0.0985 -0.8446  1.5495
   47MOL   H26012312   3.583   4.569   6.285  2.0993 -2.9948 -3.0576
   47MOL   H26112313   3.542   4.401   6.288 -1.1912 -0.3988 -0.2755
   47MOL   H26212314   3.507   4.500   6.432  1.0325  1.0023 -0.7376
   48MOL     C112315   4.285   5.439   7.466  1.0974 -0.1294  0.3258
   48MOL     C212316   4.193   5.552   7.426 -0.0251  0.2791 -0.0076
   48MOL     C312317   4.126   5.574   7.302 -0.3571 -0.2922 -0.1466
   48MOL     C412318   4.039   5.702   7.282  0.0140  0.3835 -0.5239
   48MOL     C512319   4.124   5.475   7.184 -0.9817  0.9145 -0.5310
   48MOL     H612320   4.381   5.483   7.494  0.9514  1.4242 -1.5266
   48MOL     H712321   4.230   5.399   7.552 -4.6060  0.2312 -2.8928
   48MOL     H812322   4.167   5.625   7.501 -0.2406  0.4069 -0.2044
   48MOL     H912323   3.933   5.684   7.300  0.5897 -0.6030  1.9984
   48MOL    H1012324   4.052   5.753   7.186  2.0304  0.7268 -0.0960
   48MOL    H1112325   4.065   5.774   7.359 -2.5041  0.9280 -0.1572
   48MOL    H1212326   4.026   5.439   7.153  0.5595 -3.9720 -0.1821
   48MOL    H1312327   4.155   5.381   7.230 -1.6814  1.2468  0.6424
   48MOL    H1412328   4.316   5.366   7.391  3.3656  0.1470  0.9511
   48MOL    C1512329   4.222   5.499   7.076 -0.4461  0.2960  0.2237
   48MOL    C1612330   4.253   5.381   6.995  0.0366 -0.1766 -0.5544
   48MOL    C1712331   4.372   5.317   6.983 -0.1780 -1.0539  0.3329
   48MOL    C1812332   4.393   5.194   6.890  0.5807  0.3290 -0.2120
   48MOL    C1912333   4.504   5.374   7.043 -0.0560 -0.4064 -0.1828
   48MOL    H2012334   4.307   5.537   7.132 -1.4045  0.0671  1.8619
   48MOL    H2112335   4.184   5.585   7.020 -0.1446  1.1562  1.3303
   48MOL    H2212336   4.171   5.339   6.940 -1.8342 -0.5558  2.4188
   48MOL    H2312337   4.497   5.163   6.903 -0.0512 -2.2633 -1.0968
   48MOL    H2412338   4.367   5.210   6.786  0.2199 -3.1012 -0.7011
   48MOL    H2512339   4.337   5.110   6.933  0.2150 -0.2337 -1.7679
   48MOL    H2612340   4.543   5.285   7.094 -0.4880 -1.2262 -1.2560
   48MOL    H2712341   4.500   5.449   7.122 -1.9466  0.6116 -1.2113
   48MOL    C2812342   4.608   5.430   6.937 -0.7379 -0.0018 -0.2100
   48MOL    C2912343   4.738   5.475   7.000 -0.0919 -0.5188 -0.0674
   48MOL    C3012344   4.839   5.403   7.031 -0.4836  0.4139  0.1027
   48MOL    C3112345   4.952   5.475   7.098 -0.2932 -0.5318  0.0144
   48MOL    C3212346   4.851   5.250   7.009  0.5089  0.6188 -0.6984
   48MOL    H3312347   4.565   5.519   6.891  0.8037  0.3965 -0.9297
   48MOL    H3412348   4.626   5.360   6.856  1.7272  0.1458  0.1831
   48MOL    H3512349   4.733   5.581   7.020  0.3324 -0.9008  2.2727
   48MOL    H3612350   4.936   5.581   7.118  0.1212 -0.6685  1.1104
   48MOL    H3712351   5.031   5.472   7.023 -1.4993 -1.4932 -1.2386
   48MOL    H3812352   4.985   5.427   7.190 -1.5557  1.1066  1.3554
   48MOL    H3912353   4.763   5.212   6.955 -0.1193  1.2687 -0.1472
   48MOL    H4012354   4.833   5.205   7.107 -1.7617  1.7496 -0.5460
   48MOL    C4112355   4.974   5.207   6.941 -0.1746  0.0896  0.6654
   48MOL    C4212356   4.997   5.254   6.795 -0.3972  0.2640 -0.0908
   48MOL    C4312357   5.076   5.197   6.702 -0.3031  0.5406  0.3904
   48MOL    C4412358   5.088   5.255   6.559 -0.7589  0.5227 -0.0625
   48MOL    C4512359   5.180   5.080   6.733  0.0864 -0.2689  0.3852
   48MOL    H4612360   4.982   5.099   6.948 -0.1333  0.2274  3.3081
   48MOL    H4712361   5.057   5.241   7.004 -1.0348  2.2731  0.6837
   48MOL    H4812362   4.932   5.335   6.768 -0.9573  0.1337  0.8496
   48MOL    H4912363   5.193   5.276   6.540 -0.5629 -0.1658  0.2356
   48MOL    H5012364   5.038   5.349   6.538 -3.2157 -0.6969  0.1852
   48MOL    H5112365   5.071   5.186   6.477  2.0616  0.2095 -0.4231
   48MOL    H5212366   5.207   5.077   6.838  0.3905  0.4261  0.3262
   48MOL    H5312367   5.279   5.105   6.693  0.3182  0.8109  1.6296
   48MOL    C5412368   5.132   4.938   6.690 -0.0427  0.3034  0.8871
   48MOL    C5512369   5.246   4.836   6.675 -0.2934  0.6165 -0.0574
   48MOL    C5612370   5.308   4.805   6.560 -0.2005  0.1536 -0.3800
   48MOL    C5712371   5.406   4.694   6.561 -0.4710 -0.3587  0.0618
   48MOL    C5812372   5.264   4.854   6.425 -0.0348 -0.1917 -0.0415
   48MOL    H5912373   5.070   4.929   6.601  1.7252 -0.0036 -0.3304
   48MOL    H6012374   5.063   4.908   6.769 -0.5701 -0.4494  0.1510
   48MOL    H6112375   5.277   4.786   6.766 -1.7086 -1.5424 -0.7026
   48MOL    H6212376   5.347   4.629   6.496 -0.0563 -0.2042 -0.4717
   48MOL    H6312377   5.433   4.642   6.653  0.7723 -0.1049 -0.1568
   48MOL    H6412378   5.504   4.706   6.516  0.3986 -2.6509  1.2807
   48MOL    H6512379   5.178   4.921   6.423  1.4278  1.7732  1.0262
   48MOL    H6612380   5.241   4.769   6.361  0.1803 -0.7990  0.6730
   48MOL    C6712381   5.385   4.933   6.365  0.0612 -0.0503 -0.7151
   48MOL    C6812382   5.348   5.036   6.256  0.1019  0.4436  0.3569
   48MOL    C6912383   5.361   5.022   6.121  0.5157 -0.9211  0.0264
   48MOL    C7012384   5.315   5.135   6.029 -0.7991 -0.1381  0.2438
   48MOL    C7112385   5.423   4.902   6.048  0.1695  0.4900  0.0963
   48MOL    H7212386   5.463   4.865   6.331  1.6274  1.7411 -0.7692
   48MOL    H7312387   5.439   4.988   6.441  0.0892 -2.0363  0.7393
   48MOL    H7412388   5.302   5.125   6.296  1.9348  0.6664  1.9754
   48MOL    H7512389   5.407   5.168   5.980 -0.0198  0.0215  1.7691
   48MOL    H7612390   5.274   5.213   6.094  0.6378  1.1347 -0.3466
   48MOL    H7712391   5.239   5.110   5.955 -3.1585  1.8431  1.9037
   48MOL    H7812392   5.456   4.826   6.118  0.2177 -0.4842 -0.9659
   48MOL    H7912393   5.515   4.937   6.002 -0.1336  0.7888 -0.2895
   48MOL    C8012394   5.323   4.829   5.949 -0.6083  0.1290 -0.1932
   48MOL    C8112395   5.219   4.743   6.022 -0.3437 -0.2811 -0.5876
   48MOL    C8212396   5.151   4.641   5.970  0.1419  0.1393  0.1186
   48MOL    C8312397   5.158   4.593   5.828  0.8571 -0.1904  0.8454
   48MOL    C8412398   5.061   4.552   6.054  0.4667  0.2603 -0.3208
   48MOL    H8512399   5.384   4.767   5.884 -0.0122 -0.3010  0.7532
   48MOL    H8612400   5.266   4.891   5.880 -0.3561  1.8388  1.0719
   48MOL    H8712401   5.208   4.774   6.125 -1.5938  1.8057 -1.3169
   48MOL    H8812402   5.178   4.487   5.815 -0.5370 -0.4461  0.7051
   48MOL    H8912403   5.235   4.644   5.771  1.1670 -0.7513  0.7636
   48MOL    H9012404   5.070   4.623   5.771  1.5564 -0.1745 -0.2171
   48MOL    H9112405   5.119   4.459   6.050  0.3623  0.2098 -0.7021
   48MOL    H9212406   4.972   4.547   5.991  0.0616  0.4806  0.2346
   48MOL    C9312407   5.025   4.601   6.194 -0.1881  0.5808 -0.7108
   48MOL    C9412408   4.908   4.534   6.256 -0.4225 -0.4360 -0.1812
   48MOL    C9512409   4.889   4.511   6.385 -0.6843 -0.3641  0.2084
   48MOL    C9612410   4.769   4.433   6.418 -0.1727 -0.2229 -0.6445
   48MOL    C9712411   4.988   4.531   6.499  0.0941  0.2835  0.1658
   48MOL    H9812412   5.011   4.708   6.206 -1.1751  0.3643  0.0675
   48MOL    H9912413   5.107   4.578   6.262 -0.9466 -1.4563 -0.4413
   48MOL   H10012414   4.825   4.502   6.194 -0.7207  0.7925 -0.4460
   48MOL   H10112415   4.798   4.333   6.386 -0.6402 -0.8928  0.9879
   48MOL   H10212416   4.736   4.433   6.522 -1.1979  0.8346 -0.9577
   48MOL   H10312417   4.684   4.463   6.357 -1.9722 -0.6185  1.5975
   48MOL   H10412418   4.938   4.588   6.579 -0.5871 -0.0934  0.0139
   48MOL   H10512419   5.065   4.600   6.466  0.3034 -0.2245 -0.4000
   48MOL   C10612420   5.044   4.408   6.559  0.1536  0.6753  0.5628
   48MOL   C10712421   5.138   4.437   6.676  0.4392  0.0544  0.1852
   48MOL   C10812422   5.264   4.396   6.683 -0.0235  0.3225  0.3004
   48MOL   C10912423   5.332   4.319   6.564 -0.5550  0.9717 -0.3236
   48MOL   C11012424   5.348   4.418   6.803 -0.8521  0.1450  0.1164
   48MOL   H11112425   5.095   4.343   6.489 -0.3970 -0.4501  1.1983
   48MOL   H11212426   4.962   4.345   6.592 -0.9214  2.6461  1.7487
   48MOL   H11312427   5.096   4.489   6.760 -2.2940  0.1359 -1.1847
   48MOL   H11412428   5.327   4.378   6.472 -1.9777  2.3330  0.6020
   48MOL   H11512429   5.440   4.325   6.577 -0.4339 -1.9612  0.4679
   48MOL   H11612430   5.303   4.214   6.555 -0.7702  0.7424  2.4758
   48MOL   H11712431   5.290   4.487   6.864 -0.8591  0.6736 -0.4856
   48MOL   H11812432   5.449   4.452   6.781 -1.9472  3.0434 -0.6238
   48MOL   C11912433   5.356   4.288   6.887  0.8004 -0.1283 -0.1800
   48MOL   C12012434   5.478   4.273   6.984 -0.0095  0.0764 -0.6445
   48MOL   C12112435   5.485   4.260   7.121  0.9361 -0.7879 -0.3287
   48MOL   C12212436   5.624   4.246   7.184 -0.5842  0.1090  0.1823
   48MOL   C12312437   5.366   4.298   7.207  0.2991  0.4197  0.6481
   48MOL   H12412438   5.367   4.210   6.812  2.4385 -1.1788  1.1058
   48MOL   H12512439   5.260   4.286   6.938  0.6409  2.4056 -0.3506
   48MOL   H12612440   5.570   4.269   6.927  0.5532 -0.8390  0.3110
   48MOL   H12712441   5.695   4.212   7.108  0.2450  0.0011  0.9956
   48MOL   H12812442   5.613   4.177   7.268  0.0882  0.1224  0.2912
   48MOL   H12912443   5.665   4.340   7.220  1.2337 -0.3941 -0.5136
   48MOL   H13012444   5.283   4.330   7.143  0.4160  0.9402  0.7526
   48MOL   H13112445   5.391   4.387   7.264 -2.3105 -0.1334  2.7204
   48MOL   C13212446   5.311   4.184   7.276  0.3419 -0.2891 -0.7975
   48MOL   C13312447   5.173   4.222   7.327  0.1698 -0.9752 -0.3784
   48MOL   C13412448   5.058   4.228   7.258 -0.0805 -0.3162 -0.0685
   48MOL   C13512449   4.920   4.264   7.318  0.1057 -0.8519 -0.6632
   48MOL   C13612450   5.038   4.184   7.113  0.2152  0.1056 -0.1076
   48MOL   H13712451   5.378   4.149   7.354  0.3620  1.7988  0.1557
   48MOL   H13812452   5.299   4.096   7.213  0.9095 -0.2924 -0.8992
   48MOL   H13912453   5.160   4.258   7.428 -0.3422 -0.6300 -0.5584
   48MOL   H14012454   4.853   4.189   7.277 -0.2481 -0.0717 -1.5203
   48MOL   H14112455   4.886   4.359   7.276  0.0008  0.3757  2.0515
   48MOL   H14212456   4.932   4.266   7.426  0.7092  0.8587 -0.7433
   48MOL   H14312457   4.959   4.109   7.122 -0.4865  0.7417 -0.9907
   48MOL   H14412458   5.124   4.132   7.071 -0.6959 -2.5037  1.1150
   48MOL   C14512459   4.990   4.293   7.016 -0.2017 -0.5998  0.5229
   48MOL   C14612460   4.933   4.226   6.891  1.4980  0.2574  0.1175
   48MOL   C14712461   4.810   4.248   6.827 -0.2130 -0.5819 -0.2720
   48MOL   C14812462   4.767   4.165   6.704  0.1267  0.0533  0.3795
   48MOL   C14912463   4.721   4.356   6.873  0.2264 -0.3871 -0.2752
   48MOL   H15012464   5.081   4.346   6.986 -0.6830 -0.1711 -0.1843
   48MOL   H15112465   4.925   4.372   7.052  0.9646 -0.3224  2.1030
   48MOL   H15212466   4.996   4.147   6.852  0.3157 -0.7306  0.1815
   48MOL   H15312467   4.792   4.223   6.615  2.1388  0.3951  1.1341
   48MOL   H15412468   4.659   4.153   6.702 -0.2588  3.1212 -4.1494
   48MOL   H15512469   4.810   4.065   6.702 -1.0428 -0.4626  0.9022
   48MOL   H15612470   4.706   4.354   6.981  0.5558 -1.4677 -0.2494
   48MOL   H15712471   4.624   4.352   6.825  1.1217 -2.8374 -1.9329
   48MOL   C15812472   4.780   4.497   6.830  0.3207 -0.1610 -0.0133
   48MOL   C15912473   4.682   4.607   6.870 -0.2373  0.0885  0.0735
   48MOL   C16012474   4.708   4.731   6.909  0.3425  0.0149 -0.3045
   48MOL   C16112475   4.842   4.793   6.923 -0.0583 -0.3487  0.3761
   48MOL   C16212476   4.595   4.823   6.947 -0.3826 -0.2086  0.4503
   48MOL   H16312477   4.804   4.510   6.725 -1.5092  1.8002 -0.2241
   48MOL   H16412478   4.875   4.520   6.879  0.8604 -1.3277 -0.5006
   48MOL   H16512479   4.579   4.575   6.859 -0.3088 -0.3451  1.7979
   48MOL   H16612480   4.847   4.881   6.859  1.2698 -1.0915 -0.5740
   48MOL   H16712481   4.923   4.722   6.904  1.2786  1.5589 -1.2771
   48MOL   H16812482   4.858   4.830   7.024  1.3751 -0.3181  0.1558
   48MOL   H16912483   4.513   4.786   6.885  0.4487 -1.7927  0.2676
   48MOL   H17012484   4.617   4.925   6.916  1.3982 -0.5316  0.5989
   48MOL   C17112485   4.555   4.806   7.095  0.1908 -0.6208  0.1903
   48MOL   C17212486   4.447   4.907   7.134  0.7834 -0.7816  0.3103
   48MOL   C17312487   4.445   5.003   7.228 -0.2964  0.3478 -0.2590
   48MOL   C17412488   4.557   5.036   7.328  0.2633 -0.3471  0.0018
   48MOL   C17512489   4.317   5.079   7.262  0.5866 -0.0249  0.1998
   48MOL   H17612490   4.638   4.821   7.164  0.5575  2.0400 -0.7679
   48MOL   H17712491   4.526   4.703   7.118  1.0199 -0.6219  1.2939
   48MOL   H17812492   4.355   4.896   7.080  1.3712 -1.3670 -0.5675
   48MOL   H17912493   4.556   5.144   7.346  2.5451 -0.4260  0.7796
   48MOL   H18012494   4.662   5.014   7.310  1.1851 -0.6969  5.0448
   48MOL   H18112495   4.541   4.987   7.424  0.6466  1.3118  0.9251
   48MOL   H18212496   4.234   5.045   7.200  1.3622 -2.9829  0.6985
   48MOL   H18312497   4.337   5.186   7.255  1.9903 -0.0419  3.2431
   48MOL   C18412498   4.271   5.058   7.403  0.1746 -0.3355  0.0575
   48MOL   C18512499   4.138   5.128   7.425  0.2842  0.6307  0.0732
   48MOL   C18612500   4.081   5.138   7.548 -0.2450  0.0235 -0.6253
   48MOL   C18712501   3.960   5.227   7.562  0.0084  0.2554  0.1908
   48MOL   C18812502   4.130   5.087   7.680 -0.5233  0.3255 -0.7275
   48MOL   H18912503   4.339   5.122   7.460 -1.1178  0.0265  1.2327
   48MOL   H19012504   4.268   4.952   7.428  1.9220 -0.5433 -0.5580
   48MOL   H19112505   4.090   5.174   7.340  0.9308  0.7978 -0.2100
   48MOL   H19212506   3.879   5.155   7.573 -0.7866  1.6263  3.6764
   48MOL   H19312507   3.947   5.276   7.465  0.8106 -1.2281 -0.6936
   48MOL   H19412508   3.953   5.302   7.641 -0.3054  1.3021 -0.8071
   48MOL   H19512509   4.162   5.164   7.750  0.0688 -0.9051  0.3759
   48MOL   H19612510   4.214   5.024   7.653  0.9112  2.4049 -1.2375
   48MOL   C19712511   4.037   4.986   7.751 -0.1694  0.2775  0.1843
   48MOL   C19812512   4.097   4.898   7.862 -0.1690 -0.2798 -0.5930
   48MOL   C19912513   4.124   4.771   7.855  0.4358 -0.1789  0.8772
   48MOL   C20012514   4.181   4.698   0.101  0.0192  0.3378 -0.1059
   48MOL   C20112515   4.095   4.684   7.733 -0.4320 -0.0050 -0.3526
   48MOL   H20212516   3.984   4.921   7.682  1.6589  0.0065 -1.0009
   48MOL   H20312517   3.955   5.045   7.793  1.1009  1.2066  1.4244
   48MOL   H20412518   4.126   4.952   0.072 -2.4012  0.9572 -0.5698
   48MOL   H20512519   4.187   4.748   0.198 -1.1263  0.3939 -0.0511
   48MOL   H20612520   4.286   4.675   0.082 -0.2204  0.9912 -2.3275
   48MOL   H20712521   4.135   4.602   0.127  1.1542  0.1727  1.3682
   48MOL   H20812522   4.165   4.600   7.726  1.5948  1.7259 -1.8949
   48MOL   H20912523   4.117   4.733   7.638 -3.0789 -1.2226 -1.6275
   48MOL   C21012524   3.944   4.649   7.732 -0.4202 -0.1223  0.3190
   48MOL   C21112525   3.918   4.511   7.673 -0.1960 -0.2054  0.4334
   48MOL   C21212526   3.845   4.408   7.724 -0.1078  1.1916 -0.3993
   48MOL   C21312527   3.839   4.277   7.650  0.1997  0.1320  0.2018
   48MOL   C21412528   3.768   4.429   7.852  0.0579 -0.0409  0.7388
   48MOL   H21512529   3.894   4.725   7.673 -1.0203 -2.2831 -2.0534
   48MOL   H21612530   3.911   4.659   7.835 -0.3312 -1.4115  0.4788
   48MOL   H21712531   3.963   4.495   7.576 -0.9196  1.4013 -0.2013
   48MOL   H21812532   3.735   4.253   7.631  0.5723 -1.8589  0.5805
   48MOL   H21912533   3.891   4.198   7.703  0.2976 -0.5210 -0.8386
   48MOL   H22012534   3.879   4.279   7.548 -2.3015  0.3914 -0.8234
   48MOL   H22112535   3.688   4.355   7.848  0.5848 -0.5453 -0.8020
   48MOL   H22212536   3.714   4.523   7.861 -2.9714 -1.7594  1.3419
   48MOL   C22312537   3.846   4.400   0.102  0.4653 -0.4389  0.0455
   48MOL   C22412538   3.769   4.401   0.229 -0.0974 -0.7230  0.3449
   48MOL   C22512539   3.752   4.301   0.313 -0.5155 -0.2388 -0.2679
   48MOL   C22612540   3.678   4.324   0.449 -0.5457 -0.0975 -0.3620
   48MOL   C22712541   3.805   4.163   0.301 -0.1418 -0.4394 -0.0878
   48MOL   H22812542   3.913   4.485   0.115 -2.0158  1.5733 -0.0384
   48MOL   H22912543   3.902   4.309   0.082  0.6839 -0.0646 -1.0791
   48MOL   H23012544   3.719   4.493   0.251  2.6053  1.3189 -1.7291
   48MOL   H23112545   3.592   4.257   0.444 -2.1416  1.9551 -1.3272
   48MOL   H23212546   3.646   4.428   0.457  0.4937  0.3598 -1.8333
   48MOL   H23312547   3.750   4.300   0.527 -0.2654  1.2854 -0.1693
   48MOL   H23412548   3.883   4.155   0.376 -0.3735  0.5059  0.2573
   48MOL   H23512549   3.862   4.143   0.211 -1.2896 -0.5644 -0.8030
   48MOL   C23612550   3.706   4.047   0.293 -0.0405 -1.1262 -0.1743
   48MOL   C23712551   3.771   3.913   0.281  0.5524 -0.9473 -0.6002
   48MOL   C23812552   3.777   3.834   0.166 -0.1077  0.5373 -0.6383
   48MOL   C23912553   3.875   3.710   0.159  0.7321  1.2115  0.4050
   48MOL   C24012554   3.703   3.859   0.039  0.5012  0.0801 -0.1895
   48MOL   H24112555   3.623   4.068   0.226 -0.4673 -0.5386  0.5272
   48MOL   H24212556   3.663   4.048   0.393  1.4312  0.6850  0.4750
   48MOL   H24312557   3.833   3.875   0.361  0.6183  2.7515  1.2463
   48MOL   H24412558   3.862   3.637   0.238 -1.6092  1.2006  0.0480
   48MOL   H24512559   3.981   3.734   0.149  1.7667 -2.7607  1.2770
   48MOL   H24612560   3.854   3.656   0.067  0.3788  0.3082  1.0123
   48MOL   H24712561   3.624   3.932   0.051 -0.7537 -0.9791 -1.7032
   48MOL   H24812562   3.653   3.767   0.007 -0.8534  0.8053 -0.1864
   48MOL   C24912563   3.792   3.907   7.804  0.5422  0.2730  0.4593
   48MOL   C25012564   3.723   3.921   7.670  0.1090 -0.3378 -0.3012
   48MOL   C25112565   3.759   3.862   7.555  0.1384  0.5292  0.7239
   48MOL   C25212566   3.687   3.886   7.426 -0.1109  0.4481  0.0604
   48MOL   C25312567   3.875   3.762   7.545  0.1836 -0.4838  0.1115
   48MOL   H25412568   3.895   3.871   7.790 -0.3508 -1.1399 -3.1581
   48MOL   H25512569   3.820   4.007   7.837 -0.8593 -0.0951  2.8469
   48MOL   H25612570   3.643   3.993   7.659 -0.3021 -0.4294  1.8535
   48MOL   H25712571   3.659   3.791   7.381  1.8869 -1.0238  1.8377
   48MOL   H25812572   3.755   3.930   7.353  0.5284 -1.0731 -0.2931
   48MOL   H25912573   3.599   3.949   7.422 -0.9096 -0.5157  1.9247
   48MOL   H26012574   3.863   3.676   7.611  2.4616  0.0899  1.3655
   48MOL   H26112575   3.964   3.817   7.578  0.7040 -1.3638  0.2093
   48MOL   H26212576   3.900   3.718   7.449  1.2838 -1.6831  0.9325
   49MOL     C112577   3.021   1.927   1.202 -0.0466 -0.0478  0.0719
   49MOL     C212578   3.160   1.987   1.174 -0.0729  0.0891  0.2758
   49MOL     C312579   3.282   1.917   1.157  0.3246  0.3156 -0.4540
   49MOL     C412580   3.409   1.987   1.101 -0.3322  0.2065 -0.4308
   49MOL     C512581   3.299   1.764   1.162  0.5091  0.4006 -0.9211
   49MOL     H612582   2.958   1.947   1.115 -1.0620 -1.7634  0.4058
   49MOL     H712583   3.030   1.819   1.208  1.2624 -0.0594 -1.6059
   49MOL     H812584   3.174   2.089   1.141  0.6492 -0.0616  0.1018
   49MOL     H912585   3.421   1.966   0.994 -0.0062  1.8835 -0.7306
   49MOL    H1012586   3.489   1.939   1.157  0.2543  2.7920  1.0309
   49MOL    H1112587   3.403   2.094   1.121  0.9608  0.1824  0.0746
   49MOL    H1212588   3.243   1.735   1.252  2.1992  0.6066  0.2310
   49MOL    H1312589   3.404   1.735   1.165  0.0894 -1.1166  1.0354
   49MOL    H1412590   2.968   1.960   1.292  1.4417 -0.2227  1.0240
   49MOL    C1512591   3.239   1.699   1.037  0.6069  0.0782 -0.0199
   49MOL    C1612592   3.208   1.549   1.035 -0.4661  0.2784  0.0268
   49MOL    C1712593   3.259   1.456   0.959 -0.4633 -0.3757  0.1943
   49MOL    C1812594   3.233   1.309   0.981 -0.0600 -0.5975 -0.2719
   49MOL    C1912595   3.340   1.479   0.831  0.2141 -0.1778 -0.2210
   49MOL    H2012596   3.303   1.714   0.950  0.0269 -3.5881 -1.1548
   49MOL    H2112597   3.142   1.748   1.026 -1.1804 -3.2098  0.4083
   49MOL    H2212598   3.151   1.512   1.119  1.4433  0.1430  1.3093
   49MOL    H2312599   3.201   1.265   0.887  1.5661  1.1311 -1.6808
   49MOL    H2412600   3.152   1.304   1.053 -1.3336  0.2201 -1.6161
   49MOL    H2512601   3.320   1.259   1.024 -0.5641 -0.9248  0.3785
   49MOL    H2612602   3.411   1.397   0.819 -2.2850 -2.2005 -1.8520
   49MOL    H2712603   3.399   1.570   0.841 -0.4779  0.2343  0.1887
   49MOL    C2812604   3.255   1.497   0.706 -0.2901  0.2894  0.1136
   49MOL    C2912605   3.329   1.551   0.585  0.6391 -0.0714 -0.4339
   49MOL    C3012606   3.313   1.673   0.527 -0.4307  0.9138  0.2200
   49MOL    C3112607   3.405   1.721   0.416 -0.6257  0.7731  0.1137
   49MOL    C3212608   3.223   1.784   0.580  0.1499  0.3539 -0.5725
   49MOL    H3312609   3.178   1.566   0.739 -0.9101 -1.3385  2.2395
   49MOL    H3412610   3.210   1.398   0.693 -1.9929  0.7877  1.9261
   49MOL    H3512611   3.393   1.478   0.537  0.4525 -0.3603 -0.2503
   49MOL    H3612612   3.469   1.798   0.458 -0.1355  0.4540 -0.0405
   49MOL    H3712613   3.363   1.774   0.330  0.5204  3.3884  1.1070
   49MOL    H3812614   3.479   1.652   0.376 -1.7992 -0.3611 -0.1374
   49MOL    H3912615   3.143   1.743   0.641  0.1581  0.6066 -0.3896
   49MOL    H4012616   3.165   1.842   0.508 -0.7131  1.5268  1.0452
   49MOL    C4112617   3.299   1.877   0.680 -0.4757 -0.3563  0.4565
   49MOL    C4212618   3.203   1.977   0.741  0.4295  0.3013 -0.1084
   49MOL    C4312619   3.233   2.103   0.775  0.6788 -0.1520 -0.0555
   49MOL    C4412620   3.118   2.191   0.837 -0.3975  0.4438 -0.6305
   49MOL    C4512621   3.368   2.170   0.757 -0.4902  0.0708  0.4632
   49MOL    H4612622   3.379   1.922   0.621 -2.0727  1.0358 -0.6768
   49MOL    H4712623   3.346   1.818   0.759  0.5140  0.4656  0.4995
   49MOL    H4812624   3.104   1.937   0.755 -0.4016  2.1140 -0.6940
   49MOL    H4912625   3.029   2.133   0.862 -0.3452  1.5785  2.4191
   49MOL    H5012626   3.089   2.265   0.762  1.2404  1.5427 -0.2212
   49MOL    H5112627   3.151   2.244   0.926  0.0028  1.2828 -1.2737
   49MOL    H5212628   3.449   2.106   0.721 -0.3938  0.9209 -0.8979
   49MOL    H5312629   3.406   2.202   0.854 -1.7937 -0.7515  1.2450
   49MOL    C5412630   3.378   2.285   0.659 -0.6013 -0.3393 -0.0320
   49MOL    C5512631   3.373   2.241   0.513  0.6979  0.7703 -0.3903
   49MOL    C5612632   3.478   2.214   0.434 -0.2637  0.0473  0.4042
   49MOL    C5712633   3.453   2.155   0.295  0.1255 -0.4828 -0.4767
   49MOL    C5812634   3.620   2.227   0.473  0.3815 -1.6089 -0.0268
   49MOL    H5912635   3.464   2.350   0.676 -0.6754 -0.2515  0.0130
   49MOL    H6012636   3.288   2.346   0.672 -1.6265 -1.7476 -0.3961
   49MOL    H6112637   3.278   2.205   0.478  0.0694  1.6599  0.3854
   49MOL    H6212638   3.464   2.047   0.301  0.0011 -0.4854 -0.2791
   49MOL    H6312639   3.526   2.204   0.230  1.1535 -0.7759  0.4563
   49MOL    H6412640   3.352   2.168   0.254 -0.0566 -2.7252 -0.7580
   49MOL    H6512641   3.638   2.289   0.561 -3.4211 -1.8813  1.0193
   49MOL    H6612642   3.678   2.270   0.391  0.2011 -1.6283 -0.1649
   49MOL    C6712643   3.684   2.085   0.482 -0.4166 -0.5534  0.0098
   49MOL    C6812644   3.836   2.089   0.498  0.0743  0.0434  0.0894
   49MOL    C6912645   3.928   2.000   0.450 -0.6712 -0.3363 -0.2000
   49MOL    C7012646   4.072   2.027   0.476  0.0442  0.1838 -0.0944
   49MOL    C7112647   3.896   1.867   0.375 -0.8716 -0.2324 -0.9127
   49MOL    H7212648   3.660   2.009   0.407 -0.0040  0.8640 -1.6033
   49MOL    H7312649   3.639   2.035   0.568 -0.3008 -1.7580 -0.6129
   49MOL    H7412650   3.869   2.170   0.561 -0.2137  0.8756 -0.8155
   49MOL    H7512651   4.116   1.960   0.550  0.8878  0.4473 -0.3469
   49MOL    H7612652   4.089   2.123   0.524 -0.0324  0.8562 -1.4024
   49MOL    H7712653   4.116   2.017   0.377  0.5653  0.2032  0.1325
   49MOL    H7812654   3.977   1.855   0.304  1.5722  2.7745  1.2458
   49MOL    H7912655   3.809   1.890   0.313 -1.6719 -1.2896 -0.1852
   49MOL    C8012656   3.884   1.745   0.464  0.4652 -0.0641  0.5916
   49MOL    C8112657   3.878   1.606   0.400 -0.6907  0.5917 -0.5819
   49MOL    C8212658   3.931   1.487   0.440 -0.8898 -0.5170  0.2694
   49MOL    C8312659   3.991   1.444   0.569 -0.7353  0.1197 -0.2066
   49MOL    C8412660   3.920   1.370   0.345 -0.5059 -0.7526 -0.0432
   49MOL    H8512661   3.807   1.761   0.539  0.0647  0.6253  0.0399
   49MOL    H8612662   3.975   1.733   0.523  1.0432  0.4894 -0.1650
   49MOL    H8712663   3.824   1.623   0.307  0.3262  0.4921 -1.1908
   49MOL    H8812664   3.992   1.532   0.633  1.3854 -1.0352  1.4327
   49MOL    H8912665   4.094   1.410   0.553 -0.3816  0.6724  0.8384
   49MOL    H9012666   3.935   1.364   0.617 -1.1349 -0.3559 -1.4491
   49MOL    H9112667   3.864   1.412   0.261 -0.0375  3.2484  1.5189
   49MOL    H9212668   3.847   1.308   0.395 -0.6324 -2.0961 -1.8434
   49MOL    C9312669   4.048   1.291   0.316 -0.0307 -0.3665  0.5606
   49MOL    C9412670   4.021   1.170   0.223  0.4665 -0.3413 -0.0740
   49MOL    C9512671   4.070   1.045   0.240  0.2209 -0.4897  0.0320
   49MOL    C9612672   4.014   0.943   0.140  0.4621  0.0739 -0.3174
   49MOL    C9712673   4.170   0.992   0.342  0.0488 -0.5749 -0.2150
   49MOL    H9812674   4.094   1.246   0.404 -0.4257 -1.5602  0.1600
   49MOL    H9912675   4.112   1.350   0.250 -0.1451 -1.8289 -0.8847
   49MOL   H10012676   3.957   1.195   0.140  0.9300  0.7328 -0.1193
   49MOL   H10112677   4.079   0.856   0.148  0.5574  0.2344  0.7096
   49MOL   H10212678   3.918   0.900   0.171  1.4443 -0.8158  1.5753
   49MOL   H10312679   4.009   0.974   0.035 -0.5155  0.2995 -0.2125
   49MOL   H10412680   4.217   1.073   0.398 -1.2784  1.1725 -1.5634
   49MOL   H10512681   4.249   0.926   0.306  0.0693 -1.0911  0.7393
   49MOL   C10612682   4.101   0.907   0.451  0.2790  0.1839  0.0875
   49MOL   C10712683   4.187   0.893   0.580  0.5372  0.0810  0.0031
   49MOL   C10812684   4.246   0.784   0.635  0.9734  0.3654 -0.4777
   49MOL   C10912685   4.203   0.647   0.583 -0.9804 -0.4608 -0.0892
   49MOL   C11012686   4.337   0.798   0.754  0.4901  0.5000  0.0967
   49MOL   H11112687   4.065   0.812   0.411 -0.9855 -0.4370  2.5606
   49MOL   H11212688   4.012   0.967   0.470 -1.5582 -2.1249 -0.9372
   49MOL   H11312689   4.211   0.987   0.627 -1.0021 -0.2932  1.6060
   49MOL   H11412690   4.184   0.584   0.670  1.9892 -1.8581 -0.3796
   49MOL   H11512691   4.131   0.637   0.502 -1.5856  2.7708  0.0123
   49MOL   H11612692   4.294   0.608   0.536 -1.4792 -0.9395 -0.6757
   49MOL   H11712693   4.363   0.904   0.755 -0.4422  0.7376  1.6522
   49MOL   H11812694   4.427   0.743   0.729 -1.1664 -1.5536 -1.4915
   49MOL   C11912695   4.267   0.756   0.886 -0.4460  0.3981 -0.0447
   49MOL   C12012696   4.362   0.782   1.004 -0.1681  0.3672 -0.1324
   49MOL   C12112697   4.376   0.700   1.110  0.0384 -0.4907 -0.9324
   49MOL   C12212698   4.467   0.743   1.223  0.4544  0.3281 -0.3476
   49MOL   C12312699   4.291   0.573   1.110 -0.5233  0.3221 -0.3304
   49MOL   H12412700   4.230   0.654   0.877  0.7637 -0.1309  0.9585
   49MOL   H12512701   4.173   0.808   0.904 -1.1427 -1.2006  0.9832
   49MOL   H12612702   4.409   0.878   1.018 -1.2246  0.6004  2.0834
   49MOL   H12712703   4.503   0.845   1.211  0.9230  0.1256 -0.6395
   49MOL   H12812704   4.542   0.666   1.242 -1.2981 -1.0713  1.1743
   49MOL   H12912705   4.399   0.755   1.308  0.6868 -0.0373 -0.1098
   49MOL   H13012706   4.190   0.593   1.074 -0.3763 -0.0654 -0.9682
   49MOL   H13112707   4.267   0.548   1.214 -0.6918  2.2068  0.1011
   49MOL   C13212708   4.362   0.458   1.041 -0.8786 -0.0112  0.4020
   49MOL   C13312709   4.290   0.330   1.055 -0.6222  0.3414  0.0380
   49MOL   C13412710   4.239   0.254   0.964  0.8069  0.5427 -0.2172
   49MOL   C13512711   4.186   0.121   1.001 -0.2313 -0.2848 -0.0701
   49MOL   C13612712   4.229   0.290   0.817  0.0535 -0.1613  0.6187
   49MOL   H13712713   4.461   0.438   1.080 -1.3270 -0.0012  1.5540
   49MOL   H13812714   4.386   0.475   0.936  3.0166 -1.9944  0.9034
   49MOL   H13912715   4.294   0.286   1.154 -0.2197  2.5396  1.0119
   49MOL   H14012716   4.161   0.103   1.105 -0.9201  1.5823  0.0923
   49MOL   H14112717   4.264   0.050   0.972  1.1350 -0.1801  3.1395
   49MOL   H14212718   4.095   0.089   0.950  0.3638 -2.1740  0.0052
   49MOL   H14312719   4.239   0.398   0.807 -2.5540 -0.0438 -1.1106
   49MOL   H14412720   4.127   0.273   0.783  0.5029  0.3465 -1.0450
   49MOL   C14512721   4.322   0.207   0.727 -0.2221  0.4576  0.2229
   49MOL   C14612722   4.304   0.235   0.580 -0.5114  0.1909 -0.3718
   49MOL   C14712723   4.390   0.293   0.495 -0.1426 -0.1505 -0.1286
   49MOL   C14812724   4.359   0.322   0.352 -0.1072  0.8179 -0.4421
   49MOL   C14912725   4.535   0.338   0.526  0.4111 -0.9985 -0.4108
   49MOL   H15012726   4.302   0.100   0.725 -0.4178  0.5097 -1.6367
   49MOL   H15112727   4.426   0.216   0.759 -0.4958 -1.6281  1.7193
   49MOL   H15212728   4.209   0.216   0.531 -0.7141  0.9892 -0.2968
   49MOL   H15312729   4.430   0.267   0.291 -1.1621  0.4987 -1.4073
   49MOL   H15412730   4.352   0.429   0.334 -0.9227  0.8959  0.3334
   49MOL   H15512731   4.261   0.286   0.321  0.0114  0.2470 -0.1663
   49MOL   H15612732   4.592   0.330   0.434  0.3708 -0.8364 -0.4509
   49MOL   H15712733   4.582   0.257   0.582 -0.2553 -1.4472 -0.4929
   49MOL   C15812734   4.553   0.476   0.595 -0.6617  0.6046  0.5422
   49MOL   C15912735   4.696   0.508   0.623  1.0166  0.6502 -0.2403
   49MOL   C16012736   4.751   0.545   0.740 -0.5949 -0.3553  0.0214
   49MOL   C16112737   4.671   0.560   0.869 -0.0693  0.0818  0.1449
   49MOL   C16212738   4.902   0.559   0.754  0.0610  0.1419  0.7357
   49MOL   H16312739   4.489   0.479   0.683  1.2578  1.5544  1.9416
   49MOL   H16412740   4.520   0.555   0.528  1.2151  1.4818  0.6216
   49MOL   H16512741   4.754   0.504   0.532 -1.0325 -0.2129 -1.5576
   49MOL   H16612742   4.709   0.637   0.937  2.0509 -0.2942 -0.5979
   49MOL   H16712743   4.677   0.470   0.930 -0.4688  0.0031  0.0679
   49MOL   H16812744   4.566   0.579   0.846  0.0021 -0.9113 -1.0185
   49MOL   H16912745   4.921   0.652   0.808  0.1451  0.2898  0.4536
   49MOL   H17012746   4.939   0.561   0.651 -1.5329  2.2271  0.1508
   49MOL   C17112747   4.974   0.447   0.827 -0.2851  0.4860 -0.1830
   49MOL   C17212748   4.973   0.315   0.743  0.3331 -0.4494  0.0739
   49MOL   C17312749   4.912   0.197   0.778 -0.2228 -0.1987 -0.0419
   49MOL   C17412750   4.837   0.179   0.909  0.3330 -0.3775 -0.1548
   49MOL   C17512751   4.914   0.076   0.684  0.2443 -0.3186 -0.0165
   49MOL   H17612752   4.935   0.438   0.928 -1.0917 -0.0751 -0.5320
   49MOL   H17712753   5.078   0.476   0.843 -0.0054 -1.2432  1.3106
   49MOL   H17812754   5.017   0.321   0.645  1.2709 -0.9805  0.4649
   49MOL   H17912755   4.881   0.110   0.981 -1.2599 -1.0955  0.1599
   49MOL   H18012756   4.736   0.161   0.872  0.5123  0.1404 -0.9137
   49MOL   H18112757   4.809   0.275   0.953 -0.4491 -0.2333 -0.9577
   49MOL   H18212758   4.951   0.107   0.587 -1.7619  0.6077 -0.4984
   49MOL   H18312759   4.816   0.031   0.673  0.6693 -1.6203  1.2786
   49MOL   C18412760   5.012   7.841   0.741  1.2581 -0.9190  0.0066
   49MOL   C18512761   5.025   7.730   0.643  0.1511  0.3603 -0.3944
   49MOL   C18612762   4.972   7.608   0.650 -0.4140  0.0560 -0.1811
   49MOL   C18712763   5.009   7.509   0.542  0.4941  0.4952  0.4976
   49MOL   C18812764   4.900   7.553   0.770  0.7223  0.0959  0.5038
   49MOL   H18912765   4.976   7.788   0.829  0.6076 -1.7022 -0.7266
   49MOL   H19012766   5.108   0.002   0.774  0.5940  1.1005 -0.3839
   49MOL   H19112767   5.083   7.765   0.559  1.0694 -0.7023 -0.2143
   49MOL   H19212768   5.093   7.453   0.584 -1.3521 -1.2926  1.9079
   49MOL   H19312769   5.022   7.564   0.449  2.6434 -0.0949  0.4222
   49MOL   H19412770   4.922   7.449   0.516 -0.1884  1.4584  0.5256
   49MOL   H19512771   4.810   7.507   0.730  0.5703  0.4551  0.4396
   49MOL   H19612772   4.857   7.627   0.837  0.0772 -0.6468  0.9174
   49MOL   C19712773   4.983   7.454   0.852 -0.2703  0.1241  0.1517
   49MOL   C19812774   4.892   7.389   0.953  0.1568 -0.1282 -0.4124
   49MOL   C19912775   4.872   7.434   1.080  0.0017  0.0659 -0.1573
   49MOL   C20012776   4.771   7.370   1.174  0.3682  0.7658 -0.1423
   49MOL   C20112777   4.932   7.549   1.132 -0.4848 -0.0748  0.1655
   49MOL   H20212778   5.064   7.515   0.893 -0.8749  0.2683  1.1521
   49MOL   H20312779   5.047   7.387   0.795  1.4635  1.5784  0.3450
   49MOL   H20412780   4.843   7.297   0.923  0.7142 -0.0732 -1.5131
   49MOL   H20512781   4.819   7.378   1.271  0.9680  0.2956 -0.3983
   49MOL   H20612782   4.742   7.272   1.137 -2.5827  1.7502 -0.5871
   49MOL   H20712783   4.679   7.428   1.184 -0.3856 -0.6664  1.5142
   49MOL   H20812784   4.865   7.593   1.206  0.1387  1.2119 -0.0103
   49MOL   H20912785   4.948   7.619   1.050 -0.5045 -0.3731 -0.0906
   49MOL   C21012786   5.072   7.518   1.188  0.4954  0.1727 -0.2288
   49MOL   C21112787   5.142   7.642   1.241 -0.4776 -0.1085 -0.0212
   49MOL   C21212788   5.208   7.655   1.360 -1.3056  0.4372 -0.1519
   49MOL   C21312789   5.294   7.779   1.389 -0.7158 -0.0632 -0.1290
   49MOL   C21412790   5.229   7.543   1.454  0.2810 -0.3149 -0.3927
   49MOL   H21512791   5.124   7.472   1.104 -0.2303  1.7844 -1.5848
   49MOL   H21612792   5.062   7.442   1.266  1.6084 -1.1868 -1.3762
   49MOL   H21712793   5.144   7.725   1.172  0.0916 -0.9841 -1.0838
   49MOL   H21812794   5.380   7.767   1.323 -0.0087  1.3980  0.5187
   49MOL   H21912795   5.334   7.773   1.490  0.0360  2.0791 -0.2872
   49MOL   H22012796   5.237   7.871   1.375 -0.0568  0.4432  0.4851
   49MOL   H22112797   5.142   7.477   1.458  0.2148 -0.1554  0.9455
   49MOL   H22212798   5.229   7.580   1.556  1.2656 -0.8867 -0.1728
   49MOL   C22312799   5.358   7.459   1.441  1.0089 -0.7045 -0.1104
   49MOL   C22412800   5.363   7.342   1.547 -0.0571  0.2139 -0.0034
   49MOL   C22512801   5.395   7.216   1.535 -0.2707  0.0477 -0.1084
   49MOL   C22612802   5.381   7.120   1.654  0.0024 -0.1658  0.1894
   49MOL   C22712803   5.465   7.168   1.417 -0.6777 -0.1566  0.2767
   49MOL   H22812804   5.447   7.520   1.431  0.9031 -0.6609 -0.7892
   49MOL   H22912805   5.359   7.415   1.342 -0.2577  0.7747 -0.8069
   49MOL   H23012806   5.326   7.366   1.646 -4.5712  0.6129 -1.6765
   49MOL   H23112807   5.368   7.174   1.748 -0.0815 -2.2495  1.4319
   49MOL   H23212808   5.465   7.050   1.662 -0.4631 -0.6664  0.7914
   49MOL   H23312809   5.291   7.061   1.636 -1.7514  1.8381  2.1254
   49MOL   H23412810   5.560   7.131   1.456 -0.3962  0.4595  0.1864
   49MOL   H23512811   5.485   7.243   1.341 -1.6308 -0.9488 -0.7609
   49MOL   C23612812   5.394   7.052   1.344  0.4198  0.2253  0.3701
   49MOL   C23712813   5.261   7.084   1.293 -0.4273 -0.5461  0.4388
   49MOL   C23812814   5.216   7.106   1.167  0.4367  0.0485 -0.1990
   49MOL   C23912815   5.072   7.159   1.141 -0.1487 -0.3406 -0.0766
   49MOL   C24012816   5.294   7.093   1.041  0.1728 -0.7680  0.9832
   49MOL   H24112817   5.388   6.959   1.401  0.5760  0.4845  0.8058
   49MOL   H24212818   5.453   7.016   1.260 -0.1434  0.6749 -0.2219
   49MOL   H24312819   5.193   7.111   1.373  0.3024 -0.1094  0.9117
   49MOL   H24412820   5.004   7.136   1.223 -0.4357  1.6938  0.2944
   49MOL   H24512821   5.033   7.112   1.051 -0.2006 -0.1360 -0.1622
   49MOL   H24612822   5.074   7.265   1.114 -1.8664 -0.0353  0.9362
   49MOL   H24712823   5.242   7.029   0.969 -0.4623  2.1294 -1.2057
   49MOL   H24812824   5.388   7.046   1.070  0.6515 -0.8834 -0.7181
   49MOL   C24912825   5.317   7.226   0.979  0.2392 -0.8958  0.1776
   49MOL   C25012826   5.385   7.219   0.842  0.2127  0.1964 -0.5001
   49MOL   C25112827   5.418   7.330   0.771  0.0166 -0.4316 -0.6143
   49MOL   C25212828   5.496   7.321   0.646 -0.3558 -0.5349  0.3232
   49MOL   C25312829   5.378   7.474   0.803 -1.0127  0.1922 -0.0807
   49MOL   H25412830   5.386   7.269   1.052  0.6413  0.5684 -1.0275
   49MOL   H25512831   5.242   7.305   0.977  0.9035 -0.2428  0.9513
   49MOL   H25612832   5.400   7.117   0.809 -2.0579 -1.0578  2.1510
   49MOL   H25712833   5.494   7.218   0.611  0.4533 -0.3283 -0.3454
   49MOL   H25812834   5.594   7.356   0.678  0.4665 -0.3874 -2.2642
   49MOL   H25912835   5.447   7.384   0.572 -0.6978 -0.3652  0.6869
   49MOL   H26012836   5.337   7.517   0.712  2.6360  2.0038 -0.9807
   49MOL   H26112837   5.471   7.524   0.831 -1.4584 -0.5399  2.8538
   49MOL   H26212838   5.311   7.483   0.888  1.6119  1.1828  1.9555
   50MOL     C112839   0.608   6.837   0.771  0.3788  0.2062  0.6364
   50MOL     C212840   0.748   6.836   0.723 -0.1046  0.0195  1.2336
   50MOL     C312841   0.846   6.748   0.760 -0.4248  0.0416 -0.7331
   50MOL     C412842   0.987   6.768   0.717 -0.5452 -0.2197  0.7922
   50MOL     C512843   0.827   6.619   0.846 -0.0363  0.4091  0.0868
   50MOL     H612844   0.585   6.745   0.825  3.1830 -0.8774  0.0574
   50MOL     H712845   0.597   6.917   0.845  0.8632  2.3589 -1.5672
   50MOL     H812846   0.777   6.921   0.663 -2.1538  0.4602  0.8185
   50MOL     H912847   1.041   6.772   0.812  0.2252 -2.1534  0.4571
   50MOL    H1012848   1.009   6.849   0.648 -1.0760 -0.9932 -0.2850
   50MOL    H1112849   1.022   6.680   0.664  0.7220  1.2491 -0.8602
   50MOL    H1212850   0.877   6.531   0.806 -0.1553  0.6244 -0.5493
   50MOL    H1312851   0.722   6.601   0.871 -0.0534 -1.1453 -1.0089
   50MOL    H1412852   0.537   6.845   0.689 -0.2811  2.1804  1.3685
   50MOL    C1512853   0.871   6.639   0.992 -0.5081 -0.1275 -0.0966
   50MOL    C1612854   0.780   6.746   1.054 -0.1615  0.1998  1.3740
   50MOL    C1712855   0.686   6.746   1.152  0.5969  0.2516  0.1307
   50MOL    C1812856   0.603   6.871   1.193  0.3995 -0.6216  0.3561
   50MOL    C1912857   0.650   6.617   1.230  0.4002  0.4586 -0.1007
   50MOL    H2012858   0.974   6.669   1.011 -0.7048 -0.5022  1.6685
   50MOL    H2112859   0.849   6.544   1.041 -1.1530 -0.4933 -1.0876
   50MOL    H2212860   0.785   6.840   1.002 -0.0720 -0.9811 -0.7740
   50MOL    H2312861   0.620   6.895   1.298 -1.7401 -0.3085  0.6400
   50MOL    H2412862   0.496   6.854   1.184  0.3361  0.3704 -0.7680
   50MOL    H2512863   0.630   6.964   1.144 -1.0395  0.0656  0.8433
   50MOL    H2612864   0.693   6.531   1.178  1.6970  2.7469 -2.9429
   50MOL    H2712865   0.542   6.604   1.218  0.6162 -1.4429 -0.2085
   50MOL    C2812866   0.698   6.615   1.379 -0.3011 -0.3028 -0.5035
   50MOL    C2912867   0.669   6.487   1.461  0.4955  0.7618  0.3460
   50MOL    C3012868   0.562   6.451   1.532 -0.0420  0.0289  0.2895
   50MOL    C3112869   0.566   6.306   1.590 -0.6279  0.1604 -0.2221
   50MOL    C3212870   0.446   6.542   1.563 -0.2297  0.0590 -0.5446
   50MOL    H3312871   0.655   6.691   1.444 -1.4298  1.3142 -3.0269
   50MOL    H3412872   0.803   6.641   1.392  0.4173 -4.0391  1.5994
   50MOL    H3512873   0.746   6.413   1.444  0.8505  1.2775 -0.3425
   50MOL    H3612874   0.654   6.244   1.573 -0.7488 -0.4800  1.3678
   50MOL    H3712875   0.480   6.251   1.554  0.0115  0.2734 -1.9411
   50MOL    H3812876   0.554   6.305   1.698 -4.0388  1.0316 -0.5607
   50MOL    H3912877   0.364   6.479   1.599 -0.3230 -1.8612 -3.9550
   50MOL    H4012878   0.421   6.595   1.472  0.2182 -1.3088 -1.4704
   50MOL    C4112879   0.473   6.635   1.687 -0.2543  0.4309  0.2409
   50MOL    C4212880   0.518   6.556   1.807  0.6956  0.5161 -0.1707
   50MOL    C4312881   0.466   6.556   1.934  0.3230  0.2268 -0.9243
   50MOL    C4412882   0.534   6.472   2.041 -0.6202  0.0282 -0.3342
   50MOL    C4512883   0.334   6.630   1.962  0.2833 -0.4177 -0.8456
   50MOL    H4612884   0.385   6.698   1.699 -0.9857 -0.4039 -0.6401
   50MOL    H4712885   0.548   6.710   1.662 -0.9869  1.0215 -0.2034
   50MOL    H4812886   0.604   6.493   1.790  1.1423  0.9448  0.4668
   50MOL    H4912887   0.628   6.431   2.005 -0.4852  0.4682 -0.4815
   50MOL    H5012888   0.480   6.380   2.063  0.3196 -0.6047 -0.6326
   50MOL    H5112889   0.555   6.534   2.127  0.4608 -1.0808  0.2240
   50MOL    H5212890   0.302   6.707   1.893  1.7008  0.3194 -0.6864
   50MOL    H5312891   0.353   6.694   2.048  0.0361  0.9894 -1.8172
   50MOL    C5412892   0.222   6.538   1.992 -0.0740 -0.1082 -0.0239
   50MOL    C5512893   0.101   6.607   2.059 -0.5993 -0.5640  0.5967
   50MOL    C5612894   7.853   6.615   2.013  0.2190 -0.7097 -0.0085
   50MOL    C5712895   7.749   6.693   2.085 -0.2113 -0.0462 -0.0233
   50MOL    C5812896   7.803   6.563   1.881 -0.3978  0.5384 -0.2144
   50MOL    H5912897   0.260   6.463   2.062  0.8189  1.2540  0.9922
   50MOL    H6012898   0.198   6.487   1.899  1.4620 -1.3524  0.2258
   50MOL    H6112899   0.121   6.646   2.158 -0.5495 -0.5461  0.5795
   50MOL    H6212900   7.713   6.779   2.030  2.8228  0.2729 -1.6216
   50MOL    H6312901   7.780   6.712   2.188 -1.4210 -1.7593  0.6784
   50MOL    H6412902   7.659   6.633   2.100 -0.4808  0.7291  1.5112
   50MOL    H6512903   0.004   6.521   1.821 -0.8444 -1.2617  0.4229
   50MOL    H6612904   7.779   6.649   1.818 -2.8385 -0.1096 -0.2314
   50MOL    C6712905   7.689   6.457   1.885 -0.7003  0.3976  0.3182
   50MOL    C6812906   7.644   6.398   1.748 -0.2076  0.1036  0.4821
   50MOL    C6912907   7.525   6.370   1.693 -0.0862 -0.6197 -0.3418
   50MOL    C7012908   7.514   6.325   1.548  0.4860  0.4686  0.2226
   50MOL    C7112909   7.396   6.387   1.777 -0.4335  0.5235  0.0007
   50MOL    H7212910   7.608   6.500   1.944 -0.0434  0.4664  1.1816
   50MOL    H7312911   7.722   6.374   1.948  1.4527  1.2723  0.4008
   50MOL    H7412912   7.728   6.378   1.683 -1.3939  1.8121 -1.6165
   50MOL    H7512913   7.481   6.221   1.545  1.2575  0.2050  0.8923
   50MOL    H7612914   7.608   6.348   1.498  0.4127  0.4073  0.0539
   50MOL    H7712915   7.431   6.379   1.501 -0.2560  1.1809  2.3306
   50MOL    H7812916   7.434   6.386   1.879  0.8664 -0.5640 -0.4893
   50MOL    H7912917   7.341   6.294   1.765 -0.4997  0.6411 -0.5881
   50MOL    C8012918   7.332   6.524   1.742  0.5523  0.4919 -0.2805
   50MOL    C8112919   7.194   6.540   1.816 -0.7224  0.3648  0.3022
   50MOL    C8212920   7.066   6.531   1.771  0.1656 -0.0978 -0.1226
   50MOL    C8312921   7.039   6.464   1.639  0.4711  0.2454 -0.8049
   50MOL    C8412922   6.944   6.562   1.856  0.0728 -0.3578 -0.0113
   50MOL    H8512923   7.321   6.541   1.635 -0.4279  1.0476 -0.0959
   50MOL    H8612924   7.385   6.610   1.784 -0.2145  1.2219 -0.7792
   50MOL    H8712925   7.217   6.564   1.919 -0.8358 -1.5038  0.7778
   50MOL    H8812926   7.056   6.357   1.649  1.7808  0.3510 -1.8607
   50MOL    H8912927   7.113   6.501   1.568  0.4050  0.1294 -0.9344
   50MOL    H9012928   6.936   6.485   1.611 -0.4014 -2.0079  0.5561
   50MOL    H9112929   6.973   6.583   1.959  2.8238 -1.4376 -0.5202
   50MOL    H9212930   6.886   6.470   1.864 -3.8334  2.1624  2.5239
   50MOL    C9312931   6.856   6.668   1.788 -0.2438 -0.6186  0.5893
   50MOL    C9412932   6.752   6.720   1.885 -0.5493 -0.0423 -0.3667
   50MOL    C9512933   6.644   6.795   1.857 -0.5193  0.7048  0.2616
   50MOL    C9612934   6.538   6.822   1.966  0.6317  0.0712 -0.6298
   50MOL    C9712935   6.605   6.838   1.721 -0.9362 -0.1140 -0.3901
   50MOL    H9812936   6.804   6.639   1.696  3.0515  2.3639 -2.3450
   50MOL    H9912937   6.905   6.764   1.772  3.0744 -2.3293  0.1465
   50MOL   H10012938   6.769   6.694   1.988 -0.4385  1.5959  0.0463
   50MOL   H10112939   6.465   6.742   1.971 -0.5523  1.0923 -1.4720
   50MOL   H10212940   6.585   6.834   2.064  0.3629 -1.2108 -0.3280
   50MOL   H10312941   6.481   6.909   1.935 -1.1827 -0.7678  0.3216
   50MOL   H10412942   6.681   6.817   1.645  0.4354 -0.4419  1.0361
   50MOL   H10512943   6.594   6.946   1.720  1.8851  0.2434  1.2444
   50MOL   C10612944   6.470   6.774   1.683 -0.2542  0.3722 -0.4698
   50MOL   C10712945   6.432   6.812   1.536  0.6989  0.1615 -0.0901
   50MOL   C10812946   6.404   6.720   1.434  0.7891 -0.7218 -0.2214
   50MOL   C10912947   6.373   6.574   1.454 -0.3413  0.0447 -0.3459
   50MOL   C11012948   6.360   6.770   1.297 -0.5898  0.7298 -0.3272
   50MOL   H11112949   6.396   6.819   1.749  0.0212  0.2717 -0.0971
   50MOL   H11212950   6.463   6.667   1.702 -3.5462  0.4270 -0.9754
   50MOL   H11312951   6.415   6.916   1.516  2.9205  0.4426 -0.6968
   50MOL   H11412952   6.267   6.564   1.479 -0.5462  0.8090 -0.9156
   50MOL   H11512953   6.396   6.522   1.361 -0.4012  1.7199 -1.3171
   50MOL   H11612954   6.426   6.525   1.536 -0.0126 -0.5628 -0.9188
   50MOL   H11712955   6.369   6.693   1.220 -3.4453  0.3773 -0.3441
   50MOL   H11812956   6.416   6.860   1.274 -2.3170  2.5866  2.5069
   50MOL   C11912957   6.213   6.812   1.300 -0.3849  0.2575  0.1433
   50MOL   C12012958   6.167   6.867   1.161 -0.1087  0.8971  0.0767
   50MOL   C12112959   6.084   6.814   1.069 -0.1273 -0.4691  0.1644
   50MOL   C12212960   6.052   6.877   0.933 -0.2141 -0.1837 -0.3773
   50MOL   C12312961   6.015   6.681   1.094  0.2597 -0.4352  0.2342
   50MOL   H12412962   6.203   6.905   1.356  2.4402 -0.1153  1.3103
   50MOL   H12512963   6.157   6.735   1.354 -1.0748  1.0646  0.5901
   50MOL   H12612964   6.210   6.958   1.122 -0.2028  1.0485  0.3308
   50MOL   H12712965   5.952   6.852   0.898  0.0607  0.9386 -1.9921
   50MOL   H12812966   6.114   6.834   0.855 -0.8168 -0.4274 -0.7254
   50MOL   H12912967   6.047   6.986   0.934 -0.5903 -0.2036  0.9785
   50MOL   H13012968   5.906   6.686   1.089  0.2982 -0.5106 -0.8139
   50MOL   H13112969   6.032   6.651   1.197 -1.2264 -1.7191  0.1138
   50MOL   C13212970   6.049   6.579   0.985  0.4671  0.8418 -0.0274
   50MOL   C13312971   6.184   6.516   1.003  0.0904  0.0699 -1.1799
   50MOL   C13412972   6.224   6.410   1.082 -0.2292 -0.3384  0.4185
   50MOL   C13512973   6.369   6.365   1.082  0.6243 -0.3630 -0.3955
   50MOL   C13612974   6.123   6.335   1.170  0.6078 -0.0019  0.3940
   50MOL   H13712975   6.027   6.609   0.883 -0.5887 -0.5879 -0.2459
   50MOL   H13812976   5.974   6.501   0.999  0.9237  0.2630 -0.7764
   50MOL   H13912977   6.257   6.566   0.941 -0.6976  0.0912 -2.1091
   50MOL   H14012978   6.417   6.383   0.985  1.9702  1.3424  0.5621
   50MOL   H14112979   6.356   6.257   1.086 -2.6079  0.0243  0.2397
   50MOL   H14212980   6.430   6.397   1.166 -0.1494  0.5567 -0.1739
   50MOL   H14312981   6.132   6.226   1.165 -0.3580 -0.0239 -1.2480
   50MOL   H14412982   6.021   6.354   1.137  0.3603  1.0671  1.7439
   50MOL   C14512983   6.136   6.375   1.313  0.0366  0.1438  0.1781
   50MOL   C14612984   6.071   6.273   1.416 -0.5047 -0.2939  0.0561
   50MOL   C14712985   6.128   6.191   1.512 -0.3574  0.7186  0.3561
   50MOL   C14812986   6.046   6.092   1.599  0.5324 -0.2255  0.4905
   50MOL   C14912987   6.277   6.179   1.535 -0.0571  0.6399  0.3225
   50MOL   H15012988   6.101   6.477   1.327  1.4260  0.8231 -1.1699
   50MOL   H15112989   6.243   6.378   1.331 -0.0512 -1.4333  1.0879
   50MOL   H15212990   5.968   6.249   1.395 -1.5247  4.4668 -1.1529
   50MOL   H15312991   6.089   5.993   1.587  1.3975  0.0817  0.9488
   50MOL   H15412992   5.945   6.078   1.560 -0.2174 -0.4216  2.4644
   50MOL   H15512993   6.041   6.117   1.705  0.0226 -1.8138  0.8539
   50MOL   H15612994   6.323   6.222   1.445  0.3697 -2.5002 -1.0206
   50MOL   H15712995   6.307   6.075   1.532 -2.3006 -0.0110 -3.2875
   50MOL   C15812996   6.320   6.231   1.676 -0.2170 -0.5191  0.0982
   50MOL   C15912997   6.476   6.240   1.694  0.0930  0.0961 -0.4285
   50MOL   C16012998   6.554   6.151   1.755  0.5823 -0.3708 -0.1984
   50MOL   C16112999   6.502   6.024   1.817  0.3668  0.5035  0.7141
   50MOL   C16213000   6.709   6.168   1.762 -0.3544  1.1453 -0.1407
   50MOL   H16313001   6.269   6.176   1.755  1.0462 -2.7441 -0.5826
   50MOL   H16413002   6.287   6.335   1.685  0.6550 -0.2964  0.8490
   50MOL   H16513003   6.526   6.325   1.651  1.2581  0.0641  0.8594
   50MOL   H16613004   6.500   6.036   1.925 -2.7731 -0.4209  0.7851
   50MOL   H16713005   6.558   5.933   1.795 -2.0947 -1.8948  3.8293
   50MOL   H16813006   6.397   6.002   1.799  1.3083 -1.8105 -2.4556
   50MOL   H16913007   6.740   6.248   1.695  0.0735  0.2681 -1.0178
   50MOL   H17013008   6.767   6.086   1.719  0.7831  1.5005  0.6738
   50MOL   C17113009   6.772   6.201   1.900 -0.5007  0.1437 -0.3362
   50MOL   C17213010   6.714   6.320   1.984 -0.2902  0.6604  0.0108
   50MOL   C17313011   6.739   6.344   2.112  0.3413  0.1862  0.3217
   50MOL   C17413012   6.830   6.269   2.194  0.7582 -0.4449  0.5112
   50MOL   C17513013   6.676   6.466   2.185 -0.4776 -0.5759  0.1503
   50MOL   H17613014   6.878   6.222   1.887 -0.2044 -0.8204  0.3925
   50MOL   H17713015   6.769   6.115   1.968  0.8492 -0.3552 -0.9063
   50MOL   H17813016   6.653   6.383   1.921 -0.2453  0.2936 -0.3991
   50MOL   H17913017   6.846   6.169   2.153 -3.8842 -0.0884 -2.5289
   50MOL   H18013018   6.798   6.244   2.295  2.1960 -0.5770  0.9457
   50MOL   H18113019   6.928   6.317   2.195  1.5449 -1.9757 -0.8965
   50MOL   H18213020   6.606   6.434   2.263 -0.1811  0.6378  0.9157
   50MOL   H18313021   6.624   6.526   2.110 -0.0771  3.1051  2.7135
   50MOL   C18413022   6.790   6.551   2.246 -0.2873  0.7874 -0.1454
   50MOL   C18513023   6.747   6.682   2.309  0.0862  0.1448 -0.8669
   50MOL   C18613024   6.776   6.732   2.429 -0.3947  0.3005  0.8247
   50MOL   C18713025   6.727   6.865   2.476  0.1354 -0.2287  0.1489
   50MOL   C18813026   6.856   6.646   2.523 -0.0705 -0.9547  0.2471
   50MOL   H18913027   6.873   6.563   2.176  0.6270 -1.7773  0.4501
   50MOL   H19013028   6.839   6.485   2.318 -0.7430 -1.0567 -1.5094
   50MOL   H19113029   6.701   6.754   2.243  0.2350  0.3629 -0.7336
   50MOL   H19213030   6.680   6.864   2.575  1.7840 -4.2061  0.9967
   50MOL   H19313031   6.638   6.887   2.416 -1.4755  3.1087  3.5776
   50MOL   H19413032   6.802   6.943   2.466 -1.0807  1.2051  1.7805
   50MOL   H19513033   6.823   6.542   2.520  0.0921 -1.0197  0.5556
   50MOL   H19613034   6.840   6.675   2.627 -0.1955  0.7516 -0.2381
   50MOL   C19713035   7.002   6.670   2.500 -0.3671  0.7144 -0.2544
   50MOL   C19813036   7.084   6.593   2.598  0.6100 -0.3622 -0.4027
   50MOL   C19913037   7.146   6.475   2.573 -0.2439  0.0077 -0.5047
   50MOL   C20013038   7.228   6.410   2.692 -0.9641 -0.1114  0.3857
   50MOL   C20113039   7.165   6.406   2.439  0.2331 -0.6373 -0.6451
   50MOL   H20213040   7.033   6.775   2.508  2.5171 -0.2457  2.0371
   50MOL   H20313041   7.031   6.652   2.396 -2.8843  2.0889 -1.2666
   50MOL   H20413042   7.090   6.622   2.701  0.6353  1.8270 -1.0117
   50MOL   H20513043   7.178   6.450   2.780 -1.2165  0.6941 -0.1108
   50MOL   H20613044   7.333   6.441   2.692 -0.3316 -2.0869 -1.7475
   50MOL   H20713045   7.203   6.304   2.693  0.8962 -0.5851 -0.6473
   50MOL   H20813046   7.088   6.440   2.369  0.0903  1.0677  0.2954
   50MOL   H20913047   7.151   6.304   2.473 -1.5000 -0.9110 -2.1220
   50MOL   C21013048   7.301   6.429   2.384  0.2039  0.2756  0.1682
   50MOL   C21113049   7.343   6.325   2.285 -1.0147 -1.2167  0.0637
   50MOL   C21213050   7.460   6.256   2.267  0.3893 -0.6376  0.6705
   50MOL   C21313051   7.492   6.178   2.143 -0.3760  0.0721  0.1780
   50MOL   C21413052   7.575   6.253   2.370  0.1953  0.1317 -0.2946
   50MOL   H21513053   7.376   6.435   2.463 -0.5452 -0.6452  0.9695
   50MOL   H21613054   7.309   6.528   2.339  0.0764 -0.2379 -1.0124
   50MOL   H21713055   7.272   6.321   2.203 -0.4746 -1.0199 -0.4186
   50MOL   H21813056   7.560   6.239   2.084  0.6991 -0.1197  1.1862
   50MOL   H21913057   7.398   6.168   2.090 -0.4832  1.2672  0.1254
   50MOL   H22013058   7.537   6.080   2.157  1.3718  0.4427 -2.5541
   50MOL   H22113059   7.615   6.152   2.371 -0.8520 -0.2864  2.2266
   50MOL   H22213060   7.530   6.265   2.468  0.5846  3.0977 -0.4412
   50MOL   C22313061   7.685   6.357   2.357  0.0355  0.0862  0.2454
   50MOL   C22413062   7.791   6.349   2.472 -0.3485  0.2522 -0.3748
   50MOL   C22513063   0.046   6.326   2.469  0.6073 -0.1786  0.1575
   50MOL   C22613064   0.130   6.331   2.595 -0.1450  0.3096 -0.2346
   50MOL   C22713065   0.127   6.287   2.351 -0.0595 -0.0273  0.2799
   50MOL   H22813066   7.646   6.456   2.336 -0.6848 -0.1253  0.5600
   50MOL   H22913067   7.740   6.321   2.270  0.6481  1.3045  0.1300
   50MOL   H23013068   7.754   6.378   2.569  0.7933 -0.8501  0.3969
   50MOL   H23113069   0.095   6.404   2.668  1.5585  0.2752  0.6272
   50MOL   H23213070   0.238   6.327   2.588 -0.3040 -4.5800 -1.8676
   50MOL   H23313071   0.101   6.242   2.652  2.2724  0.2726  0.9855
   50MOL   H23413072   0.214   6.353   2.347  1.3741 -2.0261 -3.1463
   50MOL   H23513073   0.087   6.307   2.252 -0.2150 -1.2190  0.0978
   50MOL   C23613074   0.158   6.140   2.359  0.4885 -0.6752 -0.6319
   50MOL   C23713075   0.254   6.099   2.251 -0.0582  0.7547  0.3260
   50MOL   C23813076   0.380   6.053   2.259  1.0013  0.0736 -0.0363
   50MOL   C23913077   0.462   6.039   2.134  0.0117  0.6296  0.2722
   50MOL   C24013078   0.449   6.040   2.392 -0.0953 -0.6060  0.2088
   50MOL   H24113079   0.076   6.072   2.336  0.0108 -0.2606 -0.1700
   50MOL   H24213080   0.180   6.106   2.460 -0.6875 -0.4986 -0.3093
   50MOL   H24313081   0.214   6.106   2.151 -0.9454 -3.6383  0.2808
   50MOL   H24413082   0.401   6.040   2.043  1.2294  2.4564 -0.5317
   50MOL   H24513083   0.524   5.949   2.142  1.3144  1.6699  2.0826
   50MOL   H24613084   0.533   6.120   2.122 -1.4403  2.0641  1.1091
   50MOL   H24713085   0.387   6.074   2.475  0.1642 -1.4179  0.7449
   50MOL   H24813086   0.536   6.103   2.382 -0.6615 -0.0219 -1.1418
   50MOL   C24913087   0.478   5.889   2.425 -0.1928 -0.8865  0.7482
   50MOL   C25013088   0.552   5.886   2.559  0.1888  0.3862 -0.2325
   50MOL   C25113089   0.668   5.818   2.585 -0.1017  0.4851  0.0825
   50MOL   C25213090   0.722   5.813   2.726  0.6471  0.1591  0.8079
   50MOL   C25313091   0.745   5.735   2.486  0.5612  0.0105 -0.0148
   50MOL   H25413092   0.545   5.839   2.355 -0.5758 -1.5262  0.8259
   50MOL   H25513093   0.390   5.825   2.429  0.0665 -1.1924  1.7102
   50MOL   H25613094   0.503   5.944   2.637 -4.2656 -0.4759 -2.2200
   50MOL   H25713095   0.786   5.726   2.739 -0.0449 -0.3905  0.5384
   50MOL   H25813096   0.637   5.802   2.794 -0.4415 -1.3099 -0.7410
   50MOL   H25913097   0.784   5.901   2.742  1.1336  0.0125 -0.2852
   50MOL   H26013098   0.685   5.644   2.482  0.0682  0.3727 -1.0737
   50MOL   H26113099   0.849   5.723   2.516  1.1538  1.7818 -1.2705
   50MOL   H26213100   0.756   5.775   2.385  2.3578  2.1572  0.9823
   51MOL     C113101   6.497   1.885   2.775 -0.5413  0.7151  0.1638
   51MOL     C213102   6.537   1.865   2.636 -0.2659  0.0508  0.7836
   51MOL     C313103   6.458   1.853   2.533 -0.1419 -0.1848 -0.3217
   51MOL     C413104   6.519   1.827   2.396  0.6785  0.2799 -0.2630
   51MOL     C513105   6.307   1.865   2.541 -0.3946  0.2213  0.5416
   51MOL     H613106   6.541   1.815   2.846 -0.8481  0.9360  0.5670
   51MOL     H713107   6.531   1.985   2.804  0.7351 -0.4216  2.7472
   51MOL     H813108   6.643   1.854   2.619 -0.5587 -0.7522 -0.5468
   51MOL     H913109   6.450   1.875   2.326 -0.4121 -0.1819  0.4693
   51MOL    H1013110   6.509   1.725   2.359 -1.1505  0.5416 -0.5394
   51MOL    H1113111   6.621   1.863   2.384 -0.3558  2.5508 -2.8078
   51MOL    H1213112   6.270   1.925   2.458 -1.2416 -0.4887  0.4024
   51MOL    H1313113   6.272   1.923   2.626 -0.9735  0.8222 -0.0996
   51MOL    H1413114   6.389   1.892   2.783 -0.5718  2.2541 -1.3099
   51MOL    C1513115   6.236   1.727   2.545  0.2270 -0.4428 -0.0796
   51MOL    C1613116   6.094   1.753   2.508 -0.1218  0.0420  0.1354
   51MOL    C1713117   6.003   1.653   2.505  0.0284  0.1976  0.0344
   51MOL    C1813118   5.857   1.676   2.476 -0.6963 -0.0525 -0.0994
   51MOL    C1913119   6.030   1.511   2.547 -0.4114 -0.5994  0.0764
   51MOL    H2013120   6.250   1.671   2.638 -3.2079  2.0876  2.0516
   51MOL    H2113121   6.277   1.665   2.464  1.9424 -0.6402  0.9025
   51MOL    H2213122   6.063   1.848   2.468  1.6461  0.3983 -0.4286
   51MOL    H2313123   5.837   1.779   2.445  2.6779  0.4687 -0.6889
   51MOL    H2413124   5.797   1.640   2.559  0.3495 -0.6827  0.3928
   51MOL    H2513125   5.824   1.613   2.393  1.8240 -0.6271 -0.7236
   51MOL    H2613126   6.134   1.482   2.534 -0.6114 -1.2103 -0.2149
   51MOL    H2713127   5.985   1.436   2.482  1.8576 -2.0821  0.1391
   51MOL    C2813128   5.999   1.485   2.688 -0.5271 -0.4023  0.0475
   51MOL    C2913129   6.052   1.355   2.751 -0.1925 -0.3541 -0.0086
   51MOL    C3013130   5.981   1.242   2.769 -0.2101 -0.4351  0.3011
   51MOL    C3113131   6.036   1.126   2.842  0.3518 -0.2436 -0.1323
   51MOL    C3213132   5.835   1.222   2.717 -0.7626 -0.2167  0.1049
   51MOL    H3313133   5.891   1.485   2.701 -0.3689 -0.3436  1.4289
   51MOL    H3413134   6.042   1.571   2.739 -0.5663  0.3301 -1.1292
   51MOL    H3513135   6.153   1.363   2.788  0.0043 -0.1076 -0.6057
   51MOL    H3613136   6.029   1.038   2.778 -0.3887 -0.4640  0.2389
   51MOL    H3713137   5.989   1.090   2.933  3.3917 -0.1435  1.5359
   51MOL    H3813138   6.140   1.147   2.865  0.6277 -1.3453 -0.3174
   51MOL    H3913139   5.829   1.136   2.650 -0.5535 -0.2085  0.0778
   51MOL    H4013140   5.793   1.304   2.659  1.8044  1.5747  0.7172
   51MOL    C4113141   5.730   1.184   2.824  0.6015  0.4798  0.5414
   51MOL    C4213142   5.592   1.179   2.764 -0.4639 -0.2676 -0.7079
   51MOL    C4313143   5.478   1.231   2.816 -0.1436 -0.1514 -0.1857
   51MOL    C4413144   5.350   1.218   2.730  0.3302  0.2105 -0.2602
   51MOL    C4513145   5.462   1.300   2.951  0.3290 -0.3221 -0.1139
   51MOL    H4613146   5.739   1.244   2.914  2.7717 -1.6832  1.8394
   51MOL    H4713147   5.743   1.079   2.851 -1.5519 -0.5160 -1.9956
   51MOL    H4813148   5.591   1.126   2.669  0.6319 -2.5533  0.5043
   51MOL    H4913149   5.373   1.178   2.632  1.8885  1.2735 -0.3399
   51MOL    H5013150   5.295   1.313   2.731 -1.3043 -0.7197 -0.3261
   51MOL    H5113151   5.284   1.147   2.780 -1.3461  2.6344  1.0869
   51MOL    H5213152   5.395   1.386   2.943  0.2661 -0.5567 -2.2657
   51MOL    H5313153   5.547   1.342   3.004 -0.1973  0.8178 -0.1553
   51MOL    C5413154   5.386   1.206   3.053  0.1748 -0.6260  0.2254
   51MOL    C5513155   5.457   1.075   3.088  0.1332 -0.6281  0.8379
   51MOL    C5613156   5.518   1.048   3.204 -0.0339  0.1293 -0.1679
   51MOL    C5713157   5.585   0.911   3.220  0.6482  0.4658  0.5136
   51MOL    C5813158   5.540   1.149   3.314  0.5274  0.2011 -0.6540
   51MOL    H5913159   5.283   1.178   3.033  0.1167 -0.8674  0.8534
   51MOL    H6013160   5.365   1.257   3.148  1.2484  0.0411  0.1095
   51MOL    H6113161   5.440   0.996   3.017  2.0352 -0.3251  0.0081
   51MOL    H6213162   5.539   0.837   3.154  1.7380  0.1619  0.0838
   51MOL    H6313163   5.577   0.871   3.321  1.2271 -1.2240 -0.0785
   51MOL    H6413164   5.689   0.910   3.188  0.3875 -1.8489 -0.4218
   51MOL    H6513165   5.526   1.252   3.281 -0.4093  0.6972  1.2262
   51MOL    H6613166   5.646   1.153   3.339  0.1870  4.3281  0.5399
   51MOL    C6713167   5.459   1.125   3.436  0.5478 -0.6295 -0.2907
   51MOL    C6813168   5.476   1.242   3.528  0.0588 -0.4247  0.0230
   51MOL    C6913169   5.484   1.244   3.663 -0.1105  0.6856 -0.1040
   51MOL    C7013170   5.501   1.368   3.742 -0.1437 -0.0930  0.4498
   51MOL    C7113171   5.495   1.121   3.751 -0.6545  0.1700  0.0821
   51MOL    H7213172   5.482   1.028   3.480 -2.2925 -0.6829  1.1570
   51MOL    H7313173   5.356   1.125   3.402 -0.2882 -0.3140  2.1683
   51MOL    H7413174   5.498   1.339   3.488 -0.0044 -0.7005 -0.6767
   51MOL    H7513175   5.425   1.374   3.819 -0.6539 -2.4511  0.1687
   51MOL    H7613176   5.486   1.457   3.680  0.6312  0.6835  1.3744
   51MOL    H7713177   5.603   1.384   3.777  0.3636 -2.8066  0.3034
   51MOL    H7813178   5.469   1.032   3.695  0.8110  0.1849 -0.6411
   51MOL    H7913179   5.411   1.128   3.821  0.8476 -4.3978  2.5735
   51MOL    C8013180   5.624   1.119   3.840  0.0349 -0.4080 -0.0991
   51MOL    C8113181   5.753   1.120   3.760  0.8434 -0.2329 -0.4729
   51MOL    C8213182   5.828   1.016   3.731  0.3698  0.5186 -0.2847
   51MOL    C8313183   5.795   0.869   3.759  0.2836 -0.0865  0.1884
   51MOL    C8413184   5.964   1.042   3.670  0.4357  0.6535  0.6384
   51MOL    H8513185   5.623   1.037   3.911  0.7486 -0.7877 -0.5191
   51MOL    H8613186   5.631   1.200   3.912  0.3699 -1.6603  1.2850
   51MOL    H8713187   5.793   1.218   3.738  0.1466  0.1124 -0.1997
   51MOL    H8813188   5.718   0.835   3.691 -0.1459  2.3949 -0.6183
   51MOL    H8913189   5.761   0.840   3.858  1.1288  0.8143  0.7594
   51MOL    H9013190   5.889   0.815   3.752  0.4851  0.3310 -0.3380
   51MOL    H9113191   6.052   1.005   3.722  1.4456 -0.0641 -1.5222
   51MOL    H9213192   5.977   1.150   3.675  2.3003  0.5199 -0.9277
   51MOL    C9313193   5.974   1.004   3.525  0.1170  0.0851 -0.4489
   51MOL    C9413194   6.098   1.065   3.451  0.3032 -0.7520  0.1855
   51MOL    C9513195   6.102   1.132   3.331  0.5817  0.3071  0.3322
   51MOL    C9613196   6.229   1.179   3.268  0.4553 -0.2775 -0.6135
   51MOL    C9713197   5.979   1.156   3.248  0.3324  0.4438  0.3086
   51MOL    H9813198   5.889   1.046   3.471  0.9037  1.6686 -0.4886
   51MOL    H9913199   5.976   0.895   3.515  2.0640 -0.0830  1.5517
   51MOL   H10013200   6.189   1.035   3.499  1.1473  0.5503 -0.5745
   51MOL   H10113201   6.240   1.287   3.276 -0.3084  0.0927 -3.7762
   51MOL   H10213202   6.309   1.142   3.332 -1.0554 -0.2051  1.3410
   51MOL   H10313203   6.245   1.150   3.164  1.7857  0.4218 -0.6132
   51MOL   H10413204   5.894   1.094   3.276 -0.5887  1.7958  0.5454
   51MOL   H10513205   6.001   1.114   3.150 -1.1632  0.3741 -0.0078
   51MOL   C10613206   5.944   1.301   3.231 -0.3829  0.9070  0.2181
   51MOL   C10713207   5.863   1.354   3.343  0.0803  0.3490  0.1947
   51MOL   C10813208   5.820   1.478   3.365 -0.0277  0.2105  0.2298
   51MOL   C10913209   5.850   1.593   3.276  0.0708 -0.4666  0.1196
   51MOL   C11013210   5.750   1.518   3.492  0.2979 -0.6405  0.4338
   51MOL   H11113211   5.892   1.325   3.138  0.1333  0.4701 -0.1831
   51MOL   H11213212   6.036   1.358   3.218  1.4753 -1.9859  0.3784
   51MOL   H11313213   5.834   1.281   3.417 -2.5080 -2.2413 -3.1959
   51MOL   H11413214   5.882   1.686   3.322  0.4808 -0.2386 -0.6127
   51MOL   H11513215   5.917   1.565   3.195 -0.6315 -1.2645 -0.2006
   51MOL   H11613216   5.756   1.616   3.224  0.5505  0.6446 -0.2572
   51MOL   H11713217   5.708   1.428   3.536 -0.5600  0.4911  1.9921
   51MOL   H11813218   5.660   1.573   3.464 -0.1167 -1.4763  0.1110
   51MOL   C11913219   5.837   1.600   3.590 -0.8184  0.0342 -1.0316
   51MOL   C12013220   5.755   1.644   3.706 -0.2803  0.0422 -0.8090
   51MOL   C12113221   5.772   1.610   3.835  0.4036  0.2567 -0.0245
   51MOL   C12213222   5.664   1.649   3.940  0.3284 -1.0250  0.5691
   51MOL   C12313223   5.887   1.529   3.885 -0.0979 -0.4273  0.5063
   51MOL   H12413224   5.881   1.690   3.546  3.3934 -0.1785  2.5031
   51MOL   H12513225   5.929   1.545   3.604 -0.3866  0.6342 -1.4654
   51MOL   H12613226   5.666   1.697   3.674  0.6219  1.6480 -0.7471
   51MOL   H12713227   5.609   1.730   3.892 -0.4849 -1.6177  0.4799
   51MOL   H12813228   5.729   1.696   4.013  0.2120 -2.1395  1.4030
   51MOL   H12913229   5.595   1.575   3.980  1.6878 -2.0858  0.9802
   51MOL   H13013230   5.948   1.609   3.929  1.0507 -0.5307 -0.8725
   51MOL   H13113231   5.934   1.473   3.804 -2.1731  0.3551 -1.2689
   51MOL   C13213232   5.850   1.432   3.994 -0.2727 -0.2569  0.2437
   51MOL   C13313233   5.950   1.324   4.034  0.2656 -0.3775 -0.2597
   51MOL   C13413234   6.041   1.329   4.131  0.0870 -0.0191 -0.0243
   51MOL   C13513235   6.116   1.203   4.179 -0.1064 -0.5041  0.0307
   51MOL   C13613236   6.054   1.449   4.221  0.5081  0.8085 -0.3456
   51MOL   H13713237   5.769   1.375   3.950  0.4902 -1.1340 -0.0262
   51MOL   H13813238   5.817   1.480   4.087  0.3734 -0.1485  0.4240
   51MOL   H13913239   5.927   1.234   3.978  2.0589 -1.0695  0.1011
   51MOL   H14013240   6.223   1.215   4.159  0.2467  1.7397  2.8238
   51MOL   H14113241   6.098   1.115   4.117  0.3507  0.2306 -1.1742
   51MOL   H14213242   6.091   1.168   4.279 -2.6525  0.1124 -0.3721
   51MOL   H14313243   6.037   1.412   4.322 -0.2287  0.5297 -0.5651
   51MOL   H14413244   5.970   1.518   4.215 -0.8181 -0.6449  0.8287
   51MOL   C14513245   6.192   1.513   4.203  0.0455  0.2740 -0.5618
   51MOL   C14613246   6.216   1.615   4.312  0.2342 -0.5052 -0.0485
   51MOL   C14713247   6.280   1.602   4.430  0.1897  0.2127 -0.5637
   51MOL   C14813248   6.314   1.719   4.519  0.0365  0.1229 -0.1536
   51MOL   C14913249   6.323   1.469   4.497  0.0674  0.1484  0.2615
   51MOL   H15013250   6.194   1.549   4.100 -2.7867  1.0360 -0.4025
   51MOL   H15113251   6.264   1.431   4.203 -1.6830 -1.2912 -2.0705
   51MOL   H15213252   6.178   1.712   4.285 -0.2244 -0.5049  0.6035
   51MOL   H15313253   6.271   1.707   4.619 -1.3874 -0.3482 -0.8040
   51MOL   H15413254   6.275   1.814   4.482  0.9261  1.5408  2.4420
   51MOL   H15513255   6.419   1.723   4.547 -0.1231  1.2587  0.2949
   51MOL   H15613256   6.266   1.388   4.452 -1.3747  0.7328  1.0072
   51MOL   H15713257   6.297   1.470   4.603 -0.7202  0.5052  0.0710
   51MOL   C15813258   6.471   1.429   4.483 -0.1650  0.0026  0.6277
   51MOL   C15913259   6.510   1.301   4.565 -0.2544  0.2082 -0.4931
   51MOL   C16013260   6.492   1.173   4.522  0.7014 -0.5008 -0.9516
   51MOL   C16113261   6.409   1.145   4.397  0.1589  0.1994 -0.9598
   51MOL   C16213262   6.539   1.057   4.612  0.5758  0.6606 -0.6124
   51MOL   H16313263   6.545   1.500   4.521  0.9901  0.6270 -2.6156
   51MOL   H16413264   6.496   1.410   4.379  2.1129  0.4513  1.0627
   51MOL   H16513265   6.569   1.315   4.654 -0.3009  2.4729 -0.7794
   51MOL   H16613266   6.460   1.064   4.345  0.6779  0.1299 -0.3380
   51MOL   H16713267   6.392   1.221   4.320 -2.3092  1.8542  1.1373
   51MOL   H16813268   6.321   1.096   4.439  0.6465  0.6199  0.5724
   51MOL   H16913269   6.450   1.002   4.642  0.5295  1.0704  0.0118
   51MOL   H17013270   6.556   1.097   4.712 -1.9218 -0.8110  0.4446
   51MOL   C17113271   6.655   0.978   4.547  0.6501 -0.3878  0.0543
   51MOL   C17213272   6.710   0.875   4.643  0.1879  0.6881  0.2851
   51MOL   C17313273   6.836   0.867   4.688  0.8187 -0.0366  0.1272
   51MOL   C17413274   6.939   0.968   4.646 -0.0548 -0.1877  0.5207
   51MOL   C17513275   6.896   0.768   4.781 -0.6874  0.5323  0.6807
   51MOL   H17613276   6.733   1.042   4.505 -0.6495  1.4926  0.4043
   51MOL   H17713277   6.609   0.921   4.466  2.1120 -0.1323 -0.9697
   51MOL   H17813278   6.642   0.800   4.679 -1.1516  0.8430 -1.8343
   51MOL   H17913279   6.901   1.069   4.630 -0.0032 -0.3514 -0.6696
   51MOL   H18013280   6.982   0.925   4.556 -1.8510 -1.4349  0.2299
   51MOL   H18113281   7.014   0.984   4.723  0.3578  0.0667  0.0663
   51MOL   H18213282   6.929   0.823   4.869  0.2771  1.8350 -0.4645
   51MOL   H18313283   6.993   0.743   4.739 -1.4233 -0.1984 -0.6203
   51MOL   C18413284   6.822   0.637   4.797  0.1149  0.6490  0.2657
   51MOL   C18513285   6.910   0.536   4.871  0.0021  0.2512  0.8096
   51MOL   C18613286   6.911   0.519   5.001  0.8611  0.1366 -0.3186
   51MOL   C18713287   6.992   0.406   5.059  0.1874 -0.7289 -0.1267
   51MOL   C18813288   6.827   0.603   5.099  0.1439  0.4199 -0.8355
   51MOL   H18913289   6.797   0.597   4.698 -0.2528  1.2448  0.1075
   51MOL   H19013290   6.729   0.643   4.854 -1.4613  1.1658 -2.2246
   51MOL   H19113291   6.982   0.479   4.814  0.2492  0.6069  0.7673
   51MOL   H19213292   7.085   0.393   5.004  0.3160  1.1586 -0.3860
   51MOL   H19313293   6.943   0.311   5.081 -2.6091  0.9758  1.2734
   51MOL   H19413294   7.013   0.440   5.160  0.4676  0.5150 -0.5882
   51MOL   H19513295   6.791   0.687   5.041 -0.9007  0.2914 -0.3944
   51MOL   H19613296   6.895   0.646   5.173 -2.8597 -1.3696  3.1753
   51MOL   C19713297   6.705   0.525   5.159 -0.0498 -0.2907  0.7084
   51MOL   C19813298   6.619   0.624   5.244  0.2089  1.0384  1.0031
   51MOL   C19913299   6.485   0.636   5.234  0.2740 -0.3812  0.2142
   51MOL   C20013300   6.406   0.742   5.313 -0.3000 -0.6456 -0.1065
   51MOL   C20113301   6.394   0.560   5.132 -0.2932  0.3729 -0.3767
   51MOL   H20213302   6.746   0.439   5.211 -2.0528 -2.4458 -1.1458
   51MOL   H20313303   6.654   0.469   5.081  0.3581  0.5089 -0.1403
   51MOL   H20413304   6.664   0.678   5.325 -0.8202  4.0233 -0.3342
   51MOL   H20513305   6.329   0.700   5.377 -0.1276 -1.6030 -0.5179
   51MOL   H20613306   6.355   0.806   5.240  2.1976 -1.0091 -2.2902
   51MOL   H20713307   6.471   0.808   5.371 -0.9391  0.3516 -0.5112
   51MOL   H20813308   6.302   0.544   5.188  0.4245  3.2334  1.6970
   51MOL   H20913309   6.437   0.461   5.120  1.4670  0.8629  1.7082
   51MOL   C21013310   6.381   0.617   4.990 -0.0351  0.1217 -0.5265
   51MOL   C21113311   6.276   0.730   4.991  0.1420  0.6149 -0.1330
   51MOL   C21213312   6.144   0.722   4.962  0.7563  0.5146  0.1165
   51MOL   C21313313   6.059   0.845   4.971  0.1142 -0.5267 -0.2369
   51MOL   C21413314   6.077   0.598   4.910  0.6757 -0.2459 -0.2000
   51MOL   H21513315   6.360   0.538   4.919 -0.6272  1.0698 -1.4211
   51MOL   H21613316   6.473   0.651   4.943  1.2871 -2.0641  0.4354
   51MOL   H21713317   6.313   0.830   5.010 -1.8024  1.4055 -0.3548
   51MOL   H21813318   6.121   0.919   5.022 -1.4998  1.8053 -1.5486
   51MOL   H21913319   5.970   0.845   5.034  1.8166  1.3516  2.2713
   51MOL   H22013320   6.024   0.878   4.873  1.6745 -0.2334 -0.7026
   51MOL   H22113321   5.978   0.600   4.956  0.4247 -0.9685 -0.6942
   51MOL   H22213322   6.121   0.505   4.947 -1.0550 -1.4120 -1.0246
   51MOL   C22313323   6.051   0.595   4.759  1.0278  0.0428 -0.3241
   51MOL   C22413324   5.968   0.471   4.724  0.0996 -0.0486  0.6222
   51MOL   C22513325   5.868   0.466   4.634 -0.4532  0.3526 -0.1707
   51MOL   C22613326   5.810   0.330   4.604  0.8178 -0.5462  0.2011
   51MOL   C22713327   5.807   0.588   4.568 -0.2882  0.3664 -0.2055
   51MOL   H22813328   6.152   0.591   4.719  1.6758 -1.2574  1.3700
   51MOL   H22913329   6.004   0.688   4.728  0.1882 -0.2369  0.0731
   51MOL   H23013330   5.999   0.379   4.771 -0.5940  0.0720  1.3318
   51MOL   H23113331   5.710   0.339   4.648 -0.2255  0.8567 -2.3587
   51MOL   H23213332   5.851   0.253   4.669 -0.2001 -0.1834  1.2984
   51MOL   H23313333   5.808   0.312   4.497 -0.4709 -3.2997  0.6453
   51MOL   H23413334   5.807   0.682   4.622 -0.1562  0.5698 -0.5567
   51MOL   H23513335   5.699   0.571   4.568 -0.4215  1.1903  1.0797
   51MOL   C23613336   5.859   0.608   4.419 -0.0065 -0.9156 -0.7348
   51MOL   C23713337   5.796   0.726   4.343  1.1237 -0.5778  0.4400
   51MOL   C23813338   5.848   0.796   4.240 -0.6705  0.0119  0.0630
   51MOL   C23913339   5.762   0.898   4.173 -0.5548  0.6145  0.7755
   51MOL   C24013340   5.990   0.769   4.189  0.3370  0.0819  0.4129
   51MOL   H24113341   5.816   0.519   4.373 -1.5478 -1.8111  2.3014
   51MOL   H24213342   5.968   0.604   4.419  0.0023 -1.2047  0.5275
   51MOL   H24313343   5.692   0.747   4.366  0.3765  0.5555 -3.5862
   51MOL   H24413344   5.657   0.891   4.202 -0.6966 -0.4671  0.0265
   51MOL   H24513345   5.748   0.866   4.070 -1.7536  0.1508  1.0790
   51MOL   H24613346   5.802   0.999   4.169 -0.6918  0.5809 -2.0298
   51MOL   H24713347   6.057   0.739   4.269  0.3677  0.0336  0.3699
   51MOL   H24813348   6.038   0.863   4.163 -0.3280 -0.0703 -1.4590
   51MOL   C24913349   5.989   0.668   4.076 -0.2500  0.1818  0.2440
   51MOL   C25013350   6.110   0.685   3.989 -0.1177 -0.2866 -0.3579
   51MOL   C25113351   6.190   0.589   3.929 -0.0209  0.8090 -0.2018
   51MOL   C25213352   6.311   0.631   3.853  0.3999 -0.1336 -0.5296
   51MOL   C25313353   6.163   0.440   3.924 -0.2121  0.5841  0.1866
   51MOL   H25413354   5.900   0.679   4.013 -0.5684  1.0134  0.8345
   51MOL   H25513355   5.970   0.566   4.111  1.8035 -0.5472 -0.6758
   51MOL   H25613356   6.130   0.790   3.974  0.3132 -0.4110 -0.6425
   51MOL   H25713357   6.294   0.592   3.753  1.8988 -0.8597 -0.5074
   51MOL   H25813358   6.400   0.597   3.906 -0.4287 -2.8474 -0.8194
   51MOL   H25913359   6.308   0.740   3.853  1.4338 -0.0864 -2.7569
   51MOL   H26013360   6.255   0.387   3.946 -0.9017 -0.3022  0.9836
   51MOL   H26113361   6.129   0.421   3.823 -0.8773 -0.2260  0.5566
   51MOL   H26213362   6.091   0.407   3.999  0.5798  1.2865  1.2718
   52MOL     C113363   1.041   3.702   7.300  0.0599  0.5939  0.0296
   52MOL     C213364   0.998   3.702   7.442  0.4303  0.2630 -0.4259
   52MOL     C313365   0.874   3.709   7.493 -0.1191 -0.1964  0.0525
   52MOL     C413366   0.851   3.711   7.643  0.0904  0.5352  0.4354
   52MOL     C513367   0.751   3.734   7.412 -0.6942  0.0858 -0.0934
   52MOL     H613368   1.085   3.607   7.273  0.8921  1.4104 -1.5321
   52MOL     H713369   0.955   3.712   7.234  0.6499  2.6787 -0.4534
   52MOL     H813370   1.079   3.694   7.513  0.7179  2.6585 -0.4662
   52MOL     H913371   0.874   3.811   7.679 -0.7939  1.8106 -2.4168
   52MOL    H1013372   0.930   3.664   7.702 -0.3561  1.1605  1.5230
   52MOL    H1113373   0.746   3.696   7.668 -0.0730  0.8344 -0.0475
   52MOL    H1213374   0.768   3.739   7.304  1.7111 -1.9277  0.1528
   52MOL    H1313375   0.712   3.830   7.446 -0.2234  1.6408 -3.7234
   52MOL    H1413376   1.098   3.792   7.277 -0.1800  1.3278  2.1043
   52MOL    C1513377   0.642   3.622   7.432  0.6689  0.1890 -0.3128
   52MOL    C1613378   0.553   3.605   7.311 -0.6119  0.5423  0.6826
   52MOL    C1713379   0.427   3.651   7.301 -0.1535  0.1513 -0.2167
   52MOL    C1813380   0.344   3.623   7.176  0.0718  0.2435 -0.2558
   52MOL    C1913381   0.353   3.742   7.403  0.3303  0.0818 -0.8086
   52MOL    H2013382   0.573   3.650   7.510 -1.0836  0.4764 -1.9340
   52MOL    H2113383   0.679   3.522   7.458 -0.6669 -0.8525 -2.2743
   52MOL    H2213384   0.594   3.546   7.230 -1.5298  0.4708  0.2598
   52MOL    H2313385   0.401   3.574   7.097 -0.0072 -1.9580  1.0158
   52MOL    H2413386   0.281   3.706   7.144  1.4053  1.1152 -0.6890
   52MOL    H2513387   0.277   3.546   7.213 -0.1568  1.4906  2.0053
   52MOL    H2613388   0.277   3.808   7.363  1.5989  2.0975  0.0424
   52MOL    H2713389   0.431   3.805   7.446  1.2003 -0.4547 -1.5524
   52MOL    C2813390   0.276   3.661   7.513 -1.2215 -0.5145 -1.1045
   52MOL    C2913391   0.247   3.736   7.641  0.5908  0.2983 -0.5439
   52MOL    C3013392   0.244   3.704   7.774  0.0173 -0.4926 -0.1012
   52MOL    C3113393   0.200   3.806   0.001  0.5246  0.2321  0.3286
   52MOL    C3213394   0.281   3.567   7.833  0.1839 -0.1665 -0.3204
   52MOL    H3313395   0.343   3.576   7.526  0.7580  1.4623  2.5247
   52MOL    H3413396   0.182   3.622   7.474 -1.1984  0.1245 -1.8080
   52MOL    H3513397   0.224   3.840   7.622 -0.6472  0.2500  0.5693
   52MOL    H3613398   0.097   3.785   0.029  0.1025  2.2243  0.3567
   52MOL    H3713399   0.186   3.902   7.831  0.4708  0.7587  1.3545
   52MOL    H3813400   0.267   3.808   0.087  0.1990 -1.8907  0.6511
   52MOL    H3913401   0.351   3.553   0.036  1.0933  1.0342 -0.8823
   52MOL    H4013402   0.328   3.515   7.749 -2.5535 -1.9134 -0.8292
   52MOL    C4113403   0.161   3.490   7.872  0.4053  0.9260  0.5932
   52MOL    C4213404   0.183   3.335   0.010  0.2711 -0.3716  0.8839
   52MOL    C4313405   0.108   3.251   0.086  0.2620  0.4310  0.5634
   52MOL    C4413406   0.151   3.110   0.124 -0.2270  0.0020  0.2750
   52MOL    C4513407   7.849   3.289   0.139 -0.0933 -0.1021  0.8243
   52MOL    H4613408   0.082   3.503   7.798  0.5859 -1.1780 -0.0050
   52MOL    H4713409   0.115   3.534   0.081 -0.1727  1.3551  0.0802
   52MOL    H4813410   0.280   3.296   7.863  1.2247  1.7387  1.1777
   52MOL    H4913411   0.092   3.037   0.068 -0.3340  0.9406 -0.8502
   52MOL    H5013412   0.145   3.074   0.227  1.6821 -1.3466 -0.0600
   52MOL    H5113413   0.254   3.084   0.100 -0.0944  0.4551  0.3606
   52MOL    H5213414   7.792   3.197   0.127  0.7698 -0.4295 -0.9009
   52MOL    H5313415   7.796   3.357   0.073  1.0813  0.4544  0.4517
   52MOL    C5413416   7.846   3.327   0.297 -0.0287  0.3161  0.2839
   52MOL    C5513417   7.827   3.472   0.334  0.1026 -1.4265 -0.0568
   52MOL    C5613418   0.044   3.554   0.386  0.3091  0.0709  0.3077
   52MOL    C5713419   0.007   3.693   0.430  0.1008  0.1146  0.6798
   52MOL    C5813420   0.195   3.519   0.396  0.9492  0.0469  0.8365
   52MOL    H5913421   0.061   3.291   0.340  0.0160 -1.2970 -1.1118
   52MOL    H6013422   7.771   3.267   0.350  0.7244 -0.0093  1.0035
   52MOL    H6113423   7.731   3.515   0.307  0.5798 -0.1107  0.3028
   52MOL    H6213424   7.845   3.693   0.531 -1.6947  1.5722 -0.0016
   52MOL    H6313425   7.811   3.742   0.367 -0.9701 -1.5150  0.6592
   52MOL    H6413426   0.095   3.754   0.447  0.6006 -0.1414 -0.9273
   52MOL    H6513427   0.246   3.607   0.358  0.5895  0.2443  0.8019
   52MOL    H6613428   0.218   3.436   0.329 -0.4314 -0.4984  1.0106
   52MOL    C6713429   0.244   3.492   0.537 -0.7010 -0.5007 -0.4144
   52MOL    C6813430   0.396   3.472   0.533 -0.5093  0.2959  0.5675
   52MOL    C6913431   0.459   3.357   0.499 -0.1089  1.3087  0.4110
   52MOL    C7013432   0.611   3.356   0.489  0.2638 -0.0955  0.0215
   52MOL    C7113433   0.389   3.227   0.451 -0.3967 -0.5744  0.2432
   52MOL    H7213434   0.196   3.408   0.588 -0.2721  0.1423  1.0852
   52MOL    H7313435   0.238   3.585   0.595  2.0173 -0.5726  0.0543
   52MOL    H7413436   0.453   3.560   0.556  1.4655 -0.6610 -0.5607
   52MOL    H7513437   0.663   3.452   0.483  1.5796 -0.7327  1.0756
   52MOL    H7613438   0.643   3.303   0.399  4.1794  1.3343  0.4695
   52MOL    H7713439   0.639   3.296   0.575 -0.1268  0.5155  0.5797
   52MOL    H7813440   0.449   3.178   0.374 -2.3905 -1.2179 -0.9310
   52MOL    H7913441   0.296   3.261   0.406  0.6281  0.2749 -1.2860
   52MOL    C8013442   0.363   3.126   0.561  0.4742  0.2887 -0.2496
   52MOL    C8113443   0.264   3.016   0.526 -0.3609  0.1972 -0.1123
   52MOL    C8213444   0.186   2.951   0.615 -0.1997  1.2207 -0.2191
   52MOL    C8313445   0.179   2.982   0.767  0.2874 -0.7186  0.4895
   52MOL    C8413446   0.098   2.841   0.560 -0.5516 -1.0007  0.7371
   52MOL    H8513447   0.309   3.184   0.635 -0.3642 -1.1965  0.3285
   52MOL    H8613448   0.449   3.081   0.611  0.6053 -0.4615 -1.1390
   52MOL    H8713449   0.263   2.986   0.422  0.7933  1.7589 -0.5883
   52MOL    H8813450   0.238   3.072   0.787  0.7669 -0.3849 -2.2690
   52MOL    H8913451   0.233   2.910   0.829  0.6274  0.7002  1.8814
   52MOL    H9013452   0.081   3.014   0.803  0.0447 -2.3657  1.3323
   52MOL    H9113453   0.125   2.832   0.454 -1.6539  0.3149  0.3316
   52MOL    H9213454   7.870   2.864   0.561 -0.5453 -0.9987  2.0317
   52MOL    C9313455   0.112   2.702   0.622  0.2650 -0.6856  0.0217
   52MOL    C9413456   0.010   2.610   0.558 -0.2650  0.6697 -0.3097
   52MOL    C9513457   7.777   2.557   0.618 -0.2133  0.8306 -0.1623
   52MOL    C9613458   7.676   2.475   0.538 -0.4753 -0.0993  0.2621
   52MOL    C9713459   7.739   2.582   0.767  0.0125 -0.0918 -0.2057
   52MOL    H9813460   0.105   2.700   0.731 -0.4685 -0.6805 -0.0215
   52MOL    H9913461   0.210   2.660   0.599  0.8198  1.2058 -1.2120
   52MOL   H10013462   0.039   2.567   0.464 -0.1289 -1.6877  0.7623
   52MOL   H10113463   7.584   2.531   0.524  0.2157  0.8443 -0.5685
   52MOL   H10213464   7.721   2.443   0.444  1.4297  0.6928  0.8673
   52MOL   H10313465   7.658   2.388   0.602 -0.9866  0.3688  0.7630
   52MOL   H10413466   7.819   2.631   0.822 -0.8310  0.8297  0.2053
   52MOL   H10513467   7.746   2.482   0.809  2.6439  1.2755  2.8415
   52MOL   C10613468   7.608   2.662   0.790  0.1900 -0.1658  0.8794
   52MOL   C10713469   7.568   2.688   0.934 -0.2516  0.5797 -0.5637
   52MOL   C10813470   7.584   2.801   1.003  0.7118  0.2007 -0.4716
   52MOL   C10913471   7.655   2.925   0.952  0.6239 -0.1572  0.4387
   52MOL   C11013472   7.539   2.804   1.145  0.2851 -0.7366 -0.0152
   52MOL   H11113473   7.524   2.607   0.748  0.1403  1.4333 -1.2245
   52MOL   H11213474   7.600   2.752   0.729  1.2846  0.5124  1.7024
   52MOL   H11313475   7.534   2.600   0.987  1.1237  0.0639 -0.5344
   52MOL   H11413476   7.572   2.991   0.926  1.5327  0.6192 -0.5739
   52MOL   H11513477   7.725   2.974   1.020  0.8651  0.4483 -0.2346
   52MOL   H11613478   7.716   2.908   0.863 -0.8509  2.5158 -1.1662
   52MOL   H11713479   7.626   2.791   1.210  1.0699 -0.3910 -0.9776
   52MOL   H11813480   7.464   2.728   1.163  0.2262 -0.8322 -0.6461
   52MOL   C11913481   7.470   2.942   1.177 -0.4820  0.4236  0.5318
   52MOL   C12013482   7.406   2.945   1.311  0.0715 -0.5523 -0.8114
   52MOL   C12113483   7.273   2.943   1.336 -0.6237 -0.4625  0.3592
   52MOL   C12213484   7.211   2.952   1.475 -0.2531 -0.0695  0.5470
   52MOL   C12313485   7.169   2.932   1.229  0.1611  0.1289 -0.2919
   52MOL   H12413486   7.396   2.961   1.100  0.3371  1.1921 -0.0836
   52MOL   H12513487   7.535   3.030   1.182 -0.7086  0.6213 -0.0039
   52MOL   H12613488   7.477   2.955   1.392  0.7343  0.3924 -1.4964
   52MOL   H12713489   7.136   2.873   1.487  0.1489 -0.6164 -0.4435
   52MOL   H12813490   7.160   3.046   1.496  0.6402  0.1115  1.9647
   52MOL   H12913491   7.290   2.935   1.548 -1.8846  0.2341  2.4380
   52MOL   H13013492   7.207   2.995   1.149 -1.3874 -0.3032 -1.4183
   52MOL   H13113493   7.073   2.979   1.251 -0.6284 -1.7220  0.3106
   52MOL   C13213494   7.154   2.788   1.172  0.8715  0.4162  0.4990
   52MOL   C13313495   7.046   2.783   1.064  0.7794 -0.3673  0.1953
   52MOL   C13413496   7.052   2.723   0.946 -0.0844 -0.4289 -0.3464
   52MOL   C13513497   6.948   2.742   0.834 -0.4230 -0.0003  0.1152
   52MOL   C13613498   7.168   2.629   0.907 -0.1390  0.2751  0.2660
   52MOL   H13713499   7.124   2.712   1.245 -2.4880 -0.0162 -1.2102
   52MOL   H13813500   7.250   2.745   1.144  1.3452  1.5178  0.3934
   52MOL   H13913501   6.963   2.853   1.068  0.5259 -0.7396  1.5049
   52MOL   H14013502   7.001   2.754   0.739 -3.1588  2.4212 -1.1853
   52MOL   H14113503   6.879   2.826   0.841  0.4192  0.9240 -2.0092
   52MOL   H14213504   6.895   2.647   0.825 -0.2108 -0.1352  0.2861
   52MOL   H14313505   7.261   2.652   0.958  1.2919 -1.3308 -1.5329
   52MOL   H14413506   7.197   2.653   0.804 -2.7465 -0.9662 -0.8180
   52MOL   C14513507   7.124   2.484   0.917 -0.3863  0.1468  0.0113
   52MOL   C14613508   7.244   2.391   0.912 -0.3471  0.3482 -0.0983
   52MOL   C14713509   7.240   2.258   0.921  0.8717  0.4256  0.2545
   52MOL   C14813510   7.374   2.175   0.927  0.9432 -0.4311 -0.2866
   52MOL   C14913511   7.110   2.182   0.933 -0.5246 -0.6879  0.2110
   52MOL   H15013512   7.060   2.464   0.831  0.8045  3.8541 -1.8400
   52MOL   H15113513   7.071   2.461   1.010 -1.3081  0.9168 -0.3167
   52MOL   H15213514   7.341   2.437   0.902 -0.2324 -0.0440 -0.7941
   52MOL   H15313515   7.394   2.145   1.030 -0.8588 -2.2918 -0.4755
   52MOL   H15413516   7.442   2.254   0.893 -3.0860  3.6592  0.5974
   52MOL   H15513517   7.380   2.103   0.846  0.1436 -2.4421  1.4152
   52MOL   H15613518   7.029   2.231   0.986 -0.4015 -0.5155  0.2392
   52MOL   H15713519   7.116   2.103   1.009  0.5911 -2.0270 -1.2408
   52MOL   C15813520   7.061   2.130   0.798  0.8894  0.4135  0.5610
   52MOL   C15913521   6.929   2.055   0.811  0.1201 -0.1038 -0.0409
   52MOL   C16013522   6.804   2.106   0.816  0.4263 -0.2319  0.2488
   52MOL   C16113523   6.766   2.256   0.802  0.0411  0.3684 -0.0096
   52MOL   C16213524   6.688   2.013   0.834 -0.3603  0.9245  0.1973
   52MOL   H16313525   7.136   2.062   0.758 -1.2354 -1.0393 -1.0827
   52MOL   H16413526   7.065   2.210   0.724 -1.3037 -0.3088 -0.3996
   52MOL   H16513527   6.936   1.947   0.818  1.7026  0.0690  1.3715
   52MOL   H16613528   6.754   2.295   0.903 -0.8705 -0.6337  0.2742
   52MOL   H16713529   6.693   2.290   0.728 -1.6254 -0.4400  1.2292
   52MOL   H16813530   6.851   2.310   0.761  0.0523  0.7642  0.5284
   52MOL   H16913531   6.723   1.912   0.813 -1.7654  0.7014 -1.2145
   52MOL   H17013532   6.620   2.043   0.754 -1.2230 -2.6068 -0.4612
   52MOL   C17113533   6.630   2.024   0.977 -0.3095 -0.1933  0.6778
   52MOL   C17213534   6.526   1.918   1.012 -0.7184 -0.7068 -0.1026
   52MOL   C17313535   6.399   1.939   1.059  0.6572  0.1333  0.2290
   52MOL   C17413536   6.341   2.072   1.106  0.0475  0.1946 -0.2509
   52MOL   C17513537   6.304   1.811   1.081 -0.3230 -0.2351  0.7229
   52MOL   H17613538   6.591   2.125   0.992 -1.5146 -0.5946  0.3179
   52MOL   H17713539   6.716   2.010   1.042 -0.2965  2.6494  1.3625
   52MOL   H17813540   6.549   1.820   0.973  2.1255  0.3407 -1.1808
   52MOL   H17913541   6.358   2.155   1.038 -1.1241  0.6851  0.0501
   52MOL   H18013542   6.394   2.113   1.192  0.3426  1.2449 -0.9351
   52MOL   H18113543   6.235   2.058   1.125  0.3560 -0.8092  0.8061
   52MOL   H18213544   6.268   1.827   1.183  0.8203  0.4198  1.0353
   52MOL   H18313545   6.352   1.714   1.072 -1.3868 -0.5993 -1.2397
   52MOL   C18413546   6.188   1.801   0.974  0.3711 -0.3149 -0.6606
   52MOL   C18513547   6.083   1.702   1.024  0.3411  0.6457 -0.0427
   52MOL   C18613548   6.022   1.610   0.952 -0.1912 -0.2266 -0.0481
   52MOL   C18713549   5.922   1.509   1.007  0.0531  0.1383 -1.1736
   52MOL   C18813550   6.043   1.596   0.801  0.2750 -0.3070 -0.7073
   52MOL   H18913551   6.232   1.775   0.878 -0.6363 -0.3195 -1.1317
   52MOL   H19013552   6.141   1.899   0.962 -1.1303 -1.0543 -0.9582
   52MOL   H19113553   6.061   1.714   1.129  2.7118  0.8240  0.4688
   52MOL   H19213554   5.959   1.407   1.017  0.3780  0.3098 -0.6117
   52MOL   H19313555   5.827   1.506   0.952 -0.0685  0.3580 -0.9759
   52MOL   H19413556   5.897   1.537   1.109 -0.2775 -2.6032 -0.4616
   52MOL   H19513557   6.087   1.688   0.762  0.4869  0.2391  0.7795
   52MOL   H19613558   5.943   1.589   0.759 -0.4123 -0.6152  0.9231
   52MOL   C19713559   6.130   1.473   0.763  0.2445 -0.5195  0.4011
   52MOL   C19813560   6.128   1.459   0.606  0.8734 -0.3642  0.0697
   52MOL   C19913561   6.234   1.439   0.524 -0.4581  0.5460 -0.2595
   52MOL   C20013562   6.222   1.430   0.375  0.1426 -1.2426  0.3418
   52MOL   C20113563   6.375   1.416   0.579 -0.6338  0.4567  0.9331
   52MOL   H20213564   6.090   1.380   0.804 -1.4145  0.0717  0.1752
   52MOL   H20313565   6.235   1.490   0.788  1.2890 -0.8667 -3.4470
   52MOL   H20413566   6.033   1.457   0.554  0.9570  1.6315 -0.1842
   52MOL   H20513567   6.116   1.431   0.347  0.6835  1.6326 -1.8091
   52MOL   H20613568   6.259   1.335   0.339  0.8958 -1.3077  1.2800
   52MOL   H20713569   6.282   1.515   0.342 -1.0417 -0.5666 -0.1478
   52MOL   H20813570   6.400   1.483   0.661  2.1378  0.3479  0.2497
   52MOL   H20913571   6.438   1.441   0.494 -2.3082 -0.7710 -0.6915
   52MOL   C21013572   6.400   1.265   0.616 -0.3758 -0.3681 -0.5330
   52MOL   C21113573   6.545   1.239   0.663 -0.6663  0.1512  0.0525
   52MOL   C21213574   6.595   1.142   0.746  0.2479  0.2091 -0.3224
   52MOL   C21313575   6.742   1.135   0.774  0.3906  1.0639  0.1706
   52MOL   C21413576   6.509   1.033   0.814 -0.6333 -0.3918 -0.3244
   52MOL   H21513577   6.377   1.209   0.525 -1.5332 -0.3358 -0.2657
   52MOL   H21613578   6.335   1.240   0.699 -0.2889 -0.4210 -0.4810
   52MOL   H21713579   6.614   1.315   0.629  0.1938  0.6358  2.7461
   52MOL   H21813580   6.784   1.035   0.765 -1.8748  0.2590 -1.9467
   52MOL   H21913581   6.767   1.177   0.872  0.9214 -0.8453  0.8742
   52MOL   H22013582   6.808   1.186   0.704 -1.4689  2.8937 -0.2960
   52MOL   H22113583   6.404   1.061   0.821  0.2897  2.7091  2.3817
   52MOL   H22213584   6.523   1.034   0.922 -0.1664  0.0631 -0.3848
   52MOL   C22313585   6.515   0.892   0.751  0.2885 -0.2511 -0.2616
   52MOL   C22413586   6.420   0.791   0.811  0.0405 -0.3047 -0.3943
   52MOL   C22513587   6.430   0.654   0.811 -0.7003  0.0659  0.0714
   52MOL   C22613588   6.332   0.569   0.889  0.2007 -0.5634 -0.8818
   52MOL   C22713589   6.542   0.584   0.743 -0.0172  0.6047  0.1064
   52MOL   H22813590   6.618   0.856   0.759  0.0004 -1.2151 -0.8330
   52MOL   H22913591   6.482   0.898   0.647 -0.9804 -0.4630  0.1304
   52MOL   H23013592   6.338   0.831   0.869  0.0666 -1.7758  0.6826
   52MOL   H23113593   6.239   0.626   0.886  1.0024  0.7966 -0.2108
   52MOL   H23213594   6.366   0.553   0.991 -0.0949  1.4773 -0.4309
   52MOL   H23313595   6.303   0.477   0.838  1.0884 -2.3850  1.7689
   52MOL   H23413596   6.618   0.655   0.713  1.9225 -0.4209  2.4236
   52MOL   H23513597   6.506   0.527   0.657 -1.9981  0.2814  1.1195
   52MOL   C23613598   6.614   0.494   0.842 -0.2892 -0.2013  0.3843
   52MOL   C23713599   6.732   0.428   0.782  0.2465 -0.2969  0.1202
   52MOL   C23813600   6.778   0.310   0.830 -0.2699  0.1489  0.2528
   52MOL   C23913601   6.893   0.245   0.750  0.1876 -0.0139 -0.4751
   52MOL   C24013602   6.729   0.235   0.957  0.1023 -0.0069  0.6199
   52MOL   H24113603   6.548   0.418   0.884  0.3558 -0.3074  1.2184
   52MOL   H24213604   6.645   0.559   0.923 -0.2110  0.6825 -0.3419
   52MOL   H24313605   6.767   0.474   0.691  0.6666 -1.6803 -0.4180
   52MOL   H24413606   6.874   0.142   0.718  3.0276  0.0993 -2.7101
   52MOL   H24513607   6.974   0.244   0.822  0.2912 -0.3340 -0.5943
   52MOL   H24613608   6.925   0.296   0.659 -0.6681 -0.0991 -0.8265
   52MOL   H24713609   6.776   0.138   0.944  1.3488  0.6271  0.3245
   52MOL   H24813610   6.622   0.232   0.978  0.0572  1.9708  0.7686
   52MOL   C24913611   6.798   0.304   1.084  0.4051  0.6858  0.2182
   52MOL   C25013612   6.769   0.231   1.216 -0.5204 -0.2223  0.6413
   52MOL   C25113613   6.666   0.259   1.299  0.2285 -0.2961 -0.5284
   52MOL   C25213614   6.638   0.154   1.409  0.1219 -1.2950  0.1317
   52MOL   C25313615   6.553   0.350   1.276  0.0252 -0.0391  0.4670
   52MOL   H25413616   6.756   0.405   1.091 -1.5788  0.0492 -1.8182
   52MOL   H25513617   6.906   0.315   1.077  0.6656 -1.7789  0.0657
   52MOL   H25613618   6.831   0.146   1.241 -1.2149 -0.4388  1.6940
   52MOL   H25713619   6.534   0.123   1.418 -0.6805  1.2842  0.3345
   52MOL   H25813620   6.665   0.206   1.501  1.2226 -2.2269  0.3496
   52MOL   H25913621   6.706   0.069   1.408  0.2794 -1.1659 -0.4574
   52MOL   H26013622   6.581   0.447   1.235 -0.9221  0.7893  1.7498
   52MOL   H26113623   6.507   0.370   1.373  0.4623  2.3932  0.1939
   52MOL   H26213624   6.480   0.302   1.211  1.1593 -0.9008 -0.2007
   53MOL     C113625   5.121   3.248   6.726 -0.2931  0.5639  0.3169
   53MOL     C213626   5.246   3.179   6.681  0.0794  0.5735  0.4187
   53MOL     C313627   5.258   3.100   6.571  0.1173  0.2188 -0.1791
   53MOL     C413628   5.401   3.055   6.532 -0.6145 -0.1629  0.2313
   53MOL     C513629   5.149   3.051   6.474  0.1710 -0.3238 -0.3461
   53MOL     H613630   5.088   3.191   6.813  0.3510  2.3031  1.7259
   53MOL     H713631   5.133   3.343   6.777  0.9014  0.8208 -0.4160
   53MOL     H813632   5.337   3.198   6.736  0.0092 -1.1127  1.1572
   53MOL     H913633   5.448   3.089   6.440 -0.2498 -0.3305  0.3557
   53MOL    H1013634   5.397   2.948   6.512  0.4708 -0.0827 -0.4243
   53MOL    H1113635   5.468   3.061   6.617  1.8190  2.6308 -1.7615
   53MOL    H1213636   5.055   3.049   6.529  1.3008 -0.7218  1.6091
   53MOL    H1313637   5.174   2.948   6.448  1.5000  0.1473 -0.9423
   53MOL    H1413638   5.037   3.244   6.657  0.8000  2.6575 -1.1839
   53MOL    C1513639   5.147   3.125   6.334  0.4926  0.5195  0.5764
   53MOL    C1613640   5.116   3.270   6.352  0.1273  0.2890 -0.1466
   53MOL    C1713641   5.012   3.337   6.303  0.2695 -0.1007  0.9985
   53MOL    C1813642   4.989   3.478   6.345 -0.6813  0.5121 -0.2258
   53MOL    C1913643   4.888   3.267   6.256  0.3557 -0.0509  0.5457
   53MOL    H2013644   5.089   3.062   6.265  2.4301 -2.0161  1.1759
   53MOL    H2113645   5.248   3.124   6.293 -0.2040 -2.7756 -1.2444
   53MOL    H2213646   5.191   3.343   6.381  0.1852  0.1638  0.0260
   53MOL    H2313647   4.937   3.488   6.441  0.0471  0.2804  0.1937
   53MOL    H2413648   4.932   3.515   6.259  0.1669  2.2529 -0.0723
   53MOL    H2513649   5.082   3.534   6.342 -0.9915  1.0189 -0.6031
   53MOL    H2613650   4.799   3.311   6.301 -0.3807  0.8353 -1.7133
   53MOL    H2713651   4.893   3.163   6.289 -1.7033 -0.0180  0.9896
   53MOL    C2813652   4.881   3.260   6.107  0.3660  0.6206 -0.1241
   53MOL    C2913653   4.737   3.221   6.075  0.0706  0.3691 -0.0501
   53MOL    C3013654   4.687   3.099   6.062 -0.0741 -0.5402 -0.0206
   53MOL    C3113655   4.538   3.072   6.043 -0.2929 -0.3707  0.3449
   53MOL    C3213656   4.772   2.965   6.082  0.2225 -0.5994 -0.2076
   53MOL    H3313657   4.960   3.192   6.073 -0.3106  0.6017 -1.6923
   53MOL    H3413658   4.901   3.360   6.068  0.8933  0.6088  0.1067
   53MOL    H3513659   4.666   3.303   6.075  0.5955  0.8322 -1.2162
   53MOL    H3613660   4.475   3.160   6.050 -0.0791 -0.1037 -1.0072
   53MOL    H3713661   4.500   3.010   6.125  0.7361  1.2687  2.1191
   53MOL    H3813662   4.516   3.038   5.942  0.2065 -2.0070  0.7735
   53MOL    H3913663   4.875   2.987   6.054 -0.0385  1.0627  0.0527
   53MOL    H4013664   4.722   2.898   6.011  0.4024  0.2035 -1.1021
   53MOL    C4113665   4.769   2.909   6.222  0.3137  0.6948  0.0552
   53MOL    C4213666   4.846   2.776   6.219 -0.8662  0.1521  0.7789
   53MOL    C4313667   4.799   2.653   6.202 -0.7834 -0.2913 -1.0505
   53MOL    C4413668   4.897   2.542   6.214 -0.6179 -0.3938 -0.5624
   53MOL    C4513669   4.651   2.614   6.179  0.4184  0.0137 -0.3313
   53MOL    H4613670   4.673   2.888   6.269 -0.2668  0.0548 -1.3539
   53MOL    H4713671   4.827   2.971   6.289  0.3606  0.9912 -0.2560
   53MOL    H4813672   4.953   2.790   6.206 -1.2946  0.7119 -2.4400
   53MOL    H4913673   4.892   2.471   6.131  3.0092 -1.3804 -0.0188
   53MOL    H5013674   4.866   2.472   6.292 -1.4254  0.2067 -0.3484
   53MOL    H5113675   5.002   2.565   6.233 -0.5737 -0.2250 -0.9935
   53MOL    H5213676   4.600   2.707   6.204 -0.3172 -0.2725 -0.7540
   53MOL    H5313677   4.642   2.532   6.250 -0.1873 -0.8839 -1.4262
   53MOL    C5413678   4.614   2.577   6.034 -0.4806 -0.5774  0.0398
   53MOL    C5513679   4.465   2.534   6.022 -0.3755 -1.1365 -0.2515
   53MOL    C5613680   4.423   2.404   6.023 -0.1826  0.5124 -0.1844
   53MOL    C5713681   4.272   2.371   6.017 -0.6554  0.3557  1.0176
   53MOL    C5813682   4.518   2.283   6.042  0.0693  0.4593  0.5794
   53MOL    H5913683   4.682   2.502   5.993  1.8361  0.8999  1.0427
   53MOL    H6013684   4.639   2.660   5.968 -1.3290  0.9904  1.6285
   53MOL    H6113685   4.393   2.615   6.020 -0.5945 -1.3355 -0.4517
   53MOL    H6213686   4.251   2.266   5.995  0.6144  0.2492  0.2383
   53MOL    H6313687   4.221   2.440   5.950  0.6986 -0.4996 -0.9414
   53MOL    H6413688   4.225   2.387   6.114  0.7899  1.6820  1.5125
   53MOL    H6513689   4.463   2.235   6.123 -2.3157 -0.2076 -1.3827
   53MOL    H6613690   4.617   2.306   6.080  0.1766  0.2232  0.4450
   53MOL    C6713691   4.534   2.194   5.925 -0.4396 -0.2700  1.2308
   53MOL    C6813692   4.601   2.257   5.805 -0.2176  0.4867  0.1338
   53MOL    C6913693   4.705   2.210   5.730  0.6903 -0.5056  0.7418
   53MOL    C7013694   4.756   2.283   5.604 -1.4718  0.0902 -0.9597
   53MOL    C7113695   4.768   2.066   5.748 -0.1081  0.5787 -0.3524
   53MOL    H7213696   4.437   2.160   5.888  0.1322 -0.1772 -0.3818
   53MOL    H7313697   4.591   2.103   5.948  0.5832  0.4460  1.5543
   53MOL    H7413698   4.574   2.359   5.782 -0.3015  0.3032 -0.5919
   53MOL    H7513699   4.694   2.365   5.567 -2.5810  0.6152  1.9391
   53MOL    H7613700   4.762   2.216   5.518  0.9620  0.0548 -0.8226
   53MOL    H7713701   4.856   2.327   5.617 -0.8067 -2.0043  1.3342
   53MOL    H7813702   4.766   2.014   5.652  0.5141 -0.3842  0.1576
   53MOL    H7913703   4.716   1.994   5.810 -0.6608  1.3804  0.1320
   53MOL    C8013704   4.915   2.063   5.803  0.5366 -0.9873  0.1549
   53MOL    C8113705   4.918   2.123   5.945 -0.3544 -0.1300 -0.1783
   53MOL    C8213706   4.961   2.056   6.056 -0.1044  0.3993  0.2663
   53MOL    C8313707   5.031   1.921   6.057 -0.5668  0.3428 -0.4464
   53MOL    C8413708   4.940   2.120   6.192  0.3394 -0.6178  0.1703
   53MOL    H8513709   4.987   2.123   5.746 -1.3164  1.8354  0.7009
   53MOL    H8613710   4.943   1.959   5.815  0.2347 -0.8598  2.0728
   53MOL    H8713711   4.858   2.212   5.956 -1.8874 -0.7861 -2.8544
   53MOL    H8813712   5.001   1.872   6.149  1.0148 -0.2931 -0.2552
   53MOL    H8913713   5.140   1.931   6.058 -0.4941 -0.4481  0.5786
   53MOL    H9013714   5.003   1.844   5.986  1.6591 -0.5472 -0.4021
   53MOL    H9113715   4.883   2.053   6.257  3.6665 -0.6994  3.1403
   53MOL    H9213716   4.896   2.220   6.197 -1.6125 -1.4498  0.3635
   53MOL    C9313717   5.077   2.138   6.259 -0.4074  0.3959 -0.3924
   53MOL    C9413718   5.060   2.206   6.399  0.6246 -0.3924 -0.3678
   53MOL    C9513719   5.152   2.287   6.454  0.6539 -0.1926 -0.2975
   53MOL    C9613720   5.118   2.349   6.585  0.0367  0.2452 -0.1537
   53MOL    C9713721   5.276   2.335   6.385 -0.2897 -0.7027  0.2888
   53MOL    H9813722   5.141   2.192   6.190 -0.9122 -0.0393 -1.2137
   53MOL    H9913723   5.134   2.046   6.270 -0.9429  0.2904  1.6438
   53MOL   H10013724   4.973   2.180   6.456  0.0103  0.2820 -0.9860
   53MOL   H10113725   5.115   2.457   6.594  0.8245  0.0490  2.9631
   53MOL   H10213726   5.017   2.312   6.600 -0.5057  0.2690 -3.5099
   53MOL   H10313727   5.182   2.317   6.667 -1.0087 -0.8247  0.2531
   53MOL   H10413728   5.314   2.251   6.328 -0.1559 -0.8549  0.6063
   53MOL   H10513729   5.346   2.346   6.467  0.1890  2.2830 -0.4466
   53MOL   C10613730   5.268   2.470   6.308 -0.3955 -0.9870 -0.2589
   53MOL   C10713731   5.393   2.502   6.234  0.3375  0.1578 -0.1740
   53MOL   C10813732   5.434   2.624   6.196  0.3645  0.0106  0.3639
   53MOL   C10913733   5.353   2.753   6.227  0.0950  0.5279  0.0458
   53MOL   C11013734   5.568   2.652   6.126 -0.3976 -0.1445  0.8632
   53MOL   H11113735   5.231   2.548   6.373  0.0062 -0.2541 -0.8970
   53MOL   H11213736   5.195   2.467   6.227 -0.9347 -1.1988  0.2382
   53MOL   H11313737   5.453   2.417   6.206  1.2204  1.3680 -2.0982
   53MOL   H11413738   5.245   2.744   6.230  0.2842 -1.9173  0.4945
   53MOL   H11513739   5.393   2.787   6.322 -0.3730  1.8842 -0.2400
   53MOL   H11613740   5.386   2.834   6.162  2.6157 -0.7926 -0.4038
   53MOL   H11713741   5.556   2.712   6.035  1.8392  3.0740  2.6072
   53MOL   H11813742   5.607   2.552   6.109 -0.2343  0.2166 -0.9825
   53MOL   C11913743   5.667   2.730   6.218 -0.4693 -0.1736  0.2720
   53MOL   C12013744   5.809   2.743   6.155  0.1198 -0.2227 -0.3978
   53MOL   C12113745   5.873   2.853   6.099 -0.3223  0.3194 -0.2813
   53MOL   C12213746   6.016   2.852   6.051  0.3515  0.2038 -0.2123
   53MOL   C12313747   5.813   2.992   6.086 -0.4276 -0.4132 -0.1628
   53MOL   H12413748   5.675   2.674   6.311  1.7737 -0.1561  0.1127
   53MOL   H12513749   5.632   2.832   6.228  2.7060  1.3405 -2.8423
   53MOL   H12613750   5.863   2.650   6.158 -0.5604 -0.6405 -1.1706
   53MOL   H12713751   6.077   2.932   6.091  0.3558 -0.5457  1.3306
   53MOL   H12813752   6.022   2.872   5.944  2.5691 -0.9954 -0.3499
   53MOL   H12913753   6.058   2.753   6.068  0.6717  0.2641 -0.6654
   53MOL   H13013754   5.879   3.069   6.127 -0.0933 -0.6925 -0.1718
   53MOL   H13113755   5.724   2.997   6.148 -0.7575  1.4635 -0.7409
   53MOL   C13213756   5.756   3.013   5.942 -0.1848 -0.1667  0.4092
   53MOL   C13313757   5.638   3.111   5.905  0.1547  0.2389  0.2027
   53MOL   C13413758   5.519   3.083   5.848  0.2345  0.8870  0.5205
   53MOL   C13513759   5.412   3.184   5.839 -0.0415  0.1896  0.2164
   53MOL   C13613760   5.482   2.950   5.789 -0.2941  0.7254  0.7179
   53MOL   H13713761   5.745   2.916   5.893 -1.7977 -0.0586  0.5390
   53MOL   H13813762   5.837   3.065   5.890 -2.8421  2.4121 -1.3493
   53MOL   H13913763   5.659   3.205   5.953  3.1236 -0.9959  1.4371
   53MOL   H14013764   5.445   3.283   5.872  0.0233  0.5056 -0.7818
   53MOL   H14113765   5.354   3.148   5.924 -0.3389 -0.1570 -0.1340
   53MOL   H14213766   5.362   3.178   5.742  1.2025  1.0560 -0.4920
   53MOL   H14313767   5.374   2.945   5.779 -0.1382 -0.1871 -0.6095
   53MOL   H14413768   5.495   2.871   5.864 -2.0076 -0.9780 -0.7219
   53MOL   C14513769   5.553   2.922   5.658  0.4701  0.2015 -0.2627
   53MOL   C14613770   5.496   2.789   5.595 -0.7875  0.0130  0.7452
   53MOL   C14713771   5.502   2.749   5.470 -0.4358  0.3193 -0.1082
   53MOL   C14813772   5.444   2.611   5.429  0.2256 -0.4667 -1.1556
   53MOL   C14913773   5.576   2.826   5.359  0.2713 -0.5650  0.6112
   53MOL   H15013774   5.653   2.893   5.690 -0.4986 -1.3597  1.3626
   53MOL   H15113775   5.561   3.009   5.592 -0.5614 -0.8467 -1.8067
   53MOL   H15213776   5.452   2.720   5.666  1.8615  0.7816  3.2850
   53MOL   H15313777   5.374   2.569   5.502  0.4440  0.5775 -0.3339
   53MOL   H15413778   5.524   2.541   5.406  1.1788  0.3298 -0.2965
   53MOL   H15513779   5.390   2.627   5.336 -0.0157 -3.0730 -1.5057
   53MOL   H15613780   5.599   2.930   5.381  0.3709 -0.5667  0.5156
   53MOL   H15713781   5.523   2.846   5.266 -0.3515  0.2637  1.1340
   53MOL   C15813782   5.709   2.767   5.322 -0.0113  0.4936 -0.1646
   53MOL   C15913783   5.823   2.810   5.411  0.1418  0.2923  0.4131
   53MOL   C16013784   5.867   2.755   5.526 -0.2016 -0.3694 -1.3279
   53MOL   C16113785   5.807   2.633   5.593 -0.5043  0.2831  0.0757
   53MOL   C16213786   5.986   2.810   5.609  0.0295 -0.4480 -0.1993
   53MOL   H16313787   5.750   2.805   5.228  2.1012 -0.7233  0.2085
   53MOL   H16413788   5.708   2.658   5.317  1.3608  0.3207  2.2959
   53MOL   H16513789   5.871   2.900   5.376 -1.8537  0.6748 -1.4455
   53MOL   H16613790   5.722   2.589   5.542  1.5185 -2.7063 -0.8676
   53MOL   H16713791   5.769   2.663   5.690  1.8839  0.0203  1.1439
   53MOL   H16813792   5.891   2.563   5.601 -0.0819  0.6774 -0.8739
   53MOL   H16913793   6.071   2.747   5.586  0.3873 -0.3660  0.8800
   53MOL   H17013794   5.946   2.812   5.711 -1.1836 -0.9707 -0.6578
   53MOL   C17113795   6.042   2.950   5.574  0.2744  0.4039  0.2057
   53MOL   C17213796   6.157   2.981   5.671  0.3030 -0.1543 -0.2972
   53MOL   C17313797   6.172   3.080   5.761  0.4653 -0.2403 -0.4436
   53MOL   C17413798   6.060   3.181   5.790 -0.5857 -0.2917 -0.4040
   53MOL   C17513799   6.300   3.101   5.835  0.0682  0.2900 -0.2806
   53MOL   H17613800   5.965   3.026   5.588  0.8775  1.1466 -0.4472
   53MOL   H17713801   6.076   2.953   5.471 -4.4547  1.7922 -1.4364
   53MOL   H17813802   6.239   2.911   5.669  1.5205  1.2562 -1.6305
   53MOL   H17913803   6.057   3.205   5.896  1.7642 -2.9665  0.3191
   53MOL   H18013804   5.962   3.146   5.760 -1.2219  1.5315 -0.5351
   53MOL   H18113805   6.098   3.265   5.731  0.5343  0.7583  1.7610
   53MOL   H18213806   6.354   3.007   5.829 -1.2496 -0.5004 -0.0364
   53MOL   H18313807   6.270   3.109   5.939 -1.9234 -1.8837 -0.6266
   53MOL   C18413808   6.385   3.217   5.796  0.5709  0.6430 -0.1299
   53MOL   C18513809   6.519   3.210   5.864  0.6090 -0.4021  0.0854
   53MOL   C18613810   6.641   3.190   5.810 -0.4372  0.2008 -0.0909
   53MOL   C18713811   6.762   3.197   5.898  0.2628  0.5616  0.7734
   53MOL   C18813812   6.669   3.141   5.673 -0.0436  0.3546  0.5951
   53MOL   H18913813   6.339   3.313   5.818 -2.1259 -0.7786  0.5664
   53MOL   H19013814   6.398   3.202   5.689 -1.3214 -3.6805  0.1653
   53MOL   H19113815   6.516   3.236   5.969  0.1366  0.0465 -0.0383
   53MOL   H19213816   6.803   3.097   5.903 -2.1324 -0.4690  0.3000
   53MOL   H19313817   6.715   3.215   5.995 -0.4774 -1.6080  0.8294
   53MOL   H19413818   6.837   3.271   5.870  0.2848  0.4916  0.6494
   53MOL   H19513819   6.577   3.097   5.633  0.1507 -0.8877  1.5012
   53MOL   H19613820   6.740   3.060   5.688 -1.4703 -0.8590  0.9648
   53MOL   C19713821   6.743   3.241   5.586  0.2300  0.1761 -0.4726
   53MOL   C19813822   6.791   3.184   5.453 -0.5140  0.1936  0.2538
   53MOL   C19913823   6.732   3.210   5.336 -0.2158  0.6187  0.4851
   53MOL   C20013824   6.785   3.160   5.204  0.2334 -0.7007  0.0449
   53MOL   C20113825   6.616   3.298   5.315  0.0884 -0.5342  0.2521
   53MOL   H20213826   6.841   3.259   5.632 -1.1216  3.5594  1.2719
   53MOL   H20313827   6.682   3.329   5.566  1.6659  0.9280 -1.6037
   53MOL   H20413828   6.884   3.130   5.462 -0.1106  0.6825 -0.9166
   53MOL   H20513829   6.844   3.233   5.149 -0.6684  0.0590  0.0850
   53MOL   H20613830   6.697   3.130   5.146  0.0732  0.4459 -0.3208
   53MOL   H20713831   6.847   3.073   5.226 -0.7667 -0.8869  2.2635
   53MOL   H20813832   6.542   3.308   5.394  0.7060  1.8674  0.5554
   53MOL   H20913833   6.554   3.256   5.236  1.0734 -1.3974 -0.0770
   53MOL   C21013834   6.658   3.440   5.276 -1.0058 -0.5920 -0.3459
   53MOL   C21113835   6.539   3.531   5.267  0.2565 -0.1625 -0.0632
   53MOL   C21213836   6.471   3.558   5.152  0.1249 -0.0947  0.5615
   53MOL   C21313837   6.359   3.658   5.154 -0.7543 -1.0917 -0.1851
   53MOL   C21413838   6.505   3.512   5.015 -0.2322  0.7543  1.0772
   53MOL   H21513839   6.717   3.433   5.184 -1.5922 -2.4124 -0.6142
   53MOL   H21613840   6.729   3.481   5.348  0.3356  0.8760 -2.4345
   53MOL   H21713841   6.511   3.558   5.367  2.6396  0.1713  0.5384
   53MOL   H21813842   6.310   3.651   5.252  0.5686 -0.1475  0.5614
   53MOL   H21913843   6.300   3.634   5.066 -1.5808  1.8902 -0.4910
   53MOL   H22013844   6.391   3.760   5.135  0.3949 -1.1643  1.2465
   53MOL   H22113845   6.426   3.491   4.943  0.5287  0.6638  0.2473
   53MOL   H22213846   6.563   3.420   5.018 -0.4469  0.4913 -1.4014
   53MOL   C22313847   6.593   3.614   4.948 -0.6774 -0.8006 -0.2309
   53MOL   C22413848   6.656   3.562   4.823  0.1900 -0.0274 -0.0536
   53MOL   C22513849   6.785   3.541   4.802 -0.4296 -0.0369 -0.5917
   53MOL   C22613850   6.836   3.502   4.663 -0.0537  0.1984  0.2281
   53MOL   C22713851   6.896   3.571   4.903  0.7727  0.1643  0.3515
   53MOL   H22813852   6.663   3.670   5.010 -2.4106 -0.1624  1.2117
   53MOL   H22913853   6.522   3.693   4.922 -0.3757 -0.1404  0.9123
   53MOL   H23013854   6.581   3.535   4.750  0.5400 -0.8324 -0.1149
   53MOL   H23113855   6.879   3.586   4.608  0.5858  0.5001  1.1936
   53MOL   H23213856   6.746   3.475   4.607 -0.7938  2.7361  0.1223
   53MOL   H23313857   6.906   3.419   4.661  0.7014  0.8226  0.7601
   53MOL   H23413858   6.873   3.658   4.966  0.6509  0.3706  0.0201
   53MOL   H23513859   6.984   3.606   4.851  1.0159 -0.5040  0.3189
   53MOL   C23613860   6.947   3.461   4.994 -0.6193  0.2079  0.5138
   53MOL   C23713861   7.094   3.430   4.970  0.2192  0.4287 -0.6048
   53MOL   C23813862   7.198   3.421   5.058 -0.6353 -0.0495  0.1499
   53MOL   C23913863   7.339   3.390   5.013 -0.3442 -0.2347  0.5435
   53MOL   C24013864   7.179   3.432   5.205  0.8672  0.4622  0.7276
   53MOL   H24113865   6.895   3.367   4.976 -0.2970  0.0546  0.3887
   53MOL   H24213866   6.928   3.478   5.101  1.2025 -0.0235  0.8856
   53MOL   H24313867   7.105   3.417   4.863  0.2371 -0.9808 -0.4455
   53MOL   H24413868   7.418   3.442   5.065  0.8968  0.0172 -1.5375
   53MOL   H24513869   7.354   3.394   4.905 -3.0708 -2.8717 -0.0408
   53MOL   H24613870   7.356   3.282   5.014 -0.9466 -0.3268  1.4105
   53MOL   H24713871   7.082   3.481   5.220  0.6006 -0.2092  1.1912
   53MOL   H24813872   7.253   3.498   5.250  1.4198  0.8954 -0.7979
   53MOL   C24913873   7.195   3.305   5.289  0.2824 -0.5072  0.2704
   53MOL   C25013874   7.175   3.344   5.436 -0.4654  0.0197 -0.9190
   53MOL   C25113875   7.270   3.330   5.536  0.8681  0.1738  0.1103
   53MOL   C25213876   7.240   3.360   5.681 -0.2125  0.2339 -0.0819
   53MOL   C25313877   7.418   3.302   5.521  0.3746 -0.0460  0.1848
   53MOL   H25413878   7.299   3.273   5.281  1.0119  1.8087  0.1266
   53MOL   H25513879   7.126   3.224   5.265  0.1359 -0.8042  1.6737
   53MOL   H25613880   7.077   3.377   5.468  0.6654  1.0310  1.6027
   53MOL   H25713881   7.223   3.466   5.694 -0.3389  0.1060  0.7846
   53MOL   H25813882   7.311   3.308   5.745 -0.2284 -2.1394 -1.8970
   53MOL   H25913883   7.146   3.309   5.703 -0.0915  0.6314  1.3595
   53MOL   H26013884   7.453   3.286   5.419  0.4715 -1.7636  0.4720
   53MOL   H26113885   7.447   3.207   5.566 -1.8107  0.0804  1.9299
   53MOL   H26213886   7.480   3.384   5.559  1.6145  0.3329 -2.5506
   54MOL     C113887   0.320   1.830   2.833 -0.0577 -0.1814 -0.1549
   54MOL     C213888   0.182   1.795   2.777  0.5167 -0.4955 -0.3265
   54MOL     C313889   0.071   1.789   2.847  0.7522 -0.2215 -0.2809
   54MOL     C413890   7.817   1.762   2.768  0.2042  0.0396 -0.1502
   54MOL     C513891   0.063   1.815   2.999  0.0558  0.2701 -0.4870
   54MOL     H613892   0.327   1.923   2.891  0.5729 -0.5163  0.3021
   54MOL     H713893   0.345   1.756   2.909 -3.0526 -0.5083  0.5928
   54MOL     H813894   0.188   1.774   2.671  2.9576  3.3306 -1.0740
   54MOL     H913895   7.777   1.663   2.790 -0.6653  0.3198 -0.4465
   54MOL    H1013896   7.837   1.767   2.661 -2.9337 -1.3535 -0.8483
   54MOL    H1113897   7.733   1.830   2.786  2.3879  1.8729  3.7803
   54MOL    H1213898   7.864   1.887   3.022 -0.0619  0.4479 -1.4085
   54MOL    H1313899   0.159   1.852   3.035 -0.0156 -0.2273  0.2241
   54MOL    H1413900   0.388   1.832   2.748 -1.2738  1.2634 -1.1229
   54MOL    C1513901   0.022   1.687   3.070 -0.9458  0.6173 -0.4211
   54MOL    C1613902   7.859   1.717   3.212  0.8336 -0.5499 -0.1570
   54MOL    C1713903   0.028   1.664   3.327 -0.3359  1.0980 -0.2253
   54MOL    C1813904   7.873   1.719   3.464 -0.0214 -0.6407  0.2146
   54MOL    C1913905   0.122   1.543   3.329 -0.2504 -0.5020  0.4628
   54MOL    H2013906   0.101   1.612   3.062 -0.8761  0.1668  3.6925
   54MOL    H2113907   7.814   1.641   3.022 -0.8985 -0.4843  0.5213
   54MOL    H2213908   7.795   1.803   3.220  0.4081 -0.5897 -2.7754
   54MOL    H2313909   7.807   1.805   3.453  0.2193 -0.4916 -0.0755
   54MOL    H2413910   0.075   1.771   3.516 -0.4187 -1.3646  1.5550
   54MOL    H2513911   7.823   1.644   3.525 -1.4608 -0.6224 -0.9142
   54MOL    H2613912   0.101   1.477   3.244  0.2745 -1.4701  1.0784
   54MOL    H2713913   0.095   1.490   3.421  0.6359 -0.8256  0.5423
   54MOL    C2813914   0.261   1.591   3.329  0.0611  0.1903  0.7435
   54MOL    C2913915   0.371   1.488   3.314 -0.8456  0.6325  0.2949
   54MOL    C3013916   0.505   1.505   3.339  0.5503 -0.4957 -0.8381
   54MOL    C3113917   0.604   1.402   3.295 -0.7301 -0.2844 -0.7932
   54MOL    C3213918   0.553   1.633   3.409  0.1597 -0.6179 -0.2305
   54MOL    H3313919   0.279   1.633   3.428  0.1419 -2.0550  1.6974
   54MOL    H3413920   0.274   1.677   3.263 -0.3164 -1.2539 -1.2764
   54MOL    H3513921   0.346   1.395   3.265 -1.7507  0.1305  1.6808
   54MOL    H3613922   0.672   1.376   3.377 -0.4069  0.1808 -0.9126
   54MOL    H3713923   0.663   1.438   3.211 -0.9604  1.9031 -0.0644
   54MOL    H3813924   0.546   1.317   3.260 -0.5553 -0.0593 -1.6444
   54MOL    H3913925   0.590   1.605   3.508  0.6471  2.4277  0.5150
   54MOL    H4013926   0.475   1.706   3.432 -0.8583 -1.5121 -0.8510
   54MOL    C4113927   0.668   1.703   3.328  0.5360 -0.3462  0.1310
   54MOL    C4213928   0.692   1.848   3.369  0.7185  0.2177  0.5905
   54MOL    C4313929   0.804   1.889   3.426 -0.6862 -0.2287 -0.1587
   54MOL    C4413930   0.806   2.040   3.459 -0.1723 -0.7722  0.7374
   54MOL    C4513931   0.927   1.811   3.455 -0.0025  0.2991  0.4767
   54MOL    H4613932   0.634   1.716   3.226  0.2020  0.1034  0.3023
   54MOL    H4713933   0.758   1.644   3.311  0.6498  0.5852 -2.7660
   54MOL    H4813934   0.606   1.913   3.363  1.0660  0.6098 -0.2268
   54MOL    H4913935   0.811   2.058   3.566 -0.7073 -0.5626  0.7284
   54MOL    H5013936   0.716   2.090   3.424  2.0981  1.3548 -2.3717
   54MOL    H5113937   0.886   2.096   3.409  0.7827 -1.6989  1.2104
   54MOL    H5213938   0.903   1.706   3.434 -1.7826  0.6518  0.6810
   54MOL    H5313939   0.959   1.823   3.559 -2.0688  1.3126  1.0188
   54MOL    C5413940   1.051   1.862   3.368  0.4938 -0.2974  0.6747
   54MOL    C5513941   1.172   1.777   3.393  0.0542  0.5301  0.3462
   54MOL    C5613942   1.301   1.815   3.413 -0.7593  0.3106  0.1970
   54MOL    C5713943   1.412   1.707   3.434  0.3499  0.2027  0.2450
   54MOL    C5813944   1.358   1.956   3.429 -0.3008  0.1102  0.5961
   54MOL    H5913945   1.079   1.965   3.390  0.2289  0.4516 -2.3093
   54MOL    H6013946   1.022   1.848   3.264  1.0958  0.9581  0.3277
   54MOL    H6113947   1.163   1.670   3.385  1.4085  0.3235  1.3312
   54MOL    H6213948   1.471   1.709   3.342  0.8942  0.9007  0.6121
   54MOL    H6313949   1.384   1.603   3.456  1.5871  0.1460  1.5989
   54MOL    H6413950   1.473   1.727   3.521  0.0276  1.3898  0.2045
   54MOL    H6513951   1.440   1.949   3.501 -1.3503  3.9499  2.3127
   54MOL    H6613952   1.288   2.023   3.479 -2.1336 -1.4127  0.0765
   54MOL    C6713953   1.413   2.020   3.303  0.0316  0.2191 -0.2955
   54MOL    C6813954   1.462   2.158   3.329  0.2493 -0.3885  0.1518
   54MOL    C6913955   1.425   2.265   3.256 -0.2416 -0.6933  0.5623
   54MOL    C7013956   1.445   2.399   3.309 -0.7369 -0.5762  0.6659
   54MOL    C7113957   1.358   2.259   3.124  0.1312 -0.3512  0.0394
   54MOL    H7213958   1.330   2.018   3.232 -0.7848  1.8563  0.6099
   54MOL    H7313959   1.494   1.966   3.252  1.1873  1.0868  0.6011
   54MOL    H7413960   1.519   2.164   3.421  1.3975 -0.7382 -0.5167
   54MOL    H7513961   1.546   2.432   3.285 -0.3458  0.0025  2.9894
   54MOL    H7613962   1.424   2.412   3.415  2.3358  0.1148  1.2496
   54MOL    H7713963   1.375   2.470   3.266  0.3243 -0.7060 -1.3248
   54MOL    H7813964   1.383   2.161   3.084 -1.2584 -0.1014 -1.4540
   54MOL    H7913965   1.401   2.331   3.054  0.9190 -0.9002 -0.0517
   54MOL    C8013966   1.211   2.290   3.137  0.4520  0.4608  0.0810
   54MOL    C8113967   1.139   2.246   3.006  0.4300 -0.1136  0.0184
   54MOL    C8213968   1.050   2.145   2.980 -0.4264 -0.6051 -0.2492
   54MOL    C8313969   1.005   2.051   3.094  0.0796  0.5088  0.1017
   54MOL    C8413970   0.995   2.119   2.843 -0.0972 -0.6114 -0.2670
   54MOL    H8513971   1.186   2.392   3.166 -1.6707 -0.5473  1.9733
   54MOL    H8613972   1.177   2.233   3.224 -0.2343  0.9390  0.1355
   54MOL    H8713973   1.162   2.302   2.917  0.6378 -2.1061 -1.2019
   54MOL    H8813974   0.896   2.045   3.101 -0.0821  2.5114 -0.4705
   54MOL    H8913975   1.038   2.071   3.196 -0.8491 -1.0825  0.7367
   54MOL    H9013976   1.049   1.953   3.074 -0.4958 -0.4240  3.0571
   54MOL    H9113977   1.021   2.208   2.785 -2.5990  0.6436  0.4670
   54MOL    H9213978   0.887   2.111   2.834 -0.4372 -0.6468  3.0556
   54MOL    C9313979   1.053   1.986   2.780 -0.5526  0.3059  0.3528
   54MOL    C9413980   1.015   1.956   2.639 -0.4625 -0.5734 -0.6629
   54MOL    C9513981   1.072   1.996   2.525  0.2093 -0.3374  0.2111
   54MOL    C9613982   1.013   1.964   2.388  0.1234 -0.0215 -0.1206
   54MOL    C9713983   1.210   2.059   2.519 -0.0588  0.5541  0.4918
   54MOL    H9813984   1.028   1.900   2.842  2.6921 -0.6319  0.4393
   54MOL    H9913985   1.161   1.990   2.796 -0.2500 -3.9874 -0.1714
   54MOL   H10013986   0.916   1.913   2.626 -0.0494 -1.7382 -0.0544
   54MOL   H10113987   1.052   1.867   2.357 -0.7745 -1.3222  2.5934
   54MOL   H10213988   0.905   1.953   2.383  0.1775  0.1311 -2.0098
   54MOL   H10313989   1.050   2.032   2.312  1.0557 -0.3045  0.0690
   54MOL   H10413990   1.225   2.103   2.618  0.7151  1.0499  0.1606
   54MOL   H10513991   1.193   2.146   2.457 -0.7386  0.5010  0.6032
   54MOL   C10613992   1.333   1.973   2.484  0.6075  0.2156  0.6492
   54MOL   C10713993   1.470   2.036   2.506 -0.0873 -0.7303 -0.9042
   54MOL   C10813994   1.548   2.017   2.615  0.0827 -0.6233  0.1473
   54MOL   C10913995   1.505   1.949   2.747  0.3782 -0.8275  0.0662
   54MOL   C11013996   1.684   2.088   2.626 -0.4031 -0.2648  0.2750
   54MOL   H11113997   1.344   1.934   2.383  1.8544  1.8933  0.1182
   54MOL   H11213998   1.323   1.882   2.544 -0.5837  0.8052  1.3595
   54MOL   H11313999   1.507   2.111   2.438  0.3045 -0.8035 -0.7710
   54MOL   H11414000   1.479   2.022   2.824  0.8519 -2.1358  1.4922
   54MOL   H11514001   1.416   1.887   2.732 -0.1599 -0.5218  1.8482
   54MOL   H11614002   1.580   1.872   2.764 -0.9406 -2.0415  0.5832
   54MOL   H11714003   1.724   2.071   2.526 -0.6438 -1.8608  0.4378
   54MOL   H11814004   1.758   2.033   2.683  0.3384  1.9773  1.5330
   54MOL   C11914005   1.671   2.234   2.655  0.2617 -0.6335  0.4518
   54MOL   C12014006   1.804   2.298   2.639 -0.2469 -0.0103 -0.4082
   54MOL   C12114007   1.820   2.419   2.582 -1.9428 -0.1664 -0.7813
   54MOL   C12214008   1.955   2.486   2.598 -0.2475  0.5288  0.4281
   54MOL   C12314009   1.714   2.511   2.526 -0.1333  0.5369  0.2355
   54MOL   H12414010   1.637   2.232   2.759 -0.0721 -0.3004  0.3490
   54MOL   H12514011   1.592   2.278   2.595  0.8565 -0.6686 -0.3539
   54MOL   H12614012   1.884   2.249   2.693 -0.0934  0.1817 -0.4579
   54MOL   H12714013   2.028   2.436   2.662 -1.3143 -0.9170  0.5338
   54MOL   H12814014   1.933   2.576   2.655  0.5117 -0.1977  1.8898
   54MOL   H12914015   2.002   2.502   2.501 -0.2317 -0.7645  0.2157
   54MOL   H13014016   1.741   2.611   2.561 -1.1864  0.2020  2.0753
   54MOL   H13114017   1.615   2.498   2.568  0.2691  0.8805  1.3061
   54MOL   C13214018   1.705   2.509   2.367 -0.8902  0.1530  0.2787
   54MOL   C13314019   1.668   2.368   2.312 -0.1551  0.0421 -0.3570
   54MOL   C13414020   1.729   2.289   2.228 -0.1616 -0.0178  0.1115
   54MOL   C13514021   1.672   2.153   2.188  0.0411  1.0110  0.0838
   54MOL   C13614022   1.873   2.311   2.175  0.1613 -0.4546 -0.0023
   54MOL   H13714023   1.799   2.535   2.318 -0.2177 -0.6365  1.1383
   54MOL   H13814024   1.631   2.582   2.335  0.9092  1.6740 -0.5097
   54MOL   H13914025   1.574   2.331   2.351  0.5641  0.2620  1.6150
   54MOL   H14014026   1.697   2.138   2.083 -0.1792 -1.3584  0.3477
   54MOL   H14114027   1.565   2.139   2.207  0.9302 -3.5196  2.2774
   54MOL   H14214028   1.728   2.074   2.237 -0.3673  1.9453  2.0926
   54MOL   H14314029   1.917   2.217   2.142  0.9244 -0.0226 -0.2461
   54MOL   H14414030   1.935   2.353   2.255  1.8565 -4.3142  0.8094
   54MOL   C14514031   1.891   2.405   2.059  0.1444  0.5670 -0.6894
   54MOL   C14614032   2.037   2.442   2.039 -0.6590  0.3698  0.2697
   54MOL   C14714033   2.086   2.568   2.014 -0.1010 -0.1296 -0.1961
   54MOL   C14814034   2.239   2.588   1.997 -0.1704 -0.3531  0.3759
   54MOL   C14914035   2.000   2.697   2.005 -0.0745 -0.5695 -0.3444
   54MOL   H15014036   1.819   2.486   2.062 -1.4595 -0.7750 -1.9133
   54MOL   H15114037   1.876   2.359   1.961 -0.4441  0.8610 -0.7403
   54MOL   H15214038   2.107   2.361   2.057 -0.3994  0.1759 -1.5026
   54MOL   H15314039   2.268   2.651   2.082  0.6691  1.8422 -1.4908
   54MOL   H15414040   2.270   2.632   1.903 -0.1263 -3.4384 -1.1187
   54MOL   H15514041   2.293   2.495   2.011  1.7021  0.1742 -2.9171
   54MOL   H15614042   1.896   2.669   1.988 -0.6695  0.9952  0.6286
   54MOL   H15714043   2.040   2.764   1.930 -0.2261  0.7906  0.7658
   54MOL   C15814044   1.998   2.775   2.143 -0.2836 -0.3141  0.3442
   54MOL   C15914045   1.959   2.919   2.113 -0.6481  0.2911  0.0361
   54MOL   C16014046   2.043   3.022   2.096  0.0060  0.1853 -0.0301
   54MOL   C16114047   2.193   3.009   2.082  0.1330 -0.5125 -0.5614
   54MOL   C16214048   1.993   3.159   2.074  0.8063  0.1128  0.0735
   54MOL   H16314049   2.091   2.781   2.199  0.0327 -0.5332 -0.1611
   54MOL   H16414050   1.924   2.748   2.219 -0.1535 -1.0870  0.1957
   54MOL   H16514051   1.854   2.945   2.110 -0.7273 -0.0834 -0.4387
   54MOL   H16614052   2.223   3.066   1.994 -0.8990  1.8241  0.5653
   54MOL   H16714053   2.219   2.904   2.071 -1.5015 -0.9026 -0.7226
   54MOL   H16814054   2.232   3.049   2.176 -0.2781 -0.9282 -0.2128
   54MOL   H16914055   2.077   3.227   2.076 -0.0483  1.1793  0.1654
   54MOL   H17014056   1.912   3.187   2.141  1.1290  1.9421 -0.2778
   54MOL   C17114057   1.941   3.182   1.935 -0.2888 -0.0337 -0.1066
   54MOL   C17214058   2.042   3.137   1.832 -0.0328  0.2577  0.7610
   54MOL   C17314059   2.030   3.049   1.731  0.5450  0.1517 -0.2407
   54MOL   C17414060   1.913   2.954   1.703 -0.4912  1.0760 -0.1899
   54MOL   C17514061   2.133   3.052   1.618  0.2793 -1.2615  0.8219
   54MOL   H17614062   1.911   3.284   1.912 -1.5730 -0.2003  0.8108
   54MOL   H17714063   1.844   3.135   1.917 -0.9427  1.1683  0.2670
   54MOL   H17814064   2.136   3.191   1.822  0.5466 -0.8512  0.2070
   54MOL   H17914065   1.944   2.849   1.699  1.6531  1.5500  2.1673
   54MOL   H18014066   1.863   2.976   1.609 -0.5654  0.3302 -0.3314
   54MOL   H18114067   1.837   2.961   1.781  0.6131  2.2138  0.8048
   54MOL   H18214068   2.158   2.947   1.602 -0.5492 -1.2120 -0.8285
   54MOL   H18314069   2.223   3.105   1.648  1.0244 -0.6652 -2.2988
   54MOL   C18414070   2.092   3.113   1.485 -0.1227  0.0262  0.6626
   54MOL   C18514071   2.128   3.258   1.464 -0.1829 -0.4264 -0.0347
   54MOL   C18614072   2.047   3.364   1.426 -0.5598 -0.1352 -0.4815
   54MOL   C18714073   2.113   3.501   1.414  0.1292  0.3049  0.1845
   54MOL   C18814074   1.902   3.368   1.403  0.0028 -0.4136  0.5061
   54MOL   H18914075   1.986   3.095   1.467 -0.1854 -0.7760  1.7611
   54MOL   H19014076   2.150   3.053   1.415  1.7660  1.1416  1.2418
   54MOL   H19114077   2.234   3.275   1.476  0.1814 -2.5193 -0.0100
   54MOL   H19214078   2.206   3.503   1.472  0.3084  0.8895 -0.1173
   54MOL   H19314079   2.039   3.570   1.452 -0.8218 -0.7955  0.3591
   54MOL   H19414080   2.145   3.523   1.312  1.5238 -0.6664  0.3852
   54MOL   H19514081   1.869   3.270   1.367  0.5434 -0.3936 -0.0500
   54MOL   H19614082   1.875   3.421   1.311  0.3296 -1.4095 -0.1681
   54MOL   C19714083   1.818   3.395   1.533 -0.0603  0.3651 -0.4198
   54MOL   C19814084   1.672   3.374   1.505  0.3601  0.2955  0.1815
   54MOL   C19914085   1.586   3.313   1.586 -0.0931 -0.5539 -0.0770
   54MOL   C20014086   1.443   3.275   1.543 -0.1333  0.0566 -0.3717
   54MOL   C20114087   1.617   3.257   1.722  0.6130  0.8992 -0.8265
   54MOL   H20214088   1.829   3.500   1.558  1.9360 -0.2752  1.5410
   54MOL   H20314089   1.865   3.350   1.621  0.2845  0.5067 -0.5327
   54MOL   H20414090   1.641   3.390   1.403  1.5930  2.6506  0.1485
   54MOL   H20514091   1.361   3.315   1.603  0.0300 -1.7617  1.1144
   54MOL   H20614092   1.427   3.167   1.550 -2.1098  0.4460  2.2920
   54MOL   H20714093   1.424   3.297   1.438  0.4808  1.0748 -0.2778
   54MOL   H20814094   1.724   3.245   1.734  0.6247 -1.1209 -2.6922
   54MOL   H20914095   1.571   3.159   1.729  2.1548  0.1431 -1.2456
   54MOL   C21014096   1.562   3.340   1.842 -0.3002 -0.2695 -0.6617
   54MOL   C21114097   1.627   3.300   1.974 -0.5480  0.4074 -0.2996
   54MOL   C21214098   1.573   3.221   2.069  0.5980 -0.4949 -0.3414
   54MOL   C21314099   1.632   3.217   2.213  0.3532 -0.3078 -0.0557
   54MOL   C21414100   1.450   3.141   2.056  0.0738  1.1070 -0.8494
   54MOL   H21514101   1.456   3.324   1.862  0.1956 -2.4222  0.3608
   54MOL   H21614102   1.578   3.445   1.819 -3.1832  0.6007  1.0815
   54MOL   H21714103   1.708   3.366   2.000  0.8623 -0.8381 -1.4508
   54MOL   H21814104   1.556   3.257   2.281  1.7003  2.1380  0.0556
   54MOL   H21914105   1.715   3.286   2.227  0.6964 -0.8336  0.4966
   54MOL   H22014106   1.670   3.119   2.242  2.6321  1.4782  3.3724
   54MOL   H22114107   1.478   3.053   2.115  0.6274  1.7928 -0.0666
   54MOL   H22214108   1.425   3.108   1.956 -1.5451  1.7693 -0.6794
   54MOL   C22314109   1.328   3.196   2.128  0.7202  0.0909 -1.0949
   54MOL   C22414110   1.201   3.114   2.131 -0.5153 -0.0742  0.2984
   54MOL   C22514111   1.114   3.091   2.230  0.3780  0.2444 -0.7204
   54MOL   C22614112   0.989   3.004   2.196 -0.4348 -0.5723 -0.2787
   54MOL   C22714113   1.119   3.157   2.371 -0.0800  0.1899  0.9029
   54MOL   H22814114   1.304   3.298   2.099 -0.5776  0.0114 -0.3202
   54MOL   H22914115   1.354   3.205   2.234  0.7554  0.8794 -1.1675
   54MOL   H23014116   1.186   3.073   2.032 -1.4126  0.8352  0.0520
   54MOL   H23114117   1.003   2.897   2.212 -0.3775 -0.4948  0.1864
   54MOL   H23214118   0.958   3.008   2.092  0.9348 -2.5564 -0.7852
   54MOL   H23314119   0.902   3.049   2.245  0.7641  1.7365 -0.2050
   54MOL   H23414120   1.024   3.188   2.414 -1.0515 -0.4993 -0.7206
   54MOL   H23514121   1.183   3.243   2.352 -1.0463  0.7952  0.3522
   54MOL   C23614122   1.198   3.060   2.468  0.3329  0.0162 -0.1758
   54MOL   C23714123   1.180   3.099   2.612  0.0487  0.3110  0.1085
   54MOL   C23814124   1.284   3.110   2.699 -0.2894 -0.2513 -0.4514
   54MOL   C23914125   1.264   3.152   2.840  0.0213  0.8101  0.3501
   54MOL   C24014126   1.434   3.094   2.659 -0.3024 -0.4334  0.0508
   54MOL   H24114127   1.303   3.055   2.438  1.2277 -2.6421  3.1248
   54MOL   H24214128   1.162   2.959   2.448  1.0836 -0.2269 -0.3234
   54MOL   H24314129   1.077   3.115   2.641 -0.8534 -1.7317 -1.7942
   54MOL   H24414130   1.158   3.170   2.854 -0.9402 -2.0384 -2.6224
   54MOL   H24514131   1.314   3.248   2.852 -1.8727  1.9634 -0.7859
   54MOL   H24614132   1.309   3.095   2.922 -1.1596  0.8713  1.0573
   54MOL   H24714133   1.485   3.149   2.738 -0.3056 -1.3249  0.6813
   54MOL   H24814134   1.469   3.142   2.567 -1.8178 -0.5026 -0.5922
   54MOL   C24914135   1.488   2.950   2.688  0.9404 -0.3760  0.5392
   54MOL   C25014136   1.630   2.942   2.638 -0.0208  0.3772 -0.5699
   54MOL   C25114137   1.683   2.915   2.516  0.6894  0.2783 -0.0454
   54MOL   C25214138   1.826   2.886   2.484  0.0716 -0.3977  0.3155
   54MOL   C25314139   1.597   2.895   2.391  0.1534  0.8209  0.4547
   54MOL   H25414140   1.428   2.879   2.630  0.4142  1.5077 -1.2755
   54MOL   H25514141   1.490   2.924   2.794 -1.9465 -1.1605  0.4467
   54MOL   H25614142   1.704   2.957   2.716  1.1297 -0.5225 -1.4729
   54MOL   H25714143   1.874   2.980   2.455 -0.7224  0.0414  0.4032
   54MOL   H25814144   1.842   2.824   2.396  2.2043  1.4433 -0.6562
   54MOL   H25914145   1.883   2.843   2.565 -0.9814 -0.6370  0.9379
   54MOL   H26014146   1.532   2.982   2.394  0.5034  1.0858  0.3549
   54MOL   H26114147   1.535   2.805   2.395 -0.1457  1.0431  0.8114
   54MOL   H26214148   1.639   2.913   2.292 -1.1220 -0.9454 -0.4378
   55MOL     C114149   3.252   0.285   2.168  0.2277  0.0544  0.2094
   55MOL     C214150   3.323   0.249   2.299 -0.2476 -0.7063 -0.3022
   55MOL     C314151   3.294   0.144   2.378  0.2996 -0.0050  0.3078
   55MOL     C414152   3.363   0.120   2.507  0.2486 -0.4422  0.3908
   55MOL     C514153   3.188   0.045   2.356  0.7654 -0.3255  0.3355
   55MOL     H614154   3.227   0.391   2.161 -1.8640 -0.5295 -2.2441
   55MOL     H714155   3.318   0.275   2.081 -2.3778 -1.5910 -1.6595
   55MOL     H814156   3.403   0.318   2.322  0.5054 -2.0764  1.2156
   55MOL     H914157   3.296   0.132   2.593  0.6499  2.2343  0.3805
   55MOL    H1014158   3.443   0.193   2.518  1.3003 -1.1098 -2.4699
   55MOL    H1114159   3.411   0.024   2.524  1.2984  0.1432  0.7829
   55MOL    H1214160   3.102   0.089   2.306  1.5240 -1.7266 -2.3084
   55MOL    H1314161   3.147   7.878   2.446  2.5253  0.2909  1.4859
   55MOL    H1414162   3.162   0.227   2.150 -0.1489  0.5617  0.4485
   55MOL    C1514163   3.241   7.809   2.264 -0.2329 -0.1729 -0.1058
   55MOL    C1614164   3.134   7.707   2.235  0.0992 -0.9721  0.0746
   55MOL    C1714165   3.039   7.711   2.135  0.3749  0.2734  0.6452
   55MOL    C1814166   2.938   7.594   2.121 -0.1672 -0.1007 -0.0229
   55MOL    C1914167   3.045   7.815   2.028 -0.2219  0.0400 -0.5068
   55MOL    H2014168   3.316   7.755   2.323  1.3168  1.0063 -0.9851
   55MOL    H2114169   3.299   7.842   2.178  2.0503  1.6100  2.0439
   55MOL    H2214170   3.139   7.621   2.300 -0.8415 -2.0478 -1.2372
   55MOL    H2314171   2.842   7.643   2.103 -0.6303 -1.1590 -0.4818
   55MOL    H2414172   2.921   7.536   2.211  0.4959 -0.0793  0.1130
   55MOL    H2514173   2.964   7.532   2.035  0.7921  1.4727 -0.9043
   55MOL    H2614174   3.069   7.766   1.933  0.3473 -1.6790  0.4944
   55MOL    H2714175   3.126   0.004   2.057  0.9402 -1.7039  0.4913
   55MOL    C2814176   2.919   0.023   2.025 -1.0950  0.5500 -0.6496
   55MOL    C2914177   2.943   0.152   1.943 -0.1382 -0.1137  0.4326
   55MOL    C3014178   2.930   0.280   1.987 -0.0175  0.3802 -0.5429
   55MOL    C3114179   2.936   0.397   1.894 -0.7216 -0.3073 -0.5694
   55MOL    C3214180   2.902   0.315   2.129 -0.1891  0.3124 -0.8544
   55MOL    H3314181   2.882   0.035   2.127  1.1990 -1.5651  0.4817
   55MOL    H3414182   2.838   7.848   1.977 -1.2548  2.0929 -2.1812
   55MOL    H3514183   2.963   0.128   1.840  0.7065  2.1898  0.0245
   55MOL    H3614184   2.987   0.478   1.947 -0.4612 -1.4700  0.9976
   55MOL    H3714185   2.835   0.419   1.861 -1.1861 -0.9492  0.4170
   55MOL    H3814186   2.996   0.370   1.807  1.4092 -0.2910  0.8636
   55MOL    H3914187   2.963   0.399   2.162  1.8063 -1.5402  0.3039
   55MOL    H4014188   2.940   0.239   2.198 -1.7384 -0.4266 -0.7965
   55MOL    C4114189   2.753   0.339   2.143 -0.8837  0.0753 -0.5682
   55MOL    C4214190   2.729   0.422   2.269 -0.1876  0.4778  0.8442
   55MOL    C4314191   2.704   0.554   2.279  0.1240 -0.1039 -0.1259
   55MOL    C4414192   2.678   0.620   2.412 -0.2267  0.3458  0.0355
   55MOL    C4514193   2.690   0.643   2.154  0.4399  0.3846 -0.0462
   55MOL    H4614194   2.704   0.242   2.156 -2.8950  1.1930  0.3599
   55MOL    H4714195   2.704   0.380   2.055 -2.4970  1.1032  0.7863
   55MOL    H4814196   2.744   0.363   2.359  2.7865 -0.6356 -0.3110
   55MOL    H4914197   2.585   0.675   2.424 -0.4369  0.1282 -0.6276
   55MOL    H5014198   2.754   0.695   2.434  1.2729 -1.2309  0.3082
   55MOL    H5114199   2.675   0.550   2.495  1.9780 -0.2571 -0.3654
   55MOL    H5214200   2.622   0.727   2.166 -0.6917  0.0770 -3.7947
   55MOL    H5314201   2.635   0.581   2.082  1.2261 -0.9411  0.4684
   55MOL    C5414202   2.822   0.702   2.107  0.1690 -0.3695 -0.1128
   55MOL    C5514203   2.816   0.803   1.992 -0.0400  0.0256 -0.5741
   55MOL    C5614204   2.849   0.935   1.996 -0.9233  0.3874 -0.1166
   55MOL    C5714205   2.805   1.025   1.876  0.4725 -0.4030 -0.3099
   55MOL    C5814206   2.913   1.003   2.118 -0.3257  0.5667 -0.5111
   55MOL    H5914207   2.873   0.615   2.065  1.5837  1.0647 -1.3997
   55MOL    H6014208   2.884   0.727   2.193  2.0232 -0.1825 -1.4877
   55MOL    H6114209   2.762   0.776   1.903  0.2738  1.4287 -1.2046
   55MOL    H6214210   2.750   0.972   1.798 -1.1927  0.9084 -0.0518
   55MOL    H6314211   2.893   1.069   1.830 -0.5559 -1.0287 -2.9672
   55MOL    H6414212   2.731   1.101   1.901  0.0264  0.0073 -2.7614
   55MOL    H6514213   3.021   0.997   2.119 -0.3726 -0.5487  2.9698
   55MOL    H6614214   2.885   0.954   2.211  0.3326 -2.0954 -1.6927
   55MOL    C6714215   2.878   1.154   2.134 -0.3446  0.2050 -0.1658
   55MOL    C6814216   2.886   1.189   2.278  0.0755  0.6706 -0.2931
   55MOL    C6914217   2.831   1.297   2.333  0.3035  0.0360 -0.8529
   55MOL    C7014218   2.847   1.321   2.483 -0.7492  0.9169 -0.2938
   55MOL    C7114219   2.743   1.401   2.272 -0.4960 -0.0461 -0.1764
   55MOL    H7214220   2.774   1.163   2.104 -0.4521 -0.4980 -0.0054
   55MOL    H7314221   2.945   1.210   2.068 -0.7099 -0.5193 -1.1611
   55MOL    H7414222   2.948   1.118   2.331 -0.3970  1.0849  0.8319
   55MOL    H7514223   2.904   1.249   2.541  0.5765  1.3719 -0.9917
   55MOL    H7614224   2.753   1.335   2.536 -0.0932  0.9375  0.8765
   55MOL    H7714225   2.898   1.416   2.498  2.0369 -0.5293 -0.3357
   55MOL    H7814226   2.645   1.404   2.319 -0.8190 -1.0806 -0.7574
   55MOL    H7914227   2.726   1.362   2.172  2.8682  0.7181 -1.1067
   55MOL    C8014228   2.807   1.545   2.265 -0.7402  0.2270  0.6900
   55MOL    C8114229   2.721   1.646   2.188 -0.5964  0.2120  0.1976
   55MOL    C8214230   2.717   1.664   2.061  0.7977 -0.2353  0.1625
   55MOL    C8314231   2.806   1.594   1.959 -0.2322 -0.4595 -0.4018
   55MOL    C8414232   2.607   1.753   1.997  0.4538 -0.3710  0.5593
   55MOL    H8514233   2.908   1.530   2.226 -1.2107 -1.3727  0.0135
   55MOL    H8614234   2.822   1.580   2.367  0.9946  0.7912  0.2543
   55MOL    H8714235   2.652   1.694   2.256  0.2339 -1.3634  2.2177
   55MOL    H8814236   2.896   1.550   2.003  1.2559  1.1316 -1.7674
   55MOL    H8914237   2.833   1.674   1.889  1.5471  0.0670  0.8473
   55MOL    H9014238   2.756   1.509   1.911  0.3711 -0.6182 -0.7603
   55MOL    H9114239   2.522   1.752   2.065  0.6981 -1.7856  0.8711
   55MOL    H9214240   2.581   1.705   1.902  0.6585  0.9266 -0.1542
   55MOL    C9314241   2.659   1.892   1.973 -0.0346 -0.6290 -0.3333
   55MOL    C9414242   2.555   2.000   2.011 -0.8147  0.3975  0.7614
   55MOL    C9514243   2.505   2.093   1.923  0.4683 -0.1439  0.2426
   55MOL    C9614244   2.391   2.191   1.963  0.1632  0.9665 -0.3008
   55MOL    C9714245   2.556   2.120   1.781  0.0084  0.0900  0.2822
   55MOL    H9814246   2.675   1.907   1.867 -0.8977 -0.8091 -0.4895
   55MOL    H9914247   2.748   1.917   2.031  1.2137 -0.4013 -2.3066
   55MOL   H10014248   2.502   1.992   2.105 -1.4271  1.6631  0.5433
   55MOL   H10114249   2.313   2.193   1.887  1.4375  0.4036 -1.6579
   55MOL   H10214250   2.354   2.174   2.064  1.0221  0.7739 -0.0123
   55MOL   H10314251   2.418   2.297   1.961 -1.2592  1.3402 -0.3768
   55MOL   H10414252   2.663   2.107   1.766  0.0813  0.5988  0.3593
   55MOL   H10514253   2.535   2.226   1.766 -4.3367 -0.6568  0.4282
   55MOL   C10614254   2.492   2.044   1.659  0.1764 -0.4844 -0.2472
   55MOL   C10714255   2.535   1.900   1.636  0.3735 -0.5712 -0.4518
   55MOL   C10814256   2.590   1.844   1.528  0.2063 -0.6964 -0.5358
   55MOL   C10914257   2.628   1.912   1.397  0.4726 -0.7658 -0.0052
   55MOL   C11014258   2.609   1.691   1.518  0.0582 -0.3323  0.1582
   55MOL   H11114259   2.521   2.099   1.570 -0.4462  0.5667  0.1962
   55MOL   H11214260   2.384   2.048   1.670  0.1568 -2.6308  0.7268
   55MOL   H11314261   2.509   1.837   1.720 -1.5293 -0.4554 -0.9330
   55MOL   H11414262   2.731   1.885   1.374  1.4145  0.7173  2.2173
   55MOL   H11514263   2.550   1.890   1.324  1.3918  2.5877 -2.0992
   55MOL   H11614264   2.638   2.021   1.395 -2.9835 -0.3525  1.5359
   55MOL   H11714265   2.706   1.676   1.470 -1.2293 -1.4261 -2.2103
   55MOL   H11814266   2.542   1.644   1.446  0.4691 -2.0706  0.8792
   55MOL   C11914267   2.599   1.608   1.647 -0.0398  0.4162  0.2680
   55MOL   C12014268   2.592   1.456   1.617  0.0427  0.6458 -0.4197
   55MOL   C12114269   2.695   1.373   1.627  0.2752  0.1020  0.0742
   55MOL   C12214270   2.675   1.224   1.585 -0.1003  0.5757 -0.6422
   55MOL   C12314271   2.843   1.408   1.660  0.3357 -0.6480  0.0223
   55MOL   H12414272   2.508   1.627   1.704 -2.0731  0.5926 -2.8926
   55MOL   H12514273   2.680   1.628   1.716  0.9214 -1.1273 -0.3789
   55MOL   H12614274   2.497   1.417   1.586 -0.5368  2.0917 -0.4812
   55MOL   H12714275   2.568   1.210   1.572  0.0756  0.3409 -1.8471
   55MOL   H12814276   2.706   1.153   1.662  0.4710  0.3423 -1.0856
   55MOL   H12914277   2.724   1.202   1.491  1.5920 -2.4245  0.8958
   55MOL   H13014278   2.900   1.337   1.721  2.2340  0.6921 -0.1275
   55MOL   H13114279   2.855   1.496   1.724 -1.1977 -0.2906 -0.1738
   55MOL   C13214280   2.908   1.437   1.526  0.2407 -0.0077  0.5548
   55MOL   C13314281   3.054   1.466   1.534  0.1257 -0.5735  0.2670
   55MOL   C13414282   3.112   1.580   1.575  0.3563 -0.8465 -0.5879
   55MOL   C13514283   3.266   1.590   1.576  0.4986  0.1344 -0.8116
   55MOL   C13614284   3.040   1.710   1.601  0.3977 -0.2652 -0.5201
   55MOL   H13714285   2.865   1.525   1.479  0.3144  1.1911  2.6929
   55MOL   H13814286   2.891   1.350   1.462  1.1163 -0.0047  0.3020
   55MOL   H13914287   3.110   1.374   1.528 -0.0424 -0.8121  2.1293
   55MOL   H14014288   3.302   1.577   1.678 -0.6178 -1.4726 -0.6075
   55MOL   H14114289   3.302   1.685   1.536 -1.0685  0.4893 -1.4230
   55MOL   H14214290   3.321   1.519   1.514 -1.8020 -1.3913 -1.1890
   55MOL   H14314291   2.931   1.698   1.605  0.3751 -1.1754 -3.2638
   55MOL   H14414292   3.053   1.772   1.513 -2.4511 -1.1363 -1.6171
   55MOL   C14514293   3.090   1.780   1.731  0.3566  0.9936  0.0618
   55MOL   C14614294   3.004   1.902   1.750  0.4395  0.3506  0.4193
   55MOL   C14714295   3.053   2.019   1.802  0.0270 -0.0480  0.1096
   55MOL   C14814296   2.964   2.136   1.829 -0.0628 -0.0090 -0.3059
   55MOL   C14914297   3.197   2.035   1.852 -0.2125  0.0273 -0.3662
   55MOL   H15014298   3.194   1.812   1.720  1.0677 -1.1963  0.2444
   55MOL   H15114299   3.087   1.719   1.821 -0.7915  0.6964 -0.1736
   55MOL   H15214300   2.903   1.888   1.715  0.7578  1.2930 -0.9370
   55MOL   H15314301   2.959   2.180   1.730  1.3998 -0.2497 -0.4938
   55MOL   H15414302   2.996   2.203   1.908  1.0164 -0.2604 -0.5127
   55MOL   H15514303   2.860   2.107   1.846 -0.9597  2.9339 -0.5354
   55MOL   H15614304   3.244   1.939   1.873 -0.3501 -0.0443 -0.3904
   55MOL   H15714305   3.185   2.063   1.957  1.0599  0.0867 -0.2270
   55MOL   C15814306   3.290   2.131   1.766  0.0622  0.0222 -0.3084
   55MOL   C15914307   3.374   2.056   1.658 -0.1829 -0.2139  0.3193
   55MOL   C16014308   3.506   2.034   1.657 -0.2234  0.2689 -0.0222
   55MOL   C16114309   3.594   2.084   1.766 -0.0437  0.7884  0.0501
   55MOL   C16214310   3.583   1.970   1.546 -0.5605 -0.1372  0.1833
   55MOL   H16314311   3.354   2.194   1.827 -0.7883  2.7578 -2.1816
   55MOL   H16414312   3.228   2.201   1.710  2.1767  0.9229 -1.5899
   55MOL   H16514313   3.324   2.025   1.567  0.0171  0.7739 -0.1407
   55MOL   H16614314   3.669   2.149   1.721 -1.1206  1.7987 -0.2768
   55MOL   H16714315   3.647   2.001   1.814 -0.2489  1.1545  0.9194
   55MOL   H16814316   3.546   2.149   1.839 -2.1218  1.3095 -1.7341
   55MOL   H16914317   3.666   2.036   1.521 -1.5790  1.6682  1.4767
   55MOL   H17014318   3.526   1.968   1.454 -1.1816  1.3634  0.5141
   55MOL   C17114319   3.630   1.827   1.577  0.4189 -0.9500  0.0872
   55MOL   C17214320   3.684   1.768   1.451  0.6490  0.1932  0.7513
   55MOL   C17314321   3.693   1.638   1.410  0.0763  0.3639 -0.1347
   55MOL   C17414322   3.637   1.521   1.493 -0.1103  0.2705  0.2947
   55MOL   C17514323   3.752   1.602   1.277 -0.6183 -0.3165  0.6661
   55MOL   H17614324   3.552   1.760   1.612 -0.2006 -0.3817 -0.2038
   55MOL   H17714325   3.708   1.827   1.653  1.7787  2.6064 -1.2056
   55MOL   H17814326   3.711   1.834   1.370 -1.3924 -1.0092 -0.9654
   55MOL   H17914327   3.708   1.491   1.570 -0.5227  1.6799  1.2369
   55MOL   H18014328   3.616   1.434   1.431  1.5465  1.7356 -2.3942
   55MOL   H18114329   3.548   1.556   1.545  0.4200 -0.7047  1.8851
   55MOL   H18214330   3.791   1.501   1.289  0.4684 -0.1258 -1.0869
   55MOL   H18314331   3.822   1.680   1.248 -1.2845  0.5364  1.3644
   55MOL   C18414332   3.641   1.600   1.173  0.4272  0.2115  0.2784
   55MOL   C18514333   3.686   1.528   1.044  0.2584 -0.9328 -0.0854
   55MOL   C18614334   3.681   1.578   0.913 -0.0587  0.3236  0.0047
   55MOL   C18714335   3.713   1.494   0.790  0.1782 -0.8041 -0.2578
   55MOL   C18814336   3.664   1.728   0.892 -0.2340 -0.0493 -0.1487
   55MOL   H18914337   3.617   1.704   1.154  0.2376  0.4089  1.5718
   55MOL   H19014338   3.547   1.562   1.213 -0.2088  0.2316 -1.1625
   55MOL   H19114339   3.697   1.422   1.060  0.7609 -0.6623  1.4217
   55MOL   H19214340   3.789   1.546   0.731  0.0893 -1.0882 -0.6259
   55MOL   H19314341   3.620   1.478   0.735 -1.3260  2.2389  1.3411
   55MOL   H19414342   3.763   1.403   0.823  1.3735  0.0964  0.4475
   55MOL   H19514343   3.596   1.783   0.957  1.4619  1.5996  0.2734
   55MOL   H19614344   3.617   1.732   0.793 -1.0606 -0.2427  0.2326
   55MOL   C19714345   3.799   1.801   0.892 -0.0087  0.0280 -0.5499
   55MOL   C19814346   3.771   1.945   0.842 -0.1513 -0.5766 -0.6773
   55MOL   C19914347   3.763   2.054   0.922 -0.5672  0.3982 -0.1513
   55MOL   C20014348   3.765   2.192   0.874  0.0296 -0.2009  0.0901
   55MOL   C20114349   3.766   2.048   1.076  0.1294  0.0831  0.2552
   55MOL   H20214350   3.861   1.757   0.814  0.4002  0.7038 -0.6027
   55MOL   H20314351   3.840   1.782   0.991 -0.0241 -1.0657 -0.7411
   55MOL   H20414352   3.768   1.957   0.734 -0.2384 -0.5927 -0.6766
   55MOL   H20514353   3.683   2.244   0.923  0.3524 -0.6805  1.1643
   55MOL   H20614354   3.755   2.197   0.766  0.5212  0.3590  0.0653
   55MOL   H20714355   3.860   2.243   0.891 -0.5422  1.3774 -1.3238
   55MOL   H20814356   3.716   1.956   1.105  1.7824 -0.1634  2.4708
   55MOL   H20914357   3.699   2.126   1.110  0.6232  1.0766 -0.9728
   55MOL   C21014358   3.908   2.077   1.126 -0.0511  0.4661  0.1044
   55MOL   C21114359   3.920   2.055   1.279 -0.1435 -0.4241  0.2406
   55MOL   C21214360   3.936   2.152   1.373 -0.8305 -0.1526 -0.0906
   55MOL   C21314361   3.932   2.128   1.520 -0.0646 -0.3633  0.1589
   55MOL   C21414362   3.962   2.303   1.345  0.0954 -0.1231 -0.5575
   55MOL   H21514363   3.931   2.183   1.115 -3.2344  1.2085 -0.1656
   55MOL   H21614364   3.982   2.019   1.072 -1.1720  1.0590 -2.1313
   55MOL   H21714365   3.897   1.955   1.313 -2.2623 -0.3403 -0.8760
   55MOL   H21814366   3.917   2.026   1.556  2.1721  0.2201  2.8749
   55MOL   H21914367   3.843   2.175   1.563 -0.7301 -1.5850  0.1655
   55MOL   H22014368   4.028   2.163   1.558  1.0043 -1.1639 -1.7205
   55MOL   H22114369   4.027   2.320   1.258  0.9482  0.8449  0.2528
   55MOL   H22214370   4.023   2.341   1.427 -0.1523  2.4642 -1.5185
   55MOL   C22314371   3.834   2.388   1.328  0.3408  0.6684 -0.1328
   55MOL   C22414372   3.743   2.380   1.447  0.0835  0.0389 -0.2429
   55MOL   C22514373   3.704   2.481   1.523  0.2646 -0.3374 -0.1603
   55MOL   C22614374   3.616   2.452   1.637 -0.0261 -0.5380  0.2200
   55MOL   C22714375   3.761   2.619   1.508 -0.2096  0.1089  0.5212
   55MOL   H22814376   3.777   2.333   1.253 -0.8208  1.5893  0.0525
   55MOL   H22914377   3.851   2.486   1.284 -2.2775  1.3117  0.1901
   55MOL   H23014378   3.692   2.285   1.446  2.3961 -1.2464 -2.4678
   55MOL   H23114379   3.547   2.370   1.621  2.0684 -2.1073 -1.0013
   55MOL   H23214380   3.562   2.542   1.667  2.6160  1.6028 -1.1573
   55MOL   H23314381   3.669   2.403   1.719 -2.3171 -0.6951  1.6493
   55MOL   H23414382   3.717   2.696   1.571 -1.5122  0.1205 -0.3814
   55MOL   H23514383   3.750   2.666   1.410  1.2569  0.0374  0.3073
   55MOL   C23614384   3.905   2.626   1.558  0.0590  0.0658 -0.1291
   55MOL   C23714385   3.945   2.776   1.566  0.3506 -0.1741 -0.3871
   55MOL   C23814386   4.048   2.834   1.490 -0.3486  0.3982  0.0349
   55MOL   C23914387   4.078   2.981   1.519  0.2724 -0.1769  0.0745
   55MOL   C24014388   4.124   2.769   1.379 -0.0074  0.5235 -0.5261
   55MOL   H24114389   3.971   2.563   1.497  1.5838  1.4186  0.1107
   55MOL   H24214390   3.917   2.589   1.660 -0.9968 -0.7645 -0.2960
   55MOL   H24314391   3.882   2.839   1.627  1.2406  1.9244 -1.5958
   55MOL   H24414392   4.019   3.017   1.603  1.0450 -2.4846  1.6474
   55MOL   H24514393   4.045   3.035   1.430 -0.8191 -2.7501 -1.1396
   55MOL   H24614394   4.185   2.987   1.539  0.4898 -0.5922 -0.9514
   55MOL   H24714395   4.157   2.668   1.404 -0.8350  1.0030  2.6493
   55MOL   H24814396   4.216   2.828   1.373  0.1959  0.1028 -1.7888
   55MOL   C24914397   4.052   2.775   1.249  0.1809 -0.1075  0.6156
   55MOL   C25014398   4.149   2.744   1.132 -0.1003 -0.3259  0.0280
   55MOL   C25114399   4.230   2.832   1.071 -0.2170 -0.0776 -0.2640
   55MOL   C25214400   4.335   2.790   0.969  0.1308 -0.0236 -0.3205
   55MOL   C25314401   4.247   2.974   1.114  0.8700 -0.4885 -0.0712
   55MOL   H25414402   4.015   2.874   1.224  1.2603 -0.0214 -0.7152
   55MOL   H25514403   3.967   2.706   1.250  0.1114 -0.0473 -0.7765
   55MOL   H25614404   4.154   2.640   1.102  1.1590 -0.7521  1.6325
   55MOL   H25714405   4.325   2.690   0.927 -0.8287 -0.2038  0.3096
   55MOL   H25814406   4.428   2.788   1.026  0.4545 -1.9780 -0.8734
   55MOL   H25914407   4.340   2.863   0.888 -0.4938 -0.3974 -0.6961
   55MOL   H26014408   4.276   2.981   1.219 -1.4938 -1.7818  0.7077
   55MOL   H26114409   4.152   3.026   1.097  0.6604 -0.9096 -0.2075
   55MOL   H26214410   4.319   3.027   1.053  0.9332 -0.2227  0.2372
   56MOL     C114411   0.066   5.044   7.566  0.0507 -0.5684  0.7454
   56MOL     C214412   0.044   4.997   7.421  0.3101  0.4316  0.1219
   56MOL     C314413   0.064   5.061   7.308 -0.2871  0.2003 -0.9153
   56MOL     C414414   0.021   5.002   7.176 -0.3237  0.1939  0.6224
   56MOL     C514415   0.119   5.202   7.303 -0.3050  0.1969 -0.2250
   56MOL     H614416   0.074   5.152   7.571  3.9139 -0.6505 -1.2659
   56MOL     H714417   7.872   4.991   7.628  0.6361 -0.3611  1.6376
   56MOL     H814418   0.014   4.893   7.429  1.4424  0.2119  1.5473
   56MOL     H914419   7.868   5.087   7.116  1.4721  1.3418  1.2259
   56MOL    H1014420   7.829   4.921   7.191  0.6654 -0.7826  0.1249
   56MOL    H1114421   0.115   4.968   7.132 -0.3574  2.6119 -1.4126
   56MOL    H1214422   0.174   5.208   7.209 -0.2888  1.5442 -0.1330
   56MOL    H1314423   0.183   5.218   7.390 -2.5933  0.0101  1.5467
   56MOL    H1414424   0.157   4.984   7.578 -0.3310 -1.4081 -0.5612
   56MOL    C1514425   0.004   5.308   7.309 -0.5772 -0.6793 -0.9435
   56MOL    C1614426   0.064   5.447   7.308  0.0234  0.0115  1.0215
   56MOL    C1714427   0.036   5.546   7.392  0.8187 -0.3535 -0.2603
   56MOL    C1814428   0.112   5.677   7.386 -0.2089 -0.4060 -0.6809
   56MOL    C1914429   7.803   5.534   7.496  0.4677 -0.3755  0.6300
   56MOL    H2014430   7.831   5.282   7.400 -0.2433 -0.7179 -0.7632
   56MOL    H2114431   7.804   5.299   7.234  0.3236  1.3893 -2.2139
   56MOL    H2214432   0.149   5.457   7.243  0.7191 -1.9709  1.5928
   56MOL    H2314433   0.197   5.670   7.318  0.2152  0.0655 -0.2029
   56MOL    H2414434   0.156   5.699   7.483  0.8186 -3.9908 -0.2615
   56MOL    H2514435   0.054   5.762   7.350 -0.3316 -0.2171 -0.0469
   56MOL    H2614436   7.723   5.462   7.478  0.4802 -0.7413  2.0095
   56MOL    H2714437   7.749   5.629   7.501  1.6462  0.3202  0.5426
   56MOL    C2814438   7.857   5.503   7.637  0.4749  0.0604  0.2379
   56MOL    C2914439   7.733   5.515   7.733 -1.0570 -0.3826 -0.5156
   56MOL    C3014440   7.662   5.410   7.789  0.2283  0.3644  0.3623
   56MOL    C3114441   7.542   5.435   7.877 -0.1605 -0.1795  0.0825
   56MOL    C3214442   7.683   5.264   7.746 -0.4298 -0.1461  0.4598
   56MOL    H3314443   0.052   5.582   7.655  1.5838 -1.4191  2.4182
   56MOL    H3414444   0.035   5.411   7.638  0.7012  0.1982  1.4373
   56MOL    H3514445   7.717   5.608   7.785  0.0725  0.1798 -1.1587
   56MOL    H3614446   7.549   5.529   0.052 -1.0206  0.0712 -0.2239
   56MOL    H3714447   7.544   5.349   0.065 -0.2536  1.5461  2.3223
   56MOL    H3814448   7.445   5.425   7.827  0.1808 -2.9804 -0.1237
   56MOL    H3914449   7.732   5.221   7.834 -1.0812 -1.1324  0.3536
   56MOL    H4014450   7.767   5.266   7.676  0.9459  1.1600  2.1041
   56MOL    C4114451   7.562   5.194   7.693  0.0595 -0.0729  0.4508
   56MOL    C4214452   7.522   5.242   7.556 -0.0977  0.1401  0.4709
   56MOL    C4314453   7.534   5.174   7.437  0.2572 -0.1853 -1.0500
   56MOL    C4414454   7.474   5.227   7.308 -0.4352 -0.6351  0.3912
   56MOL    C4514455   7.598   5.031   7.421 -0.2210  0.3165 -0.4702
   56MOL    H4614456   7.479   5.210   7.761 -0.9427  1.6039 -1.1474
   56MOL    H4714457   7.576   5.085   7.693  2.4915  0.0652 -5.1446
   56MOL    H4814458   7.476   5.340   7.547 -2.7867 -1.2585 -1.9514
   56MOL    H4914459   7.488   5.335   7.308  1.1865 -0.8242  0.3076
   56MOL    H5014460   7.367   5.207   7.305 -0.5116 -0.7812  2.9924
   56MOL    H5114461   7.533   5.192   7.223 -0.5047  2.9731 -1.2526
   56MOL    H5214462   7.647   5.003   7.514 -0.5081  0.6469 -0.2169
   56MOL    H5314463   7.676   5.028   7.345  1.8227 -0.5751  1.6098
   56MOL    C5414464   7.490   4.922   7.395 -0.4029 -0.1571  0.5716
   56MOL    C5514465   7.418   4.891   7.523 -0.0017  0.8265 -0.2833
   56MOL    C5614466   7.430   4.781   7.600  0.4335 -0.1906 -0.3734
   56MOL    C5714467   7.338   4.755   7.718  0.1858  0.4603 -0.0087
   56MOL    C5814468   7.530   4.666   7.577  0.8347 -0.2239  0.6031
   56MOL    H5914469   7.537   4.831   7.356 -0.7055 -0.2422  0.4073
   56MOL    H6014470   7.414   4.945   7.320 -0.1607 -0.3843  0.2547
   56MOL    H6114471   7.350   4.971   7.547 -1.0742 -0.4684  1.0576
   56MOL    H6214472   7.341   4.849   7.774  0.1050 -0.3678  1.4053
   56MOL    H6314473   7.382   4.692   7.794 -0.2480 -0.3405 -0.4187
   56MOL    H6414474   7.236   4.725   7.695 -0.4742  0.2064  3.1043
   56MOL    H6514475   7.563   4.657   7.474 -2.2490  0.1447 -0.4747
   56MOL    H6614476   7.466   4.579   7.595 -2.1861  2.0869  1.3494
   56MOL    C6714477   7.650   4.667   7.677 -0.0850 -0.3046 -0.0071
   56MOL    C6814478   7.743   4.536   7.660  0.0993 -0.0365 -0.2311
   56MOL    C6914479   7.757   4.432   7.747 -0.0598 -0.2283 -0.0285
   56MOL    C7014480   7.842   4.308   7.725 -0.3830 -0.7048 -0.6156
   56MOL    C7114481   7.683   4.422   7.869 -0.3300  0.1282  0.1046
   56MOL    H7214482   7.617   4.688   7.779  3.0151 -0.6097  1.1135
   56MOL    H7314483   7.701   4.760   7.652  0.4054 -0.7353 -0.6371
   56MOL    H7414484   7.797   4.523   7.568 -0.8606 -0.3390 -0.7544
   56MOL    H7514485   0.061   4.322   7.771 -0.9291  1.5750 -0.0650
   56MOL    H7614486   7.871   4.303   7.620  2.4122  0.6701  0.0485
   56MOL    H7714487   7.798   4.216   7.763  0.4299 -0.0318  2.0816
   56MOL    H7814488   7.689   4.521   0.035  0.6690  1.3328 -2.6217
   56MOL    H7914489   7.734   4.362   0.066 -2.2736 -1.1533  0.4239
   56MOL    C8014490   7.537   4.380   7.846  0.2324 -0.5179 -0.7050
   56MOL    C8114491   7.469   4.363   0.102 -0.2336  0.9164 -0.7010
   56MOL    C8214492   7.424   4.251   0.159 -0.0133  0.0369 -0.6183
   56MOL    C8314493   7.455   4.109   0.103 -0.4242  0.0432 -1.0814
   56MOL    C8414494   7.342   4.267   0.288 -0.4328  0.1667 -0.1114
   56MOL    H8514495   7.523   4.290   7.786  1.4237 -0.1014 -1.6219
   56MOL    H8614496   7.482   4.457   7.792  0.1985 -0.8945 -1.2167
   56MOL    H8714497   7.443   4.454   0.154  0.5280 -1.2264  3.7310
   56MOL    H8814498   7.368   4.065   0.055 -0.7681  1.0966 -1.4307
   56MOL    H8914499   7.479   4.055   0.195 -0.7632 -1.0664 -1.6284
   56MOL    H9014500   7.533   4.104   0.027 -1.5176 -0.5921 -2.1806
   56MOL    H9114501   7.314   4.373   0.294 -0.1409  0.3192 -1.2271
   56MOL    H9214502   7.403   4.223   0.366  3.0131  2.3069 -1.4637
   56MOL    C9314503   7.208   4.188   0.278 -0.4460 -0.3133 -0.3955
   56MOL    C9414504   7.128   4.204   0.405  0.5608  0.0105 -0.4004
   56MOL    C9514505   6.994   4.192   0.430  0.0278 -0.0656  0.0258
   56MOL    C9614506   6.952   4.180   0.577 -0.5715  0.5120  0.2779
   56MOL    C9714507   6.890   4.169   0.325  0.6588  0.3319 -0.0723
   56MOL    H9814508   7.227   4.083   0.254 -1.0637 -0.7763  1.0288
   56MOL    H9914509   7.144   4.216   0.195  1.4750 -1.2654 -2.2210
   56MOL   H10014510   7.202   4.207   0.483  2.0984  0.1027 -1.8315
   56MOL   H10114511   6.922   4.076   0.592  0.7016  0.0798 -0.0442
   56MOL   H10214512   7.040   4.202   0.638 -1.2908  1.3606  1.0280
   56MOL   H10314513   6.878   4.252   0.610 -1.1784  0.0724 -0.1078
   56MOL   H10414514   6.932   4.211   0.234 -1.9926 -0.7537 -1.8493
   56MOL   H10514515   6.809   4.227   0.369  0.6972 -0.5468  1.2121
   56MOL   C10614516   6.858   4.026   0.284 -0.1416  0.0785  0.6176
   56MOL   C10714517   6.744   4.027   0.193  0.1754  0.0697  0.6185
   56MOL   C10814518   6.756   4.010   0.062 -0.7992  0.3950 -0.0852
   56MOL   C10914519   6.886   4.005   7.861 -0.0800  0.2904 -0.2936
   56MOL   C11014520   6.625   3.993   7.856  0.0429  0.0030 -0.3555
   56MOL   H11114521   6.833   3.967   0.371 -1.9915 -2.3801 -1.5228
   56MOL   H11214522   6.951   3.978   0.254 -0.4934  0.8435 -1.7887
   56MOL   H11314523   6.644   4.036   0.233  0.2723 -2.1966  1.4250
   56MOL   H11414524   6.899   3.899   7.838 -1.2444  0.4143 -1.5345
   56MOL   H11514525   6.887   4.059   7.767  0.1493 -0.7921 -0.9208
   56MOL   H11614526   6.968   4.035   0.048  1.7118 -3.8783 -0.4109
   56MOL   H11714527   6.537   3.996   0.043  0.1042 -0.1456 -0.2658
   56MOL   H11814528   6.622   3.898   7.803 -0.5146  0.0640 -0.4451
   56MOL   C11914529   6.596   4.102   7.749 -0.0893 -0.4624  0.1820
   56MOL   C12014530   6.487   4.053   7.653 -0.0816  0.0721 -0.0694
   56MOL   C12114531   6.507   4.006   7.531  0.0867  0.0199  0.8300
   56MOL   C12214532   6.396   3.954   7.444  0.0680 -0.5068  0.1872
   56MOL   C12314533   6.644   3.980   7.468 -0.0295  0.1377  1.0970
   56MOL   H12414534   6.690   4.128   7.701 -0.3600  0.5158  0.1837
   56MOL   H12514535   6.558   4.197   7.785 -3.3664 -1.4202 -0.6443
   56MOL   H12614536   6.386   4.051   7.692 -0.1376 -1.0674 -0.2747
   56MOL   H12714537   6.411   3.848   7.422 -1.7428 -1.1644  1.9822
   56MOL   H12814538   6.395   4.013   7.353 -1.2540 -3.0267 -1.4946
   56MOL   H12914539   6.298   3.959   7.491 -1.4588 -1.2200 -2.8019
   56MOL   H13014540   6.659   3.875   7.442  0.2181  0.7599 -1.3680
   56MOL   H13114541   6.728   4.005   7.534  0.6853  3.1528 -0.8752
   56MOL   C13214542   6.661   4.057   7.342  0.0298  0.1576 -0.1911
   56MOL   C13314543   6.808   4.042   7.299  0.5139 -0.0383  0.2711
   56MOL   C13414544   6.912   4.115   7.332  0.2336  0.1715  0.2356
   56MOL   C13514545   7.052   4.080   7.290  0.1435  0.7475  1.0473
   56MOL   C13614546   6.908   4.240   7.425  0.9362 -0.4399  1.0193
   56MOL   H13714547   6.641   4.163   7.357 -1.9512 -0.1671 -0.4423
   56MOL   H13814548   6.594   4.012   7.269 -1.2115 -0.8558  1.5492
   56MOL   H13914549   6.825   3.962   7.229  1.1736 -0.1578  0.5718
   56MOL   H14014550   7.036   3.997   7.221  1.0234  1.6323 -0.2429
   56MOL   H14114551   7.105   4.036   7.374  1.5534 -2.5302 -1.4554
   56MOL   H14214552   7.104   4.165   7.245  0.7886 -0.5445 -0.6970
   56MOL   H14314553   6.989   4.229   7.498  1.5594  3.4997  1.0553
   56MOL   H14414554   6.816   4.240   7.484  0.3525 -0.0219  0.1182
   56MOL   C14514555   6.919   4.365   7.346 -0.7447  0.5327 -0.2865
   56MOL   C14614556   6.928   4.491   7.431  0.8072  0.5888  0.6513
   56MOL   C14714557   6.832   4.568   7.481  0.4529  0.2952  0.6173
   56MOL   C14814558   6.865   4.683   7.574 -0.3744  0.0905 -0.6745
   56MOL   C14914559   6.688   4.545   7.460  0.4253 -0.9214 -0.0857
   56MOL   H15014560   6.836   4.376   7.276  0.4713  2.8398 -1.3981
   56MOL   H15114561   7.007   4.368   7.282  0.3628 -3.1958  0.9434
   56MOL   H15214562   7.030   4.517   7.455  1.4706  0.8189 -2.2370
   56MOL   H15314563   6.804   4.770   7.550 -2.2905 -1.8108 -2.9278
   56MOL   H15414564   6.968   4.716   7.558 -0.2665 -0.4316 -1.0941
   56MOL   H15514565   6.843   4.671   7.680  0.7464  2.2774 -0.1667
   56MOL   H15614566   6.668   4.460   7.395 -2.0715 -0.5375  0.1258
   56MOL   H15714567   6.643   4.632   7.413 -0.1183 -1.5277 -0.7003
   56MOL   C15814568   6.611   4.521   7.598  0.0218  0.0816  0.4345
   56MOL   C15914569   6.461   4.511   7.580 -0.5387  0.0468  0.4040
   56MOL   C16014570   6.365   4.482   7.679  0.3881 -0.4324 -0.2356
   56MOL   C16114571   6.396   4.464   7.827  0.2332  0.1758 -0.5278
   56MOL   C16214572   6.211   4.470   7.658  0.3265 -0.3790  0.5001
   56MOL   H16314573   6.639   4.596   7.671 -1.2688 -0.4801  1.5330
   56MOL   H16414574   6.651   4.426   7.634 -0.4810 -0.3034 -0.0123
   56MOL   H16514575   6.436   4.526   7.476 -2.9663  2.1761  1.2402
   56MOL   H16614576   6.343   4.379   7.872 -1.7171  1.3057 -0.6266
   56MOL   H16714577   6.356   4.540   0.015 -0.6636 -1.1665  0.4893
   56MOL   H16814578   6.503   4.458   7.846  0.5675  1.9621 -1.7842
   56MOL   H16914579   6.164   4.556   7.706 -0.7406  0.2115 -1.5429
   56MOL   H17014580   6.174   4.385   7.714 -0.6049 -0.4986 -0.2741
   56MOL   C17114581   6.165   4.474   7.510  0.0587  0.5024 -0.5624
   56MOL   C17214582   6.023   4.434   7.499  0.2768  0.0977 -0.4083
   56MOL   C17314583   5.920   4.512   7.463 -0.0289 -0.7880 -0.7292
   56MOL   C17414584   5.937   4.649   7.399 -0.4235  0.0206  0.1398
   56MOL   C17514585   5.772   4.459   7.457 -0.0509  0.5317  0.0160
   56MOL   H17614586   6.223   4.407   7.447  2.4157  1.3888  0.5813
   56MOL   H17714587   6.179   4.577   7.474 -1.4370  0.5501 -1.0232
   56MOL   H17814588   6.004   4.336   7.539  1.6792  0.6018  1.5690
   56MOL   H17914589   5.845   4.702   7.377 -0.2539  0.4976  0.5692
   56MOL   H18014590   5.978   4.645   7.299  2.1835 -0.7841  1.1892
   56MOL   H18114591   5.993   4.708   7.472  2.1055 -1.5692 -0.4532
   56MOL   H18214592   5.780   4.353   7.482 -1.6815  0.5238  0.5415
   56MOL   H18314593   5.744   4.481   7.354  2.2095 -0.3433 -0.8287
   56MOL   C18414594   5.681   4.522   7.564  0.5212 -0.3420 -0.0408
   56MOL   C18514595   5.538   4.499   7.518  0.0565 -0.3454  0.1172
   56MOL   C18614596   5.426   4.548   7.586 -0.3807  1.0948  0.6019
   56MOL   C18714597   5.287   4.528   7.533 -0.4727  0.7731 -0.7055
   56MOL   C18814598   5.452   4.629   7.720  0.6913  0.3440  0.3904
   56MOL   H18914599   5.697   4.629   7.576 -1.1965  0.0132 -0.8307
   56MOL   H19014600   5.697   4.469   7.658  0.4264 -0.0426  0.1448
   56MOL   H19114601   5.517   4.434   7.435  1.9918 -1.7180  0.6578
   56MOL   H19214602   5.217   4.485   7.604  1.5080 -1.3518  0.0039
   56MOL   H19314603   5.299   4.448   7.460  0.1176 -1.9466  2.2980
   56MOL   H19414604   5.244   4.622   7.498 -2.1144  1.0649  1.9908
   56MOL   H19514605   5.366   4.693   7.737 -0.5676 -2.1090  3.8761
   56MOL   H19614606   5.540   4.693   7.712  1.3432 -0.5905 -0.0384
   56MOL   C19714607   5.448   4.529   7.841 -0.4455  0.3341  0.0019
   56MOL   C19814608   5.485   4.592   0.096 -0.4802 -0.6852 -0.3911
   56MOL   C19914609   5.542   4.534   0.206 -0.0073  0.8309  0.2226
   56MOL   C20014610   5.566   4.615   0.326  0.1358  0.1733 -0.2783
   56MOL   C20114611   5.582   4.382   0.208 -0.1080 -0.3049  0.0857
   56MOL   H20214612   5.516   4.444   7.831  0.5115  0.9960  0.6749
   56MOL   H20314613   5.345   4.496   7.854 -1.4673  2.9879 -1.1053
   56MOL   H20414614   5.474   4.700   0.097 -0.2930 -0.6653  0.9438
   56MOL   H20514615   5.674   4.625   0.333  0.3414 -1.2649 -1.2163
   56MOL   H20614616   5.515   4.567   0.410  0.3252 -3.3545 -2.0880
   56MOL   H20714617   5.512   4.708   0.310  0.9527  0.3759 -1.8742
   56MOL   H20814618   5.678   4.374   0.259 -0.1612 -1.2242  0.0558
   56MOL   H20914619   5.594   4.341   0.107 -1.4881  1.4082 -0.7988
   56MOL   C21014620   5.479   4.291   0.265  0.1286  0.2684  0.2413
   56MOL   C21114621   5.537   4.165   0.330 -0.0595 -0.6638 -0.0201
   56MOL   C21214622   5.580   4.156   0.457 -0.0363  0.0138 -0.3924
   56MOL   C21314623   5.648   4.032   0.507 -0.1751 -0.5379 -1.2716
   56MOL   C21414624   5.574   4.276   0.554 -0.7859 -0.5106 -0.6346
   56MOL   H21514625   5.397   4.265   0.199  1.5254  1.5170 -2.0383
   56MOL   H21614626   5.425   4.350   0.339 -0.1262  0.3488 -0.0065
   56MOL   H21714627   5.556   4.084   0.261 -0.1912 -1.1984  0.5689
   56MOL   H21814628   5.754   4.058   0.517 -0.1527 -1.2087  0.3153
   56MOL   H21914629   5.644   3.948   0.438  3.5000 -1.7514 -0.1550
   56MOL   H22014630   5.613   4.014   0.608  2.0723 -1.3634 -0.6159
   56MOL   H22114631   5.547   4.238   0.653  0.8569 -0.8356 -0.2962
   56MOL   H22214632   5.503   4.356   0.534 -0.7433  0.1018  1.5478
   56MOL   C22314633   5.724   4.328   0.578 -0.0904  0.3008  0.3511
   56MOL   C22414634   5.739   4.475   0.619  0.3116  0.4427  0.3462
   56MOL   C22514635   5.744   4.526   0.746 -0.6637  0.0533  0.4144
   56MOL   C22614636   5.794   4.671   0.763 -0.0036  0.3985  0.7190
   56MOL   C22714637   5.710   4.448   0.875 -0.0044 -0.2080  0.6483
   56MOL   H22814638   5.772   4.335   0.480  1.4955 -0.7076  1.0387
   56MOL   H22914639   5.782   4.263   0.644 -0.4879  0.5734  0.9672
   56MOL   H23014640   5.778   4.546   0.546  0.2646  0.9771  0.8346
   56MOL   H23114641   5.720   4.725   0.821 -0.3086 -0.6230  1.2893
   56MOL   H23214642   5.808   4.724   0.669  0.3013 -1.5735 -0.3827
   56MOL   H23314643   5.889   4.669   0.816 -0.3861  0.3535  1.3986
   56MOL   H23414644   5.797   4.453   0.940 -0.6018 -0.8375  1.5153
   56MOL   H23514645   5.700   4.344   0.847 -0.1685  0.3971 -1.6215
   56MOL   C23614646   5.590   4.506   0.960 -0.1873 -0.5543  0.0878
   56MOL   C23714647   5.456   4.477   0.896  0.4889 -0.4789  0.1474
   56MOL   C23814648   5.385   4.569   0.820 -0.2296  0.5113 -0.4592
   56MOL   C23914649   5.260   4.511   0.749 -0.3755  0.1708  0.0224
   56MOL   C24014650   5.420   4.714   0.791  0.4029  0.0827 -0.3078
   56MOL   H24114651   5.597   4.613   0.981 -1.1395 -0.9149  2.3440
   56MOL   H24214652   5.578   4.462   1.059  2.1884 -0.6596  0.3688
   56MOL   H24314653   5.433   4.373   0.880  2.0277 -0.8842  0.5478
   56MOL   H24414654   5.215   4.416   0.776 -1.9818  0.1580 -2.4878
   56MOL   H24514655   5.282   4.503   0.643  0.4755  0.1583  0.1995
   56MOL   H24614656   5.171   4.574   0.761 -0.5313 -0.5032  2.8253
   56MOL   H24714657   5.507   4.741   0.851 -1.4443  1.5477  1.7936
   56MOL   H24814658   5.341   4.773   0.837  1.2946  2.8454 -2.1871
   56MOL   C24914659   5.433   4.761   0.648 -0.8461  0.6537 -0.0988
   56MOL   C25014660   5.445   4.915   0.650  0.3836 -0.3133 -0.0865
   56MOL   C25114661   5.536   4.998   0.594  0.4378  0.2254 -0.0391
   56MOL   C25214662   5.527   5.155   0.604  0.0889 -0.4315 -0.0856
   56MOL   C25314663   5.650   4.951   0.508 -0.2911  0.8748  0.1241
   56MOL   H25414664   5.344   4.739   0.590 -0.6783 -0.8685  0.1935
   56MOL   H25514665   5.511   4.708   0.593 -0.0825  1.3119  0.3403
   56MOL   H25614666   5.357   4.953   0.699  0.1205 -1.7755  0.6156
   56MOL   H25714667   5.527   5.190   0.501  0.6402 -0.6287 -0.1513
   56MOL   H25814668   5.606   5.195   0.667  1.3470 -0.3787 -1.6867
   56MOL   H25914669   5.432   5.177   0.653  0.0338  2.3475 -1.3505
   56MOL   H26014670   5.737   4.948   0.573  0.3869  2.0358 -0.7042
   56MOL   H26114671   5.663   5.027   0.431 -1.8091  1.5971  0.5584
   56MOL   H26214672   5.645   4.851   0.466  1.9168 -0.5056  2.9696
   57MOL     C114673   4.718   4.160   7.605  0.3180  0.8712 -0.0389
   57MOL     C214674   4.738   4.305   7.649 -0.6721 -0.5858  0.2443
   57MOL     C314675   4.681   4.373   7.751  0.1054 -0.0897  0.6441
   57MOL     C414676   4.707   4.524   7.769  0.2930 -0.1177  0.4104
   57MOL     C514677   4.593   4.313   7.849 -0.0403  0.5843  0.4839
   57MOL     H614678   4.735   4.149   7.498 -0.6986 -1.4161  0.0090
   57MOL     H714679   4.780   4.091   7.661 -2.3745  0.0632  2.0024
   57MOL     H814680   4.812   4.360   7.592  0.2290 -0.5290  1.4349
   57MOL     H914681   4.742   4.551   7.868 -1.7546  1.4476  0.7350
   57MOL    H1014682   4.613   4.577   7.749 -0.7053 -2.1109 -0.3087
   57MOL    H1114683   4.781   4.558   7.697  1.3531  0.7714  1.9040
   57MOL    H1214684   4.654   4.302   0.060 -0.5155 -1.2411  0.6105
   57MOL    H1314685   4.566   4.213   7.815 -3.5271  1.2717  1.0100
   57MOL    H1414686   4.619   4.116   7.613  0.3706  0.5699 -1.0078
   57MOL    C1514687   4.477   4.401   0.017  0.3480 -0.4015  0.0308
   57MOL    C1614688   4.392   4.336   0.121 -0.2197 -0.5056  0.1444
   57MOL    C1714689   4.282   4.261   0.102 -0.1427  0.2895 -0.5732
   57MOL    C1814690   4.204   4.198   0.222  0.3459  0.4611  0.1079
   57MOL    C1914691   4.222   4.243   7.838 -0.3011 -0.8667 -0.4987
   57MOL    H2014692   4.410   4.436   7.817  0.4279  0.9293  0.5515
   57MOL    H2114693   4.514   4.495   0.056 -0.0559  0.0176 -0.5886
   57MOL    H2214694   4.437   4.351   0.219  0.5437 -0.4619 -0.2054
   57MOL    H2314695   4.212   4.090   0.239  0.6704  0.3588 -0.7167
   57MOL    H2414696   4.100   4.225   0.203 -0.0593 -0.3056  1.1342
   57MOL    H2514697   4.227   4.242   0.319  0.7114  2.1879 -0.7654
   57MOL    H2614698   4.281   4.285   7.757  0.9648  0.8042  1.2528
   57MOL    H2714699   4.124   4.290   7.847  0.9182  1.8499 -0.7753
   57MOL    C2814700   4.201   4.096   7.797  0.6269  0.2897  0.5223
   57MOL    C2914701   4.330   4.020   7.793  0.4985 -0.7087 -0.5062
   57MOL    C3014702   4.353   3.887   7.806 -0.4189 -0.0907  0.3695
   57MOL    C3114703   4.493   3.834   7.783  0.3023  0.1147 -0.5026
   57MOL    C3214704   4.250   3.785   7.840 -0.5290 -0.7365  0.4197
   57MOL    H3314705   4.138   4.081   7.709  1.2925 -1.2453  0.2774
   57MOL    H3414706   4.145   4.038   7.871 -0.9575 -0.3062 -1.1065
   57MOL    H3514707   4.413   4.080   7.760 -0.4015  0.7498 -0.1971
   57MOL    H3614708   4.518   3.757   7.855 -2.3771 -1.2815 -0.9778
   57MOL    H3714709   4.565   3.914   7.799  2.1390 -1.4086 -0.9356
   57MOL    H3814710   4.497   3.789   7.683  1.6711 -0.6986 -0.0864
   57MOL    H3914711   4.152   3.830   7.853  0.2479  1.2525 -0.5243
   57MOL    H4014712   4.276   3.748   0.061 -0.0679 -1.6207 -0.0183
   57MOL    C4114713   4.249   3.656   7.750  0.8066  0.0461 -0.5675
   57MOL    C4214714   4.115   3.586   7.766 -0.2228  0.1640  0.4522
   57MOL    C4314715   4.081   3.480   7.687  0.1343  0.2295  0.4350
   57MOL    C4414716   3.955   3.406   7.724  0.1248  0.8022  0.8112
   57MOL    C4514717   4.168   3.408   7.579 -0.4267 -0.1637  0.2349
   57MOL    H4614718   4.325   3.590   7.791  1.7229  1.6336  0.3348
   57MOL    H4714719   4.275   3.674   7.646  2.0399  0.5604 -0.1879
   57MOL    H4814720   4.062   3.605   7.858 -1.7114  0.2313 -0.3986
   57MOL    H4914721   3.970   3.319   7.788 -1.6311 -1.7660 -2.1194
   57MOL    H5014722   3.896   3.376   7.637  1.1667 -0.8044  0.6540
   57MOL    H5114723   3.902   3.474   7.791 -1.6020 -0.7945  1.1233
   57MOL    H5214724   4.150   3.301   7.573  0.8885 -0.5085  1.9493
   57MOL    H5314725   4.276   3.421   7.588  0.0965 -1.6565 -3.2353
   57MOL    C5414726   4.127   3.465   7.446 -0.3647  0.6900 -0.7098
   57MOL    C5514727   4.231   3.446   7.341  0.7202  0.7000 -0.0105
   57MOL    C5614728   4.274   3.550   7.264  0.0404 -0.6971 -0.1755
   57MOL    C5714729   4.388   3.524   7.170 -0.4031 -0.8456 -0.0132
   57MOL    C5814730   4.230   3.692   7.280  0.1439 -0.8009  0.1539
   57MOL    H5914731   4.096   3.568   7.458 -1.6251  0.1077  1.5134
   57MOL    H6014732   4.033   3.417   7.419 -0.6074  0.2520  0.8553
   57MOL    H6114733   4.263   3.346   7.318 -1.9276  0.1331 -1.4686
   57MOL    H6214734   4.457   3.608   7.161 -0.4614 -0.7729  0.2059
   57MOL    H6314735   4.350   3.515   7.069  1.3857 -1.2238 -0.6815
   57MOL    H6414736   4.444   3.434   7.198 -0.1813 -0.3609  1.1323
   57MOL    H6514737   4.291   3.756   7.217  0.7249  0.7768  2.2627
   57MOL    H6614738   4.228   3.729   7.383 -0.8551 -1.1248  0.2616
   57MOL    C6714739   4.095   3.716   7.210  0.5468 -0.2409 -0.5709
   57MOL    C6814740   4.053   3.855   7.248 -0.0090 -1.4121 -0.1304
   57MOL    C6914741   4.069   3.974   7.183  0.4158 -0.4466  0.6083
   57MOL    C7014742   4.015   4.102   7.244  0.3013 -0.0582  0.1766
   57MOL    C7114743   4.131   3.994   7.040 -0.1732  0.2332 -0.2918
   57MOL    H7214744   4.023   3.641   7.242 -0.3693  1.2397  0.9465
   57MOL    H7314745   4.107   3.718   7.102 -1.8094 -0.1939 -0.8421
   57MOL    H7414746   4.000   3.864   7.342  0.0425  2.7832 -0.4327
   57MOL    H7514747   3.935   4.142   7.181  0.3823  3.2577  2.0815
   57MOL    H7614748   4.092   4.178   7.250 -0.0957  0.5622 -2.1842
   57MOL    H7714749   3.972   4.078   7.341 -0.9296 -2.2687 -0.8653
   57MOL    H7814750   4.087   4.078   6.986 -2.0710 -1.3898 -1.3054
   57MOL    H7914751   4.108   3.910   6.976 -2.4438  0.8904 -0.3825
   57MOL    C8014752   4.286   4.011   7.043  0.3165 -0.2135 -0.0372
   57MOL    C8114753   4.334   4.130   7.116 -0.0151 -0.0925 -0.0160
   57MOL    C8214754   4.388   4.133   7.240 -1.2055  0.4587  0.2490
   57MOL    C8314755   4.410   4.016   7.337 -0.5286  0.3202  0.3534
   57MOL    C8414756   4.425   4.261   7.302 -0.1041  0.0899 -0.2320
   57MOL    H8514757   4.316   4.039   6.942 -2.1762  0.3684 -0.6398
   57MOL    H8614758   4.335   3.916   7.065  2.3670  1.0550  1.0306
   57MOL    H8714759   4.321   4.224   7.063  1.1991  0.2505  0.2741
   57MOL    H8814760   4.511   4.009   7.378 -1.2748 -2.1406  1.8746
   57MOL    H8914761   4.405   3.915   7.297 -1.1684  0.4399  0.1326
   57MOL    H9014762   4.331   4.014   7.411 -1.3005 -0.8214 -0.4890
   57MOL    H9114763   4.425   4.335   7.223  1.8338 -1.0713 -1.3578
   57MOL    H9214764   4.527   4.256   7.341 -0.9610  0.3855  2.1372
   57MOL    C9314765   4.322   4.298   7.410 -0.0420 -0.2368  0.0967
   57MOL    C9414766   4.364   4.427   7.479 -0.3984  0.0522 -0.3016
   57MOL    C9514767   4.317   4.550   7.447 -0.3406 -0.4835  0.5451
   57MOL    C9614768   4.386   4.671   7.490 -0.0565 -0.8850 -0.4023
   57MOL    C9714769   4.188   4.576   7.374 -0.0176  0.1277 -0.0049
   57MOL    H9814770   4.316   4.218   7.483 -1.0208  0.0724  0.3623
   57MOL    H9914771   4.229   4.319   7.356  0.3256 -0.0893 -0.4846
   57MOL   H10014772   4.449   4.414   7.544 -2.3226  0.1031  2.3070
   57MOL   H10114773   4.336   4.708   7.579  2.6564 -0.0211  0.8138
   57MOL   H10214774   4.489   4.644   7.513 -0.4010 -1.2265  0.7701
   57MOL   H10314775   4.383   4.752   7.417  0.8798 -0.0384  0.4806
   57MOL   H10414776   4.137   4.659   7.422  0.8162  1.4406 -1.3524
   57MOL   H10514777   4.125   4.492   7.405  1.2807 -1.4325 -1.4544
   57MOL   C10614778   4.207   4.600   7.222  0.2678 -0.3743 -0.4204
   57MOL   C10714779   4.076   4.608   7.138 -0.2434  0.2151  0.9160
   57MOL   C10814780   4.052   4.538   7.026  1.1518  0.4203 -0.1740
   57MOL   C10914781   4.156   4.448   6.964  0.1503 -0.1687  0.0466
   57MOL   C11014782   3.915   4.543   6.949 -0.1155  0.9729 -0.0877
   57MOL   H11114783   4.290   4.540   7.186 -0.5267 -0.8824 -1.4555
   57MOL   H11214784   4.252   4.698   7.210  0.7824 -0.2120  2.4625
   57MOL   H11314785   4.005   4.677   7.181 -0.2794  0.1435  0.9721
   57MOL   H11414786   4.123   4.352   6.923  0.4542 -0.8880  1.4542
   57MOL   H11514787   4.205   4.507   6.886  2.6292 -0.5800  1.2445
   57MOL   H11614788   4.249   4.435   7.019 -0.1225  2.3220  1.1522
   57MOL   H11714789   3.900   4.438   6.923 -0.5631  1.3585 -1.3851
   57MOL   H11814790   3.937   4.607   6.864 -1.0143  1.3829 -0.0222
   57MOL   C11914791   3.799   4.608   7.024  0.3092 -0.1196 -0.0618
   57MOL   C12014792   3.671   4.580   6.945 -0.4604 -0.0807  0.2197
   57MOL   C12114793   3.579   4.666   6.898 -0.3797  0.5513 -0.5273
   57MOL   C12214794   3.463   4.616   6.819 -0.1965  0.3036  0.1630
   57MOL   C12314795   3.585   4.810   6.929  0.1856  0.0117  0.4710
   57MOL   H12414796   3.824   4.713   7.014  2.3658 -0.6630 -1.0516
   57MOL   H12514797   3.769   4.580   7.125 -0.7311  0.7896 -0.1163
   57MOL   H12614798   3.668   4.474   6.926 -0.8074 -0.4169  2.0402
   57MOL   H12714799   3.439   4.671   6.728  1.2567 -0.0390 -0.4425
   57MOL   H12814800   3.378   4.619   6.887  0.1671 -1.0618  0.7016
   57MOL   H12914801   3.472   4.510   6.797  2.1247  0.3673  0.6886
   57MOL   H13014802   3.646   4.859   6.853  1.4429 -1.3875  0.5538
   57MOL   H13114803   3.622   4.835   7.028  0.1706 -2.7867  1.2225
   57MOL   C13214804   3.446   4.896   6.920  0.9465  0.1638  0.5596
   57MOL   C13314805   3.465   5.047   6.954  0.0932  0.4005 -0.1308
   57MOL   C13414806   3.459   5.148   6.867 -0.5765  0.8867  0.2883
   57MOL   C13514807   3.471   5.295   6.910 -0.3900  0.2624 -0.2500
   57MOL   C13614808   3.462   5.135   6.714 -1.3583  0.4357 -0.4681
   57MOL   H13714809   3.372   4.863   6.994 -0.3151 -1.0500 -1.1923
   57MOL   H13814810   3.396   4.896   6.823  1.8442 -0.4259  0.0931
   57MOL   H13914811   3.472   5.062   7.061 -1.4340  0.7741 -0.0721
   57MOL   H14014812   3.428   5.375   6.850  0.9951  1.5581  0.4524
   57MOL   H14114813   3.578   5.312   6.892 -0.3321 -1.0573 -1.2297
   57MOL   H14214814   3.440   5.298   7.014 -0.5743  0.1538 -0.3022
   57MOL   H14314815   3.384   5.203   6.681 -1.6077  0.7670  0.7746
   57MOL   H14414816   3.426   5.040   6.674 -0.7643 -0.4893  1.1615
   57MOL   C14514817   3.595   5.173   6.654  0.4173  0.3265  0.5794
   57MOL   C14614818   3.607   5.162   6.503  1.1880 -0.3326  0.2406
   57MOL   C14714819   3.618   5.255   6.405  0.1783 -0.1721  0.6560
   57MOL   C14814820   3.637   5.218   6.261 -0.5389 -0.7376  0.5844
   57MOL   C14914821   3.601   5.404   6.431 -0.5696  0.3745  0.3230
   57MOL   H15014822   3.677   5.111   6.691  0.2491 -0.2045  0.0739
   57MOL   H15114823   3.634   5.267   6.693 -0.9274  1.3757 -0.5572
   57MOL   H15214824   3.606   5.058   6.474  0.1130  0.0555 -1.1837
   57MOL   H15314825   3.648   5.109   6.263 -0.2967 -0.7211 -0.0236
   57MOL   H15414826   3.715   5.274   6.210 -0.3900  0.4699  2.0866
   57MOL   H15514827   3.539   5.233   6.216  0.1958 -0.8723 -1.0733
   57MOL   H15614828   3.687   5.465   6.407 -1.1420  0.5592 -1.3721
   57MOL   H15714829   3.579   5.414   6.537 -0.6969 -0.5728  0.3980
   57MOL   C15814830   3.488   5.471   6.362  0.1520  0.4168 -0.1463
   57MOL   C15914831   3.349   5.409   6.393  0.5237 -0.7020  0.1611
   57MOL   C16014832   3.242   5.486   6.435  0.7918  0.5348  0.4621
   57MOL   C16114833   3.247   5.626   6.438 -0.0857 -0.3499  0.4379
   57MOL   C16214834   3.118   5.420   6.496 -0.4023 -0.4020 -0.1413
   57MOL   H16314835   3.501   5.466   6.254  0.5346 -0.8346 -0.0479
   57MOL   H16414836   3.482   5.579   6.377  0.3481  0.6800 -1.8360
   57MOL   H16514837   3.342   5.301   6.398 -2.1353 -0.7529 -2.6881
   57MOL   H16614838   3.323   5.670   6.503  1.2444 -1.8153 -0.0676
   57MOL   H16714839   3.153   5.674   6.461  0.2947  0.7701 -0.2953
   57MOL   H16814840   3.245   5.658   6.334  0.0920  0.2873  0.6314
   57MOL   H16914841   3.118   5.312   6.482 -2.6681 -0.6012  1.1380
   57MOL   H17014842   3.039   5.459   6.433 -0.4124  0.1174  0.1905
   57MOL   C17114843   3.082   5.454   6.643  0.1267  0.6583  0.1229
   57MOL   C17214844   2.943   5.416   6.687 -0.1434  0.0841 -0.3667
   57MOL   C17314845   2.850   5.487   6.752  0.7088  0.0040  0.1113
   57MOL   C17414846   2.869   5.636   6.789  0.0796 -1.2662  0.0380
   57MOL   C17514847   2.713   5.427   6.783  0.9405 -0.1445  0.1020
   57MOL   H17614848   3.105   5.559   6.664 -0.7106  0.6924  0.8984
   57MOL   H17714849   3.151   5.389   6.697  0.1823 -1.3455 -2.2729
   57MOL   H17814850   2.921   5.314   6.660 -0.8551 -0.1811  1.1947
   57MOL   H17914851   2.817   5.710   6.727 -0.1916 -1.8793 -0.4695
   57MOL   H18014852   2.974   5.661   6.801 -0.8980  3.5750 -0.3896
   57MOL   H18114853   2.838   5.646   6.893 -0.6565  0.2543 -0.3059
   57MOL   H18214854   2.696   5.357   6.701 -1.6885  0.4431  0.0939
   57MOL   H18314855   2.634   5.502   6.779  0.7513 -0.3637 -0.2275
   57MOL   C18414856   2.719   5.364   6.919  0.3783 -0.0961  0.0533
   57MOL   C18514857   2.597   5.275   6.934 -0.0619  0.9308  0.4313
   57MOL   C18614858   2.479   5.311   6.981  0.6645  0.3969 -0.7186
   57MOL   C18714859   2.364   5.221   6.969  0.3413  0.1002 -0.8532
   57MOL   C18814860   2.451   5.452   7.036  0.5178 -0.2097  0.7549
   57MOL   H18914861   2.714   5.441   6.996  2.6753 -0.9678  1.1155
   57MOL   H19014862   2.804   5.297   6.931  1.3238  1.6957  4.1259
   57MOL   H19114863   2.607   5.173   6.902 -0.9103  1.3956 -1.4088
   57MOL   H19214864   2.299   5.281   6.905  2.0008  2.0756 -0.7009
   57MOL   H19314865   2.323   5.204   7.069 -0.1098  2.6157 -0.5850
   57MOL   H19414866   2.398   5.130   6.920  0.2079 -0.8299  0.7352
   57MOL   H19514867   2.353   5.483   6.999  1.0703  2.7417  1.6376
   57MOL   H19614868   2.515   5.528   6.991  0.1772  1.5520  3.1650
   57MOL   C19714869   2.457   5.473   7.186  0.0236 -0.0700 -0.4659
   57MOL   C19814870   2.447   5.625   7.212  0.7776  0.1706 -0.1455
   57MOL   C19914871   2.538   5.711   7.265  0.6750 -0.1617 -0.0736
   57MOL   C20014872   2.495   5.858   7.295 -0.1446 -0.0107  0.8606
   57MOL   C20114873   2.678   5.664   7.307 -0.5223  0.4800 -0.0876
   57MOL   H20214874   2.551   5.439   7.229  0.0028  2.2413  1.4435
   57MOL   H20314875   2.376   5.413   7.228  0.1515 -0.4103 -0.7009
   57MOL   H20414876   2.347   5.664   7.198  1.2147  1.4441  0.2586
   57MOL   H20514877   2.387   5.865   7.301 -0.3172  0.4471 -1.9961
   57MOL   H20614878   2.522   5.929   7.216 -3.1512  2.2492  1.7940
   57MOL   H20714879   2.539   5.889   7.390 -0.6712  0.1521  1.0487
   57MOL   H20814880   2.745   5.749   7.294 -0.7328  0.4315 -1.5965
   57MOL   H20914881   2.718   5.597   7.231  0.5655 -0.3927  1.2426
   57MOL   C21014882   2.679   5.614   7.455 -0.3634  0.3157 -0.0033
   57MOL   C21114883   2.799   5.529   7.492 -0.3053  0.2549 -0.6664
   57MOL   C21214884   2.889   5.555   7.591 -0.1668 -0.3443 -0.3206
   57MOL   C21314885   3.011   5.465   7.615  0.3116  0.3324  0.4409
   57MOL   C21414886   2.885   5.673   7.686  0.1955  0.6524 -0.0688
   57MOL   H21514887   2.588   5.565   7.489 -0.1309 -0.2101 -0.1302
   57MOL   H21614888   2.668   5.710   7.505 -0.1489  0.9451 -1.1338
   57MOL   H21714889   2.818   5.443   7.429  1.1469 -0.4945  0.7400
   57MOL   H21814890   3.103   5.517   7.588  0.6622  0.1000  1.1539
   57MOL   H21914891   2.996   5.382   7.546 -1.8771  0.4480  0.7538
   57MOL   H22014892   3.016   5.432   7.719  0.9961 -3.3088 -0.6667
   57MOL   H22114893   2.816   5.751   7.654 -0.2173 -0.2779 -1.4690
   57MOL   H22214894   2.983   5.720   7.684 -0.0702  1.1881 -1.8833
   57MOL   C22314895   2.850   5.624   7.826  0.7690 -0.2967 -0.9738
   57MOL   C22414896   2.813   5.723   0.058 -0.6591 -0.0023 -0.3722
   57MOL   C22514897   2.692   5.763   0.104 -0.3174  0.7736 -0.1111
   57MOL   C22614898   2.682   5.862   0.217  0.0309  0.5244  0.2060
   57MOL   C22714899   2.559   5.701   0.055  0.6276 -0.6136 -0.4207
   57MOL   H22814900   2.931   5.570   7.876  0.2754 -1.5055 -1.4871
   57MOL   H22914901   2.776   5.545   7.820  0.1482  0.2437 -0.5404
   57MOL   H23014902   2.900   5.775   0.096 -0.8072 -0.4281  0.5656
   57MOL   H23114903   2.631   5.825   0.306 -0.3983 -0.8042 -0.5714
   57MOL   H23214904   2.613   5.941   0.190 -0.6409 -0.0611  0.1877
   57MOL   H23314905   2.780   5.899   0.246  1.5877 -1.8275 -1.9020
   57MOL   H23414906   2.491   5.716   0.139  0.7933  0.4850 -0.4722
   57MOL   H23514907   2.554   5.594   0.037  0.5256 -0.6451 -0.2058
   57MOL   C23614908   2.512   5.772   7.803 -0.2540 -0.2195 -0.4705
   57MOL   C23714909   2.445   5.680   7.697 -0.4506  0.1845 -0.2092
   57MOL   C23814910   2.329   5.699   7.639  0.1533 -0.1228  0.0468
   57MOL   C23914911   2.291   5.594   7.534 -0.1684 -0.3843 -0.0977
   57MOL   C24014912   2.231   5.814   7.666 -0.3348 -0.1199  0.1694
   57MOL   H24114913   2.596   5.819   7.751  0.0640 -0.3828 -0.1128
   57MOL   H24214914   2.450   5.859   7.823 -2.7722 -1.8432 -1.0011
   57MOL   H24314915   2.504   5.595   7.667 -0.6901 -0.3495  0.7941
   57MOL   H24414916   2.377   5.535   7.504  0.4760 -0.0688  1.0860
   57MOL   H24514917   2.243   5.637   7.446 -1.2308 -1.3997 -0.0242
   57MOL   H24614918   2.226   5.526   7.588 -1.4375  0.0739 -1.0188
   57MOL   H24714919   2.239   5.851   7.768 -0.2747  0.1202  0.0783
   57MOL   H24814920   2.129   5.774   7.664 -0.5357  0.4284 -0.7880
   57MOL   C24914921   2.249   5.940   7.566  1.0223 -0.2456 -0.1062
   57MOL   C25014922   2.143   6.050   7.582  0.0483 -0.2472 -0.0222
   57MOL   C25114923   2.047   6.100   7.497 -0.4065  0.8765 -0.2065
   57MOL   C25214924   1.935   6.189   7.540  0.5215  0.3019 -0.2472
   57MOL   C25314925   2.026   6.063   7.351  0.7122  0.0241  0.5606
   57MOL   H25414926   2.246   5.917   7.460  3.6752 -2.6106  0.2902
   57MOL   H25514927   2.349   5.980   7.584  0.9027  0.0584 -0.0981
   57MOL   H25614928   2.136   6.083   7.685  1.5512 -0.3482  0.1152
   57MOL   H25714929   1.927   6.195   7.649  1.5319  1.8991 -0.2275
   57MOL   H25814930   1.835   6.161   7.508 -0.9096  3.5834  1.1133
   57MOL   H25914931   1.966   6.290   7.512  1.1809 -0.1475 -1.1507
   57MOL   H26014932   1.983   6.142   7.290  0.4374  1.1559  2.1836
   57MOL   H26114933   1.955   5.981   7.366 -0.0094  0.2437 -1.5150
   57MOL   H26214934   2.115   6.024   7.302 -0.3865  1.6277 -2.8673
   58MOL     C114935   7.224   3.416   6.554 -0.2055 -1.1555 -0.5493
   58MOL     C214936   7.195   3.554   6.510 -0.1604 -0.6039 -0.6705
   58MOL     C314937   7.274   3.665   6.531 -0.2046  0.4890  0.6749
   58MOL     C414938   7.228   3.802   6.496 -0.0657 -0.0454  0.3333
   58MOL     C514939   7.401   3.666   6.609  0.3704 -0.4626 -0.5990
   58MOL     H614940   7.331   3.395   6.557 -0.0280 -0.2809 -0.6775
   58MOL     H714941   7.180   3.392   6.651  0.3821  1.0340  0.2852
   58MOL     H814942   7.100   3.568   6.461  1.2198  1.6180 -2.8856
   58MOL     H914943   7.132   3.796   6.444  0.7868  0.3197 -1.3024
   58MOL    H1014944   7.294   3.858   6.430 -0.5229  0.7834  0.5670
   58MOL    H1114945   7.207   3.854   6.590  0.7555 -0.3247  0.6704
   58MOL    H1214946   7.420   3.564   6.642  0.0990  0.5196  2.7554
   58MOL    H1314947   7.385   3.730   6.696 -1.5821 -2.0322  0.2228
   58MOL    H1414948   7.171   3.355   6.481 -0.0205 -1.4556 -0.4333
   58MOL    C1514949   7.522   3.715   6.523  0.0582 -0.0321  0.7755
   58MOL    C1614950   7.518   3.659   6.386 -0.4697  0.2342  0.3063
   58MOL    C1714951   7.561   3.722   6.273 -1.2269  0.3891 -0.0504
   58MOL    C1814952   7.548   3.657   6.137  0.3286  0.1569  0.0095
   58MOL    C1914953   7.631   3.853   6.281  0.2040 -0.1510 -0.5307
   58MOL    H2014954   7.614   3.688   6.574  1.0662  2.8386  0.5817
   58MOL    H2114955   7.521   3.824   6.524  3.5957  0.0549  1.7658
   58MOL    H2214956   7.470   3.564   6.373 -0.6546  0.4806 -0.9054
   58MOL    H2314957   7.646   3.618   6.106  1.3601 -1.0607  4.5087
   58MOL    H2414958   7.515   3.736   6.069  1.2675  1.2455  0.7956
   58MOL    H2514959   7.467   3.585   6.143  0.9060 -0.4434  0.5437
   58MOL    H2614960   7.705   3.841   6.202 -1.2317 -1.7922 -1.6775
   58MOL    H2714961   7.691   3.859   6.371 -0.1536  0.9475 -0.3534
   58MOL    C2814962   7.536   3.968   6.264  0.4502  0.1908  0.1282
   58MOL    C2914963   7.608   4.097   6.233  0.2645 -0.5963  0.3680
   58MOL    C3014964   7.587   4.182   6.136 -0.2162 -0.1781  0.5504
   58MOL    C3114965   7.683   4.306   6.129 -0.0241  0.5717 -0.3503
   58MOL    C3214966   7.502   4.170   6.009 -0.4160 -0.2118 -0.1603
   58MOL    H3314967   7.480   3.996   6.353 -1.0915 -2.4088  0.0376
   58MOL    H3414968   7.464   3.941   6.188 -1.9330  2.0354  1.6788
   58MOL    H3514969   7.679   4.126   6.309 -0.2089 -0.3601  0.7256
   58MOL    H3614970   7.765   4.293   6.059 -0.0281 -0.5584 -0.1579
   58MOL    H3714971   7.736   4.329   6.221 -0.5928  1.3458 -0.2184
   58MOL    H3814972   7.643   4.394   6.078 -0.1627  0.4696 -0.4184
   58MOL    H3914973   7.437   4.257   6.002  0.5301  0.9364  4.0123
   58MOL    H4014974   7.437   4.086   6.033 -0.6582 -0.3178 -1.1533
   58MOL    C4114975   7.576   4.148   5.875 -0.2288  0.0907  0.3783
   58MOL    C4214976   7.486   4.136   5.755  0.4017  0.0055  0.1782
   58MOL    C4314977   7.422   4.033   5.706 -0.3278  0.5638  0.3386
   58MOL    C4414978   7.343   4.036   5.578  0.5739 -0.0234 -0.4037
   58MOL    C4514979   7.434   3.899   5.767  0.3576 -0.5258  0.6634
   58MOL    H4614980   7.621   4.049   5.878 -2.1107 -0.8915 -2.0957
   58MOL    H4714981   7.643   4.230   5.849  0.1699 -0.3128  0.1270
   58MOL    H4814982   7.482   4.226   5.695  1.4520 -0.7538 -1.0435
   58MOL    H4914983   7.245   4.005   5.613  0.8415  0.1230  0.4913
   58MOL    H5014984   7.371   3.957   5.508  2.5002 -0.6220  1.0169
   58MOL    H5114985   7.327   4.136   5.536 -1.2541  0.2018  0.7681
   58MOL    H5214986   7.337   3.850   5.759  1.1908 -2.1738  0.3904
   58MOL    H5314987   7.458   3.905   5.873  0.6491 -1.5481  0.6606
   58MOL    C5414988   7.539   3.806   5.699  0.2425 -0.4758 -0.3505
   58MOL    C5514989   7.529   3.665   5.752 -0.1623  0.0660 -0.7732
   58MOL    C5614990   7.631   3.583   5.785  0.1367 -0.6341  0.3169
   58MOL    C5714991   7.603   3.450   5.849 -0.1751  0.1204  0.4814
   58MOL    C5814992   7.779   3.609   5.756  0.3502  0.1160  0.2790
   58MOL    H5914993   7.642   3.840   5.711  0.3572  0.1558 -2.8097
   58MOL    H6014994   7.529   3.796   5.591 -1.6073  2.0218 -0.4460
   58MOL    H6114995   7.425   3.638   5.754 -0.1686  0.1294 -0.3464
   58MOL    H6214996   7.521   3.398   5.800 -0.9622  1.2231  0.6201
   58MOL    H6314997   7.567   3.466   5.950  3.0253  1.6236  1.4712
   58MOL    H6414998   7.694   3.391   5.862 -0.3236 -0.1006  0.5069
   58MOL    H6514999   7.795   3.705   5.706 -0.4781 -0.7284 -1.6766
   58MOL    H6615000   7.820   3.526   5.698  0.6449  0.9712 -0.7770
   58MOL    C6715001   7.858   3.624   5.883 -0.4145 -0.3093 -1.0382
   58MOL    C6815002   0.124   3.657   5.863  0.2983  0.2162  0.1164
   58MOL    C6915003   0.172   3.782   5.850 -0.0733  0.4008  0.2848
   58MOL    C7015004   0.322   3.801   5.846  0.1270  0.8510  0.1694
   58MOL    C7115005   0.093   3.915   5.836  0.2342  0.9238  1.0107
   58MOL    H7215006   7.858   3.528   5.935 -1.9155  1.2709  2.0300
   58MOL    H7315007   7.811   3.695   5.950  0.0900  0.3717 -1.3965
   58MOL    H7415008   0.197   3.579   5.879 -0.4884 -0.3523  0.9449
   58MOL    H7515009   0.365   3.703   5.822  0.7140  0.2045  3.6727
   58MOL    H7615010   0.362   3.830   5.943  1.4000 -2.7766  0.8262
   58MOL    H7715011   0.367   3.873   5.777  1.1172  0.4583  0.3866
   58MOL    H7815012   0.109   3.982   5.920  0.7499 -0.1322  1.7736
   58MOL    H7915013   7.871   3.876   5.850  0.5005 -0.6930 -1.2473
   58MOL    C8015014   0.107   3.982   5.702  0.0501 -0.0321  1.2218
   58MOL    C8115015   0.037   4.114   5.688 -0.1010  0.1458  0.2309
   58MOL    C8215016   0.079   4.232   5.637  0.3038 -0.2098  0.0109
   58MOL    C8315017   0.222   4.244   5.575  0.1211 -0.6989 -0.2775
   58MOL    C8415018   7.878   4.364   5.640 -0.0455  0.2891 -0.3470
   58MOL    H8515019   0.075   3.921   5.617 -1.2130  0.8733  1.0291
   58MOL    H8615020   0.215   3.995   5.696  0.0892 -1.0311 -0.6257
   58MOL    H8715021   7.824   4.127   5.743 -0.8227  1.6579 -1.2865
   58MOL    H8815022   0.222   4.182   5.485  2.0625  0.7411 -1.3083
   58MOL    H8915023   0.283   4.221   5.662  0.6645  0.5111 -0.3316
   58MOL    H9015024   0.225   4.350   5.550  1.3685 -0.1251  2.2002
   58MOL    H9115025   0.051   4.448   5.685  0.6529  0.4203 -1.3801
   58MOL    H9215026   7.788   4.346   5.699 -0.2701 -0.1648 -0.8206
   58MOL    C9315027   7.846   4.401   5.497 -1.0509  0.1679 -0.5797
   58MOL    C9415028   7.706   4.350   5.447  0.0020 -0.8877 -0.6953
   58MOL    C9515029   7.676   4.294   5.327 -0.1053 -0.3082 -0.4039
   58MOL    C9615030   7.533   4.263   5.298 -0.3919  0.1017 -0.2699
   58MOL    C9715031   7.775   4.293   5.207  1.2027  0.0576  0.1740
   58MOL    H9815032   0.042   4.395   5.418 -0.7293 -1.3923 -0.1714
   58MOL    H9915033   7.830   4.508   5.508  2.7093  0.7481  0.0638
   58MOL   H10015034   7.624   4.349   5.518 -0.1278 -1.6092 -0.8574
   58MOL   H10115035   7.495   4.351   5.247 -1.1747  0.2270  0.5270
   58MOL   H10215036   7.521   4.180   5.228 -0.8039 -0.2961  0.2761
   58MOL   H10315037   7.467   4.252   5.384 -2.3595  0.1844 -1.7531
   58MOL   H10415038   7.784   4.185   5.193 -2.4866 -0.0215 -2.2796
   58MOL   H10515039   7.876   4.329   5.228  1.5664 -1.9215  1.9607
   58MOL   C10615040   7.733   4.364   5.078 -0.4547 -1.0612 -0.4044
   58MOL   C10715041   7.827   4.327   4.962 -0.9160  0.1778 -0.5609
   58MOL   C10815042   7.812   4.217   4.887 -0.4750 -0.1015 -0.3515
   58MOL   C10915043   7.715   4.104   4.912 -0.1507  0.0338 -0.3667
   58MOL   C11015044   0.002   4.217   4.753  0.8552  0.2930 -0.3153
   58MOL   H11115045   7.735   4.473   5.081 -1.5050 -1.0386 -0.1742
   58MOL   H11215046   7.635   4.341   5.036  0.3101  0.3768 -3.1099
   58MOL   H11315047   0.008   4.404   4.915 -0.7817 -0.0769 -0.8025
   58MOL   H11415048   7.654   4.089   4.823  2.9836 -1.3090 -2.3560
   58MOL   H11515049   7.772   4.012   4.925  1.3724  1.0434  0.1938
   58MOL   H11615050   7.665   4.107   5.009  2.2335 -1.0921  0.9575
   58MOL   H11715051   0.022   4.111   4.734 -0.1766 -0.1606  1.0621
   58MOL   H11815052   0.105   4.253   4.751  0.9278  0.1646  0.9988
   58MOL   C11915053   7.803   4.284   4.639  0.3526  0.3862 -0.1631
   58MOL   C12015054   7.837   4.219   4.507  0.0728 -0.4961  0.1260
   58MOL   C12115055   7.853   4.274   4.387  0.1262 -0.2182 -0.0159
   58MOL   C12215056   7.877   4.191   4.266  0.3817 -0.5109 -0.2072
   58MOL   C12315057   7.848   4.422   4.359  0.9529  0.1363 -0.2620
   58MOL   H12415058   7.812   4.392   4.642  0.6431  0.3598 -0.0452
   58MOL   H12515059   7.698   4.260   4.652  0.5126  0.3322  1.0506
   58MOL   H12615060   7.844   4.111   4.514 -0.3451 -0.5882 -0.8507
   58MOL   H12715061   7.797   4.210   4.195 -0.5097  0.6881  1.1094
   58MOL   H12815062   0.006   4.087   4.296  1.5751 -0.4812 -0.3582
   58MOL   H12915063   0.093   4.224   4.222 -0.8259 -0.9044 -3.2266
   58MOL   H13015064   0.057   4.449   4.300  2.4233 -0.0210  1.8086
   58MOL   H13115065   7.851   4.473   4.455 -3.8284 -0.8951  0.5426
   58MOL   C13215066   7.715   4.462   4.291  0.5347 -0.0932  0.8098
   58MOL   C13315067   7.723   4.595   4.227  0.5003  0.5478 -0.4023
   58MOL   C13415068   7.763   4.618   4.102 -0.6758 -0.0936  0.4443
   58MOL   C13515069   7.750   4.761   4.048  0.1414 -0.0531  0.3260
   58MOL   C13615070   7.806   4.515   3.999  0.6414  0.4052  0.2344
   58MOL   H13715071   7.637   4.455   4.367  0.4513  0.2876  0.7584
   58MOL   H13815072   7.690   4.391   4.212 -1.7957  0.5620  0.9163
   58MOL   H13915073   7.685   4.676   4.286  0.6396  0.2530  0.0912
   58MOL   H14015074   7.851   4.800   4.062  0.4497 -0.6892 -0.1327
   58MOL   H14115075   7.692   4.830   4.109  0.0854  1.6327 -1.6006
   58MOL   H14215076   7.705   4.763   3.949 -4.4522 -0.0962  2.2737
   58MOL   H14315077   7.861   4.440   4.056 -1.8954 -2.4455 -0.9524
   58MOL   H14415078   0.011   4.551   3.940 -0.3174 -2.0800 -2.7247
   58MOL   C14515079   7.696   4.461   3.903  0.0497  0.2975 -0.2744
   58MOL   C14615080   7.747   4.379   3.786 -0.1031  0.0961  0.5329
   58MOL   C14715081   7.736   4.248   3.763 -0.5577 -0.0330  0.5322
   58MOL   C14815082   7.812   4.193   3.652 -0.2415  0.6634  0.4628
   58MOL   C14915083   7.660   4.156   3.859  0.1286 -0.2301  1.0354
   58MOL   H15015084   7.660   4.548   3.849  0.1988  1.3215  1.2599
   58MOL   H15115085   7.609   4.428   3.961  1.0602 -0.9665  0.5505
   58MOL   H15215086   7.798   4.451   3.723 -3.9887 -0.5472 -3.6689
   58MOL   H15315087   7.749   4.136   3.583  0.7682  0.1384 -0.0483
   58MOL   H15415088   0.004   4.118   3.688 -0.5728 -0.8497 -1.8915
   58MOL   H15515089   7.848   4.275   3.590 -0.8987 -0.0114 -0.8347
   58MOL   H15615090   7.589   4.093   3.804 -3.3254  2.5578  2.1145
   58MOL   H15715091   7.585   4.220   3.905 -0.0374 -1.5461  2.6472
   58MOL   C15815092   7.745   4.083   3.956  0.0354  0.6405 -0.2218
   58MOL   C15915093   7.676   4.016   4.068  0.4520 -0.0237  1.0856
   58MOL   C16015094   7.668   3.885   4.094 -0.0792 -0.3755  0.3597
   58MOL   C16115095   7.724   3.781   3.992  0.2335  0.2968 -0.3001
   58MOL   C16215096   7.589   3.826   4.210  0.3880 -0.1120 -0.8937
   58MOL   H16315097   7.815   4.158   3.994 -0.9277  0.8499  1.1609
   58MOL   H16415098   7.801   4.009   3.899 -1.7733  0.4526 -1.7697
   58MOL   H16515099   7.623   4.091   4.125  0.7228  0.2362  0.9940
   58MOL   H16615100   7.672   3.688   4.015 -1.5182  1.1674 -0.6727
   58MOL   H16715101   7.828   3.783   4.025  0.5914  2.5256 -1.4621
   58MOL   H16815102   7.723   3.817   3.889  0.0885 -0.9339 -0.7271
   58MOL   H16915103   7.501   3.769   4.177 -1.3161  1.8697  0.1423
   58MOL   H17015104   7.552   3.907   4.273 -2.2998 -1.6703 -0.3577
   58MOL   C17115105   7.665   3.746   4.324 -0.0984 -0.6051 -0.2804
   58MOL   C17215106   7.574   3.695   4.428  0.6392 -0.0122  0.3942
   58MOL   C17315107   7.552   3.756   4.550 -0.6145  0.2058 -0.3210
   58MOL   C17415108   7.618   3.884   4.591 -0.8950 -0.2000 -0.1435
   58MOL   C17515109   7.457   3.687   4.650 -0.8792  0.0105  0.5166
   58MOL   H17615110   7.744   3.808   4.365  0.3541  0.5981 -2.8692
   58MOL   H17715111   7.713   3.658   4.281 -1.0456 -0.8157 -0.9143
   58MOL   H17815112   7.515   3.606   4.416  0.1660  0.0922  1.7898
   58MOL   H17915113   7.727   3.878   4.584 -0.8366  0.2999  0.3316
   58MOL   H18015114   7.589   3.903   4.694  0.0258  1.6555 -0.1916
   58MOL   H18115115   7.571   3.970   4.543 -1.7446 -0.6491 -0.1238
   58MOL   H18215116   7.519   3.676   4.739 -0.5748  1.1068  0.4459
   58MOL   H18315117   7.434   3.582   4.630 -0.5058 -0.2798  1.6007
   58MOL   C18415118   7.348   3.766   4.708  0.2887 -0.3127 -0.5672
   58MOL   C18515119   7.224   3.783   4.627 -0.7606 -0.1572  0.2813
   58MOL   C18615120   7.168   3.892   4.572 -0.0030  0.3350  0.3452
   58MOL   C18715121   7.040   3.865   4.489  0.4113 -0.2179 -0.2561
   58MOL   C18815122   7.221   4.031   4.568  0.1014 -0.2864  0.0238
   58MOL   H18915123   7.389   3.860   4.744  2.4150 -0.8282 -1.5536
   58MOL   H19015124   7.310   3.713   4.796  0.7105 -0.3269 -0.3918
   58MOL   H19115125   7.164   3.694   4.613 -3.4478  1.5294  0.7209
   58MOL   H19215126   6.972   3.805   4.550  2.0587 -2.4295 -0.5482
   58MOL   H19315127   7.064   3.807   4.401  3.2896  0.2382  0.1999
   58MOL   H19415128   6.994   3.961   4.467  1.7831  0.1913 -1.3951
   58MOL   H19515129   7.304   4.043   4.639  1.0144 -0.7292 -0.9472
   58MOL   H19615130   7.135   4.093   4.590  1.6701  1.8118  0.4405
   58MOL   C19715131   7.272   4.070   4.434 -0.0100  0.1328  0.0557
   58MOL   C19815132   7.311   4.211   4.418 -0.6627  0.0486 -0.4811
   58MOL   C19915133   7.321   4.284   4.310 -0.4217 -0.1882 -0.2441
   58MOL   C20015134   7.340   4.436   4.317  0.1465 -0.5260  0.2341
   58MOL   C20115135   7.303   4.232   4.167 -0.5204  0.0104  0.4375
   58MOL   H20215136   7.199   4.034   4.362 -1.9703  0.1292  2.0229
   58MOL   H20315137   7.371   4.031   4.408 -0.5337 -0.8024 -0.5617
   58MOL   H20415138   7.330   4.262   4.512 -2.9108  0.1998 -0.0859
   58MOL   H20515139   7.369   4.452   4.421 -3.5819 -1.1643  1.4636
   58MOL   H20615140   7.250   4.491   4.288  0.5903 -0.0510 -0.2568
   58MOL   H20715141   7.407   4.473   4.240 -0.1970 -1.7031 -0.6306
   58MOL   H20815142   7.296   4.123   4.163 -1.0989  0.0481  0.3829
   58MOL   H20915143   7.399   4.254   4.120 -0.5209 -1.6805 -0.3779
   58MOL   C21015144   7.183   4.283   4.097 -0.6357  0.7550 -0.5225
   58MOL   C21115145   7.174   4.238   3.957 -0.4415 -0.6113  0.3556
   58MOL   C21215146   7.055   4.213   3.892  0.3221  0.3968  1.1287
   58MOL   C21315147   7.040   4.189   3.742  0.2523 -0.4277 -0.7906
   58MOL   C21415148   6.917   4.226   3.960 -0.3396 -0.3795  0.5216
   58MOL   H21515149   7.201   4.390   4.086  1.4588  0.7475  2.3430
   58MOL   H21615150   7.095   4.275   4.161  0.0607  2.4256  0.7088
   58MOL   H21715151   7.268   4.240   3.905  1.4821 -3.4037  3.4927
   58MOL   H21815152   7.001   4.274   3.686 -1.1942 -1.2883 -1.0984
   58MOL   H21915153   6.968   4.108   3.744  0.4251 -0.5703 -0.2908
   58MOL   H22015154   7.126   4.143   3.693  2.3812  1.8865  0.6276
   58MOL   H22115155   6.844   4.258   3.885 -0.1375 -0.2240  0.3889
   58MOL   H22215156   6.908   4.292   4.046  0.7842  1.2890 -0.6100
   58MOL   C22315157   6.876   4.087   4.021 -0.2144 -0.6589  0.2344
   58MOL   C22415158   6.731   4.079   4.067 -0.5589  0.2932 -0.0523
   58MOL   C22515159   6.678   3.997   4.155 -0.0821 -0.5268 -0.5727
   58MOL   C22615160   6.536   4.004   4.203 -0.5263  0.3676  0.2553
   58MOL   C22715161   6.765   3.898   4.234  0.3185 -0.4561 -0.2266
   58MOL   H22815162   6.933   4.080   4.114  2.2357 -1.3499 -1.2673
   58MOL   H22915163   6.906   4.005   3.956  1.5171  0.5698 -0.5541
   58MOL   H23015164   6.665   4.156   4.032  0.4714  1.6256  0.9145
   58MOL   H23115165   6.470   4.061   4.139  0.0236  0.9461  0.1935
   58MOL   H23215166   6.536   4.061   4.297 -1.9319 -0.4704  0.7754
   58MOL   H23315167   6.489   3.909   4.226 -0.9366  0.8507  1.4722
   58MOL   H23415168   6.736   3.900   4.339  0.2915 -0.1172 -0.2401
   58MOL   H23515169   6.873   3.915   4.239  0.7467 -2.6009 -1.4428
   58MOL   C23615170   6.746   3.751   4.196  0.1252  0.3095  0.3867
   58MOL   C23715171   6.854   3.659   4.235 -0.4681 -0.2630  0.2732
   58MOL   C23815172   6.974   3.640   4.176  0.2258  0.4069  0.1101
   58MOL   C23915173   7.067   3.525   4.225  0.4108 -0.2877  0.1068
   58MOL   C24015174   7.032   3.725   4.064  0.3662  0.2507  0.4614
   58MOL   H24115175   6.764   3.763   4.089 -0.5823  0.4697  0.2839
   58MOL   H24215176   6.643   3.725   4.221  0.3203 -0.8974 -0.0353
   58MOL   H24315177   6.821   3.606   4.323 -0.3191  0.0753  0.5301
   58MOL   H24415178   7.036   3.496   4.325  0.7676 -1.5670 -0.1498
   58MOL   H24515179   7.171   3.557   4.222  0.4603 -0.5080 -0.6939
   58MOL   H24615180   7.054   3.446   4.152 -0.8431 -1.9234  2.0464
   58MOL   H24715181   6.957   3.799   4.035 -0.1907 -1.6368 -3.2150
   58MOL   H24815182   7.061   3.659   3.982  1.0953  1.9073 -0.6524
   58MOL   C24915183   7.159   3.809   4.099  0.5299 -0.8538 -0.6031
   58MOL   C25015184   7.201   3.882   3.981  0.5137  0.1170  0.1427
   58MOL   C25115185   7.292   3.839   3.885 -0.2471  0.6023  0.3642
   58MOL   C25215186   7.339   3.922   3.774 -0.0823 -0.3766 -0.4495
   58MOL   C25315187   7.351   3.702   3.881  0.1002  0.5644 -0.6588
   58MOL   H25415188   7.248   3.759   4.136  1.4181  2.1232  1.5485
   58MOL   H25515189   7.136   3.887   4.172  0.1433  0.6292 -2.2718
   58MOL   H25615190   7.160   3.982   3.972 -0.3922 -0.2141  0.5308
   58MOL   H25715191   7.289   3.892   3.682 -0.8985  2.7641 -1.0699
   58MOL   H25815192   7.447   3.915   3.761 -0.2233 -1.1450 -1.2237
   58MOL   H25915193   7.311   4.024   3.802 -0.1337  0.0358 -1.9877
   58MOL   H26015194   7.322   3.652   3.789 -2.3125 -1.2263  1.0474
   58MOL   H26115195   7.313   3.639   3.961  1.2300 -0.0503 -0.5938
   58MOL   H26215196   7.460   3.692   3.877 -0.1178 -1.8358 -0.7015
   59MOL     C115197   4.956   0.559   2.627  0.3971 -0.2932  0.9318
   59MOL     C215198   4.954   0.446   2.522  0.3039 -0.6219 -0.1343
   59MOL     C315199   5.003   0.457   2.394  0.6850 -0.4697  0.5125
   59MOL     C415200   5.010   0.340   2.304 -0.4451 -0.4901 -0.7207
   59MOL     C515201   5.055   0.586   2.338 -0.0586 -0.2839  0.4563
   59MOL     H615202   4.951   0.659   2.584  0.0239 -0.0905  1.4453
   59MOL     H715203   4.870   0.544   2.693 -0.4172  1.1333  0.2205
   59MOL     H815204   4.924   0.348   2.553  2.7764 -1.4696 -0.2804
   59MOL     H915205   5.000   0.243   2.353  2.6423 -1.5434 -2.0242
   59MOL    H1015206   5.109   0.353   2.260  0.4434  2.0807  1.8934
   59MOL    H1115207   4.939   0.358   2.224 -0.4775  1.2369 -0.3285
   59MOL    H1215208   4.997   0.673   2.368  1.3483  0.1185  2.1007
   59MOL    H1315209   5.060   0.593   2.229 -2.1736  0.0940  0.3739
   59MOL    H1415210   5.039   0.553   2.697  0.3584 -0.3598  0.9730
   59MOL    C1515211   5.200   0.614   2.388  0.2955 -0.2345  0.0387
   59MOL    C1615212   5.267   0.727   2.306 -0.0099 -0.6669  0.4695
   59MOL    C1715213   5.305   0.848   2.357  0.3580  0.0933 -0.9232
   59MOL    C1815214   5.369   0.953   2.272  0.2753 -0.4996  0.5041
   59MOL    C1915215   5.309   0.883   2.504 -0.6110 -0.2087  0.6432
   59MOL    H2015216   5.268   0.531   2.372  0.8522  0.4385 -1.1709
   59MOL    H2115217   5.216   0.631   2.495  1.5126 -0.6939 -0.0648
   59MOL    H2215218   5.286   0.691   2.206 -2.8703 -0.4902 -0.1576
   59MOL    H2315219   5.344   0.947   2.166  2.1523  4.2620 -0.3603
   59MOL    H2415220   5.477   0.952   2.286  0.0738 -2.3573  2.2035
   59MOL    H2515221   5.328   1.050   2.300 -0.4711 -0.3078 -1.2234
   59MOL    H2615222   5.225   0.835   2.556 -1.9520  2.2864  0.8411
   59MOL    H2715223   5.301   0.991   2.508  1.9267  0.0061  0.7683
   59MOL    C2815224   5.437   0.838   2.560  0.1679  0.7315  0.1740
   59MOL    C2915225   5.453   0.691   2.594 -0.0110 -0.0870  0.1711
   59MOL    C3015226   5.560   0.611   2.571 -0.4385  0.2819 -0.5426
   59MOL    C3115227   5.542   0.467   2.611 -0.3505 -0.0129 -0.7522
   59MOL    C3215228   5.692   0.667   2.514  0.1019 -0.2514  0.1546
   59MOL    H3315229   5.454   0.879   2.659  3.6212 -1.7901  0.7257
   59MOL    H3415230   5.520   0.865   2.494  1.7103 -2.5611  0.6489
   59MOL    H3515231   5.363   0.651   2.637 -0.0195  1.2083  1.4009
   59MOL    H3615232   5.457   0.465   2.679  0.7759 -1.7066  0.6398
   59MOL    H3715233   5.625   0.422   2.665 -1.7690 -0.3913  1.1514
   59MOL    H3815234   5.528   0.421   2.513  0.6330  0.8500 -1.3190
   59MOL    H3915235   5.720   0.757   2.569 -2.3114 -0.0947  1.1747
   59MOL    H4015236   5.684   0.709   2.413  1.0664  0.9330  0.5533
   59MOL    C4115237   5.817   0.567   2.495  0.1368 -0.2248  0.3335
   59MOL    C4215238   5.954   0.636   2.506 -0.0033  0.1392  0.2854
   59MOL    C4315239   6.055   0.638   2.416 -0.3061 -0.3651  0.7073
   59MOL    C4415240   6.183   0.713   2.462  0.6465 -0.2156 -0.4554
   59MOL    C4515241   6.044   0.590   2.283  0.1580  0.5837 -0.2330
   59MOL    H4615242   5.799   0.510   2.404 -0.6370 -0.0483  0.3729
   59MOL    H4715243   5.815   0.500   2.581 -1.6064 -1.6408 -0.7721
   59MOL    H4815244   5.969   0.675   2.605  1.3648 -3.0604  1.4052
   59MOL    H4915245   6.259   0.732   2.386  0.1113  4.9604  0.0858
   59MOL    H5015246   6.220   0.633   2.527  0.2545 -0.3158 -0.3587
   59MOL    H5115247   6.166   0.793   2.534  0.0812 -0.2529 -0.5492
   59MOL    H5215248   6.086   0.664   2.214 -0.7064 -0.9907 -2.5057
   59MOL    H5315249   5.941   0.585   2.249 -0.1230  0.0298  0.6746
   59MOL    C5415250   6.110   0.448   2.287  0.8199 -0.5995 -0.2854
   59MOL    C5515251   6.120   0.383   2.151 -0.5103  0.0260 -0.4728
   59MOL    C5615252   6.027   0.308   2.094 -0.2940  0.1055 -0.0863
   59MOL    C5715253   6.057   0.239   1.963 -0.1676 -0.0407  0.1132
   59MOL    C5815254   5.900   0.264   2.164  0.7508 -0.4723 -0.6171
   59MOL    H5915255   6.052   0.390   2.359  2.4983 -0.4019  1.2527
   59MOL    H6015256   6.208   0.451   2.335  0.5829 -1.4353  0.2513
   59MOL    H6115257   6.206   0.421   2.098  0.4090 -1.7104 -0.2331
   59MOL    H6215258   6.156   0.196   1.957  0.4347  0.7900  3.2312
   59MOL    H6315259   6.065   0.319   1.890  1.2173 -1.0141 -0.8161
   59MOL    H6415260   5.978   0.165   1.947 -0.1093  0.0809 -0.7333
   59MOL    H6515261   5.875   0.327   2.249  0.7526 -2.0684  0.5872
   59MOL    H6615262   5.906   0.161   2.199 -0.4095 -0.3256  0.0265
   59MOL    C6715263   5.776   0.276   2.077  0.8575  0.1959  0.2977
   59MOL    C6815264   5.657   0.246   2.166  0.2206 -0.2370 -0.3213
   59MOL    C6915265   5.547   0.326   2.170  0.0597  0.5916 -0.0388
   59MOL    C7015266   5.430   0.294   2.259  0.5863 -0.6348 -0.1180
   59MOL    C7115267   5.517   0.450   2.083  0.5210  0.0638 -0.2714
   59MOL    H7215268   5.779   0.204   1.995 -0.8525  0.4108  0.0164
   59MOL    H7315269   5.772   0.371   2.024 -1.9714 -0.0019  0.0551
   59MOL    H7415270   5.665   0.154   2.221  1.9840  0.2906  0.3461
   59MOL    H7515271   5.360   0.378   2.261  0.8469 -0.3717 -1.4685
   59MOL    H7615272   5.477   0.280   2.356 -0.0596 -1.6067  0.0627
   59MOL    H7715273   5.384   0.200   2.229 -1.7958  0.0328  1.3254
   59MOL    H7815274   5.410   0.470   2.070  0.4275 -0.6996 -0.7016
   59MOL    H7915275   5.557   0.448   1.982  0.7520  0.0963 -0.1797
   59MOL    C8015276   5.572   0.570   2.154  1.0960 -0.1323  0.3197
   59MOL    C8115277   5.565   0.696   2.070 -0.3177 -0.3806 -0.0939
   59MOL    C8215278   5.678   0.766   2.030 -0.3136  0.8379  0.8490
   59MOL    C8315279   5.813   0.719   2.019 -0.4280  0.7962 -0.0274
   59MOL    C8415280   5.656   0.905   1.970 -0.3498  0.3508 -0.0978
   59MOL    H8515281   5.678   0.545   2.159  1.4915  1.0707 -1.6726
   59MOL    H8615282   5.529   0.581   2.254 -2.1576 -3.1094 -0.6488
   59MOL    H8715283   5.466   0.738   2.056  0.1465  0.1483 -1.9975
   59MOL    H8815284   5.853   0.759   1.926 -0.9530 -0.7931 -0.9567
   59MOL    H8915285   5.816   0.610   2.019  1.2729  0.8246  0.7955
   59MOL    H9015286   5.869   0.762   2.102  1.7762  0.0552 -1.0759
   59MOL    H9115287   5.554   0.935   1.998 -0.9583  0.2747 -2.1913
   59MOL    H9215288   5.649   0.894   1.862  1.6080 -0.4533 -0.1560
   59MOL    C9315289   5.760   1.016   2.012 -0.0640  0.4127 -0.1395
   59MOL    C9415290   5.701   1.159   1.983  0.1816  0.4247 -0.7688
   59MOL    C9515291   5.653   1.237   2.083  0.5316 -0.1120 -0.5640
   59MOL    C9615292   5.598   1.369   2.045 -0.3703 -0.7691  0.8512
   59MOL    C9715293   5.633   1.198   2.228  0.2030  0.1827 -0.1832
   59MOL    H9815294   5.858   0.998   1.966 -0.4928  0.4165 -1.0636
   59MOL    H9915295   5.780   0.998   2.118 -0.1149  2.1629  0.1854
   59MOL   H10015296   5.710   1.188   1.879  0.0010 -0.7716 -1.1163
   59MOL   H10115297   5.624   1.399   1.944 -2.8688 -2.7272 -0.4028
   59MOL   H10215298   5.490   1.374   2.055 -0.5616  0.1622 -1.3670
   59MOL   H10315299   5.650   1.432   2.119  1.0677 -1.3055  0.3222
   59MOL   H10415300   5.635   1.089   2.232 -3.7866  0.0587  0.4317
   59MOL   H10515301   5.536   1.227   2.267 -0.0979 -0.0806 -0.7371
   59MOL   C10615302   5.747   1.248   2.317 -0.1036  0.0329  0.6442
   59MOL   C10715303   5.891   1.207   2.284 -0.1493  0.0938 -0.2597
   59MOL   C10815304   5.948   1.092   2.325  0.2217 -0.4159  0.0663
   59MOL   C10915305   5.880   0.980   2.400 -0.3148  0.3271  0.6465
   59MOL   C11015306   6.089   1.056   2.295  0.1497  0.4824 -0.2583
   59MOL   H11115307   5.723   1.203   2.413 -1.2828 -1.0337 -0.1380
   59MOL   H11215308   5.735   1.356   2.330 -0.5732  0.0790 -0.1389
   59MOL   H11315309   5.951   1.284   2.238  0.8186  0.0533  0.8939
   59MOL   H11415310   5.924   0.957   2.497  1.6315  0.6808 -0.1410
   59MOL   H11515311   5.779   1.019   2.416 -0.6102  0.3344 -1.1700
   59MOL   H11615312   5.870   0.887   2.345  1.1059  1.2348 -1.1739
   59MOL   H11715313   6.095   1.067   2.187  0.5085 -0.5114 -0.3436
   59MOL   H11815314   6.117   0.953   2.318  1.0215  0.2893 -2.1393
   59MOL   C11915315   6.193   1.164   2.353 -0.0467  0.2380 -0.0634
   59MOL   C12015316   6.334   1.128   2.301 -0.0058  0.0063  0.0363
   59MOL   C12115317   6.416   1.217   2.239 -0.2716  0.0400 -0.0261
   59MOL   C12215318   6.549   1.181   2.165  0.0022  0.5304  0.2242
   59MOL   C12315319   6.381   1.363   2.212  0.0632 -0.3502  0.7455
   59MOL   H12415320   6.180   1.164   2.461  0.3103 -1.0914 -0.0114
   59MOL   H12515321   6.172   1.268   2.330  0.3141  0.5620  1.0075
   59MOL   H12615322   6.369   1.026   2.305 -0.1033 -0.0466 -0.4839
   59MOL   H12715323   6.543   1.214   2.062 -1.4675 -1.9898 -0.5386
   59MOL   H12815324   6.561   1.073   2.171  1.0023  0.6174 -0.2463
   59MOL   H12915325   6.634   1.223   2.219  0.0849 -0.5616  0.9640
   59MOL   H13015326   6.466   1.431   2.205 -0.2295  0.0940  1.4259
   59MOL   H13115327   6.324   1.408   2.293 -2.8973 -2.5007 -0.0799
   59MOL   C13215328   6.294   1.378   2.084  0.1820  0.1772  0.2966
   59MOL   C13315329   6.267   1.527   2.061  0.2679 -0.6883 -0.1759
   59MOL   C13415330   6.322   1.595   1.962  0.2098 -0.4357  0.4722
   59MOL   C13515331   6.282   1.742   1.939  0.3949 -0.1300 -0.1346
   59MOL   C13615332   6.436   1.544   1.870  0.3333  0.0025  0.7889
   59MOL   H13715333   6.198   1.326   2.095  1.6331 -2.4187  0.9367
   59MOL   H13815334   6.350   1.334   2.003 -0.3917  0.2979 -0.1713
   59MOL   H13915335   6.189   1.579   2.116 -0.8609 -0.8317 -1.6006
   59MOL   H14015336   6.368   1.806   1.920 -0.7820  1.1982 -1.1727
   59MOL   H14115337   6.236   1.794   2.023  0.5069 -0.2301 -0.0126
   59MOL   H14215338   6.217   1.739   1.851  1.5344 -1.1783 -0.9523
   59MOL   H14315339   6.518   1.488   1.915  0.0324 -1.7560 -0.7553
   59MOL   H14415340   6.485   1.633   1.832 -2.1116  1.2843  0.5161
   59MOL   C14515341   6.376   1.465   1.753  0.1257  0.0052 -0.1975
   59MOL   C14615342   6.485   1.421   1.657 -0.2097  0.2923  0.1545
   59MOL   C14715343   6.513   1.294   1.619  0.6219 -0.6349 -0.0138
   59MOL   C14815344   6.614   1.261   1.498 -0.3959  0.2966  0.1085
   59MOL   C14915345   6.440   1.172   1.678 -0.2439 -0.2448  0.4925
   59MOL   H15015346   6.300   1.523   1.701 -2.0923 -3.9096 -1.5061
   59MOL   H15115347   6.324   1.378   1.792  1.3915 -0.4636  0.5003
   59MOL   H15215348   6.533   1.509   1.616  0.2922 -0.3677 -0.6894
   59MOL   H15315349   6.660   1.350   1.456  1.6036 -1.1418 -0.8276
   59MOL   H15415350   6.545   1.214   1.427  1.0074  1.9337 -2.3990
   59MOL   H15515351   6.697   1.198   1.532  0.4866  2.6316  2.4310
   59MOL   H15615352   6.431   1.175   1.787  0.1943  0.2501  0.5157
   59MOL   H15715353   6.508   1.089   1.658 -1.4537 -1.1044 -0.0913
   59MOL   C15815354   6.310   1.126   1.610  0.4679  0.6891 -0.3665
   59MOL   C15915355   6.269   0.980   1.655  0.3073 -0.0930 -0.4403
   59MOL   C16015356   6.224   0.944   1.777 -0.6206  0.3601  0.2885
   59MOL   C16115357   6.214   1.033   1.891  0.4672  0.6666  0.1693
   59MOL   C16215358   6.177   0.801   1.797  0.5702 -0.0252 -0.5415
   59MOL   H16315359   6.329   1.119   1.502  0.6562  3.3590 -0.5514
   59MOL   H16415360   6.233   1.202   1.624 -0.0398 -0.1434  1.3808
   59MOL   H16515361   6.270   0.903   1.580  0.7296  0.8927 -1.4624
   59MOL   H16615362   6.148   0.989   1.966 -2.3984  0.1782 -2.5533
   59MOL   H16715363   6.165   1.129   1.875  0.5268  0.4531 -1.2950
   59MOL   H16815364   6.309   1.036   1.944  0.2164 -1.4484  0.7714
   59MOL   H16915365   6.186   0.736   1.710 -0.9811  0.3900 -1.0136
   59MOL   H17015366   6.072   0.803   1.825  1.2459 -0.1964  2.1948
   59MOL   C17115367   6.249   0.726   1.915 -0.1323  0.3640 -0.0787
   59MOL   C17215368   6.399   0.711   1.890  0.1931  0.5424 -0.4516
   59MOL   C17315369   6.485   0.707   1.991 -0.4819  0.4417 -0.3358
   59MOL   C17415370   6.452   0.718   2.139  0.2759  0.2498 -0.2753
   59MOL   C17515371   6.638   0.708   1.971 -0.0363  0.0937 -0.7112
   59MOL   H17615372   6.216   0.622   1.917  1.3564 -0.1736 -1.9849
   59MOL   H17715373   6.236   0.777   2.010  1.2978 -1.3826  1.0909
   59MOL   H17815374   6.444   0.726   1.792 -1.7848  1.1368 -1.2918
   59MOL   H17915375   6.532   0.679   2.202  0.3796 -0.7327 -0.9991
   59MOL   H18015376   6.358   0.664   2.154  1.0014 -0.7927  0.6350
   59MOL   H18115377   6.441   0.824   2.158 -2.3960  0.4143 -2.4012
   59MOL   H18215378   6.671   0.678   1.871  0.7386  1.3736 -0.8552
   59MOL   H18315379   6.684   0.633   2.034 -2.3664 -0.7734  0.0056
   59MOL   C18415380   6.687   0.845   2.000  0.2996  0.0495  0.4402
   59MOL   C18515381   6.837   0.850   2.022 -0.2315 -0.2762  0.4746
   59MOL   C18615382   6.921   0.938   1.965  0.0117 -0.1523  0.1713
   59MOL   C18715383   7.071   0.937   2.002  0.4778 -0.8951  0.7423
   59MOL   C18815384   6.880   1.056   1.874 -0.1797  0.1542 -0.0829
   59MOL   H18915385   6.661   0.889   2.096  0.4636  1.8293 -0.3004
   59MOL   H19015386   6.651   0.914   1.924 -0.4267  0.4924  1.1923
   59MOL   H19115387   6.881   0.773   2.084 -0.2865 -0.4366  0.3152
   59MOL   H19215388   7.094   0.870   2.085 -0.1952  1.8147  3.1812
   59MOL   H19315389   7.091   1.035   2.045  1.8192 -0.7259 -0.2242
   59MOL   H19415390   7.137   0.937   1.915  0.9407  1.2740  1.0684
   59MOL   H19515391   6.785   1.052   1.819  0.2932  1.2000 -1.0030
   59MOL   H19615392   6.944   1.046   1.787  1.3312  2.8225  0.6684
   59MOL   C19715393   6.894   1.191   1.939 -1.1772  0.0947  0.2873
   59MOL   C19815394   6.868   1.302   1.841 -0.0360  0.1313 -0.4837
   59MOL   C19915395   6.936   1.416   1.807  1.2987  0.5308  0.2139
   59MOL   C20015396   6.894   1.506   1.694 -1.1288 -0.1844  1.0989
   59MOL   C20115397   7.062   1.453   1.879  0.1594 -0.3689 -0.1868
   59MOL   H20215398   6.997   1.204   1.973 -1.5107 -1.2266  1.8737
   59MOL   H20315399   6.824   1.199   2.022 -1.2869  2.0826  0.0121
   59MOL   H20415400   6.771   1.288   1.796  0.3806  0.3908 -1.4678
   59MOL   H20515401   6.789   1.494   1.665 -1.0460 -1.4880  1.2936
   59MOL   H20615402   6.949   1.489   1.602 -1.7689  1.2312  0.4474
   59MOL   H20715403   6.900   1.607   1.734 -2.5946 -0.1945  1.3933
   59MOL   H20815404   7.036   1.415   1.978 -0.6439  1.0035  0.1368
   59MOL   H20915405   7.065   1.559   1.900  0.4946 -0.3164 -0.4954
   59MOL   C21015406   7.194   1.402   1.825  0.5618  0.7212  0.0350
   59MOL   C21115407   7.310   1.454   1.912  0.5135 -0.0027 -0.0023
   59MOL   C21215408   7.440   1.460   1.884 -0.3691 -0.1244 -0.1543
   59MOL   C21315409   7.548   1.522   1.973  0.9057 -0.2741 -0.6529
   59MOL   C21415410   7.503   1.402   1.756  0.0314 -0.5656  0.8499
   59MOL   H21515411   7.198   1.428   1.719 -1.2305  0.1682 -0.1782
   59MOL   H21615412   7.209   1.294   1.817 -0.0842  0.7219 -1.2936
   59MOL   H21715413   7.287   1.496   2.009 -1.8590 -0.6884 -0.2349
   59MOL   H21815414   7.618   1.580   1.913  0.1625  0.0154 -1.2569
   59MOL   H21915415   7.608   1.444   2.020  1.8419  1.4548  1.0522
   59MOL   H22015416   7.504   1.585   2.049 -0.6323 -0.6889 -1.1683
   59MOL   H22115417   7.587   1.462   1.722 -0.9363  0.5882  0.4640
   59MOL   H22215418   7.432   1.413   1.674 -1.3836  0.0441  2.1293
   59MOL   C22315419   7.530   1.253   1.776  0.1734  0.6386  0.4302
   59MOL   C22415420   7.605   1.189   1.658 -0.0966 -0.1072  0.0390
   59MOL   C22515421   7.556   1.084   1.583 -0.5658 -0.6768 -0.2368
   59MOL   C22615422   7.632   1.032   1.463 -0.3668 -0.3354 -0.2002
   59MOL   C22715423   7.428   1.005   1.612 -0.4930  0.2387 -0.8399
   59MOL   H22815424   7.438   1.199   1.795  0.1366  0.5099 -0.0919
   59MOL   H22915425   7.603   1.263   1.856  0.7643  2.2421 -0.2721
   59MOL   H23015426   7.705   1.229   1.647 -0.4831  1.5907  2.3125
   59MOL   H23115427   7.590   1.074   1.372  1.5611 -0.3148 -1.1192
   59MOL   H23215428   7.614   0.924   1.460  1.3480 -0.6492  0.1474
   59MOL   H23315429   7.739   1.056   1.459 -0.2659 -0.2297  2.3815
   59MOL   H23415430   7.385   1.000   1.512 -0.3916 -4.3948 -0.7525
   59MOL   H23515431   7.362   1.070   1.670 -0.6530  0.1253 -0.8952
   59MOL   C23615432   7.445   0.870   1.680 -0.2938 -0.2263 -0.4279
   59MOL   C23715433   7.316   0.791   1.671  0.2985  0.0607 -0.2252
   59MOL   C23815434   7.266   0.701   1.760  0.3355 -0.2427 -0.3177
   59MOL   C23915435   7.133   0.645   1.736 -0.3873 -0.2351 -0.5152
   59MOL   C24015436   7.340   0.656   1.882  0.0537  0.5527  0.1093
   59MOL   H24115437   7.487   0.890   1.779 -1.6220  1.7173 -0.2326
   59MOL   H24215438   7.522   0.814   1.626 -0.3805 -1.6030  0.8394
   59MOL   H24315439   7.253   0.820   1.588  1.0240  0.0365 -0.7884
   59MOL   H24415440   7.086   0.649   1.835  0.1224  1.8060 -0.3345
   59MOL   H24515441   7.144   0.540   1.709  1.4720  0.3222 -2.0491
   59MOL   H24615442   7.073   0.693   1.659 -1.1436 -0.0944  0.1521
   59MOL   H24715443   7.336   0.728   1.964  2.4126 -1.1312  1.7721
   59MOL   H24815444   7.445   0.657   1.852 -0.3051 -0.2290 -1.1993
   59MOL   C24915445   7.299   0.510   1.933 -0.5596 -0.8745  0.4375
   59MOL   C25015446   7.389   0.470   2.048  0.0428  0.4449  0.1372
   59MOL   C25115447   7.370   0.492   2.177  0.3420 -0.5391  0.9097
   59MOL   C25215448   7.483   0.450   2.271 -0.1166  0.1010 -0.7387
   59MOL   C25315449   7.254   0.566   2.231  0.2377 -0.2425  0.3018
   59MOL   H25415450   7.327   0.448   1.848  0.1037  0.1750 -0.1102
   59MOL   H25515451   7.192   0.508   1.954 -0.6042 -2.1588  0.1158
   59MOL   H25615452   7.475   0.424   2.002  1.1198  2.2015  0.3512
   59MOL   H25715453   7.451   0.410   2.368 -0.7794 -0.1826 -1.0737
   59MOL   H25815454   7.543   0.537   2.298 -0.9054 -0.0711  1.6698
   59MOL   H25915455   7.553   0.375   2.234 -0.6335 -1.0202  0.5293
   59MOL   H26015456   7.172   0.495   2.230 -1.0895  1.2658  0.0608
   59MOL   H26115457   7.222   0.654   2.175 -0.9287 -0.2522  0.9373
   59MOL   H26215458   7.253   0.587   2.338  3.0523  1.5336  0.0508
   60MOL     C115459   1.646   0.916   5.501 -0.6687 -0.1863  0.7888
   60MOL     C215460   1.508   0.869   5.561  0.0906  0.7428  0.5811
   60MOL     C315461   1.394   0.822   5.498  0.9272  0.2542  0.5071
   60MOL     C415462   1.269   0.789   5.579  0.1515 -0.2718  0.0335
   60MOL     C515463   1.382   0.808   5.340 -0.3490 -0.0466 -0.6673
   60MOL     H615464   1.727   0.875   5.562  1.5912 -0.0325 -1.9898
   60MOL     H715465   1.669   0.876   5.402 -0.0633  0.7712  0.5343
   60MOL     H815466   1.511   0.869   5.668 -1.6018  0.2090  0.6514
   60MOL     H915467   1.189   0.812   5.510  2.2580  0.0558 -2.3762
   60MOL    H1015468   1.260   0.834   5.678 -1.7661 -0.7579  0.0981
   60MOL    H1115469   1.258   0.682   5.592  0.5331 -0.1857  1.1768
   60MOL    H1215470   1.319   0.722   5.321 -1.3710  0.7828 -1.0571
   60MOL    H1315471   1.482   0.783   5.304  1.4055 -0.7931  4.2874
   60MOL    H1415472   1.655   1.023   5.518  2.1178 -0.3229  0.3346
   60MOL    C1515473   1.320   0.935   5.281 -0.2896 -0.3748  0.3506
   60MOL    C1615474   1.316   0.934   5.129  0.7251  0.4175  0.5554
   60MOL    C1715475   1.221   0.998   5.056 -0.2531  0.3609 -0.2553
   60MOL    C1815476   1.211   0.981   4.904  0.0748  0.0122  0.1589
   60MOL    C1915477   1.121   1.096   5.117  0.0843  0.9061  0.0093
   60MOL    H2015478   1.378   1.020   5.316 -0.0963 -0.8250  1.1422
   60MOL    H2115479   1.221   0.961   5.317 -0.3001 -0.3308  0.2908
   60MOL    H2215480   1.391   0.877   5.076  0.3245 -0.3301  0.7827
   60MOL    H2315481   1.294   0.930   4.855  0.1380 -0.3168  0.6074
   60MOL    H2415482   1.205   1.081   4.860  1.1330 -0.4775 -1.1215
   60MOL    H2515483   1.116   0.935   4.878 -0.8436  1.3243  1.1143
   60MOL    H2615484   1.105   1.172   5.041  1.3380  0.3946 -0.7969
   60MOL    H2715485   1.156   1.139   5.211 -0.4910  0.3512  0.4779
   60MOL    C2815486   0.998   1.020   5.151  0.1237 -0.3513 -0.2221
   60MOL    C2915487   0.874   1.116   5.165 -0.6105  0.1813  0.1535
   60MOL    C3015488   0.757   1.095   5.107 -0.1169  0.2414  0.0473
   60MOL    C3115489   0.639   1.176   5.150  0.1006 -0.8490 -0.3240
   60MOL    C3215490   0.740   1.003   4.988 -0.2019 -0.3235  0.3249
   60MOL    H3315491   0.994   0.966   5.245 -0.8321  0.1479  0.0369
   60MOL    H3415492   0.979   0.938   5.082 -1.2533 -1.4020  1.3603
   60MOL    H3515493   0.879   1.197   5.236 -0.2488  2.2833 -2.1980
   60MOL    H3615494   0.634   1.170   5.258 -2.1249  0.9574 -0.2793
   60MOL    H3715495   0.548   1.136   5.105  0.6347 -1.9074 -0.4838
   60MOL    H3815496   0.648   1.279   5.114 -0.4452 -1.7730 -3.3004
   60MOL    H3915497   0.834   0.986   4.935  0.3689  5.0535 -0.6875
   60MOL    H4015498   0.685   1.053   4.908 -0.2652 -0.4492  0.2882
   60MOL    C4115499   0.667   0.875   5.022  0.3471  0.1552  0.1609
   60MOL    C4215500   0.622   0.794   4.903 -0.3841  0.0021  0.6061
   60MOL    C4315501   0.653   0.666   4.879 -0.1449 -0.3769  0.5517
   60MOL    C4415502   0.590   0.592   4.761 -0.0985 -0.2194  0.7143
   60MOL    C4515503   0.747   0.589   4.965 -0.6107  0.3338 -1.5776
   60MOL    H4615504   0.573   0.902   5.071  1.3477  2.5973  0.8291
   60MOL    H4715505   0.727   0.822   5.096  0.9332 -1.6984 -1.6137
   60MOL    H4815506   0.551   0.849   4.844 -0.0998  1.9449  2.0275
   60MOL    H4915507   0.509   0.524   4.788  1.7983 -2.6599  0.3800
   60MOL    H5015508   0.656   0.530   4.700 -1.0421  0.3922 -0.9741
   60MOL    H5115509   0.537   0.662   4.695  0.7246  1.0446  1.3688
   60MOL    H5215510   0.830   0.647   5.005 -0.2819 -1.0684 -0.1866
   60MOL    H5315511   0.790   0.501   4.917 -1.2269 -0.3349 -0.9148
   60MOL    C5415512   0.667   0.543   5.086 -0.8652 -0.7811 -0.0968
   60MOL    C5515513   0.760   0.446   5.168 -0.3308 -0.4622 -0.2137
   60MOL    C5615514   0.819   0.464   5.283  0.1165  0.0745 -0.3572
   60MOL    C5715515   0.899   0.355   5.342 -0.8732 -0.5776  0.0884
   60MOL    C5815516   0.803   0.574   5.381  0.1365  0.1529 -0.1156
   60MOL    H5915517   0.578   0.486   5.059 -1.6859 -0.0169  0.9767
   60MOL    H6015518   0.637   0.628   5.147 -2.5880 -1.8702  0.6102
   60MOL    H6115519   0.785   0.361   5.106  1.2690 -0.1656  0.0001
   60MOL    H6215520   0.846   0.324   5.432  0.9405  1.1030  1.7863
   60MOL    H6315521   0.994   0.392   5.380  0.1334 -3.0091  0.0548
   60MOL    H6415522   0.914   0.274   5.271  1.2915  0.0365 -0.1923
   60MOL    H6515523   0.747   0.543   5.469 -0.3863 -1.5871 -1.0340
   60MOL    H6615524   0.728   0.642   5.341 -1.0227 -1.0382  0.0268
   60MOL    C6715525   0.930   0.663   5.402  1.3287  0.3138 -0.3686
   60MOL    C6815526   0.907   0.776   5.505 -0.5527  0.2227  0.0813
   60MOL    C6915527   0.930   0.768   5.637  0.4516 -0.1215 -1.2477
   60MOL    C7015528   0.912   0.886   5.726 -0.3540 -0.0021 -0.1792
   60MOL    C7115529   0.991   0.641   5.702  0.3296 -1.0317  0.0917
   60MOL    H7215530   0.952   0.713   5.307  2.8133 -0.2343 -0.3199
   60MOL    H7315531   1.021   0.610   5.429  1.0713 -1.3446 -2.6064
   60MOL    H7415532   0.866   0.869   5.468 -3.2406 -0.6766  0.6331
   60MOL    H7515533   1.012   0.916   5.757 -1.1737  0.8611  1.6797
   60MOL    H7615534   0.864   0.850   5.817  2.2948 -3.4217 -0.0254
   60MOL    H7715535   0.861   0.972   5.683 -1.2287 -1.1445 -1.4724
   60MOL    H7815536   1.080   0.678   5.752  1.3086 -1.2232 -1.4454
   60MOL    H7915537   1.025   0.570   5.626  2.1335  1.4202 -1.4808
   60MOL    C8015538   0.893   0.574   5.795  0.2855 -0.2620  0.1482
   60MOL    C8115539   0.764   0.525   5.731  0.1986  0.3952 -0.3050
   60MOL    C8215540   0.724   0.394   5.708 -0.5006  0.3044  0.0361
   60MOL    C8315541   0.821   0.273   5.718 -0.5341  0.5985 -0.2226
   60MOL    C8415542   0.595   0.364   5.641  0.5005  1.4596 -0.2603
   60MOL    H8515543   0.859   0.641   5.875 -0.8887 -0.6685  0.0029
   60MOL    H8615544   0.951   0.501   5.852 -0.2724  0.1361  1.2424
   60MOL    H8715545   0.695   0.606   5.713  0.1939  0.9230  1.9257
   60MOL    H8815546   0.803   0.226   5.621  0.0294  1.5206 -0.7824
   60MOL    H8915547   0.774   0.204   5.788  0.2671 -0.8925 -1.1264
   60MOL    H9015548   0.927   0.279   5.741 -0.8246  0.6414  1.1535
   60MOL    H9115549   0.613   0.309   5.549 -1.9604 -0.9164  0.6258
   60MOL    H9215550   0.539   0.457   5.630 -2.0870 -0.1687 -1.0959
   60MOL    C9315551   0.499   0.290   5.734  0.1842 -0.1050 -0.8013
   60MOL    C9415552   0.361   0.256   5.667 -0.0320  0.3019  0.0178
   60MOL    C9515553   0.241   0.306   5.701  0.3852 -0.4539 -0.8171
   60MOL    C9615554   0.117   0.277   5.613  0.2380  0.0470 -0.2404
   60MOL    C9715555   0.220   0.407   5.812 -0.5795  0.4293 -0.5984
   60MOL    H9815556   0.488   0.357   5.819  0.9005 -0.1049 -0.7068
   60MOL    H9915557   0.531   0.196   5.778 -1.7197  0.0940  1.0839
   60MOL   H10015558   0.366   0.189   5.582  0.4884  2.3109 -1.5626
   60MOL   H10115559   0.089   0.355   5.542 -1.4002 -1.0157 -0.7777
   60MOL   H10215560   0.135   0.187   5.555 -0.4052 -0.3280  0.1307
   60MOL   H10315561   0.027   0.258   5.672  1.8403  0.4034  2.4038
   60MOL   H10415562   0.287   0.382   5.895 -0.5264 -0.5763 -0.9305
   60MOL   H10515563   0.117   0.394   5.846  0.2937 -1.6371  1.3952
   60MOL   C10615564   0.225   0.553   5.765  0.4616  0.7892 -0.3191
   60MOL   C10715565   0.212   0.639   5.893  0.5837 -0.1016 -0.0028
   60MOL   C10815566   0.316   0.685   5.967  0.1678 -0.0793  0.5303
   60MOL   C10915567   0.462   0.646   5.939 -0.5016 -0.1530 -0.7999
   60MOL   C11015568   0.288   0.748   6.095 -0.6251 -0.2944 -0.7865
   60MOL   H11115569   0.150   0.567   5.687 -1.9110  0.2289  1.8244
   60MOL   H11215570   0.317   0.580   5.712 -0.7903 -0.4994 -3.2650
   60MOL   H11315571   0.114   0.649   5.938  0.4492 -0.6581 -0.1669
   60MOL   H11415572   0.481   0.541   5.962 -0.8511  0.3577  1.9424
   60MOL   H11515573   0.479   0.678   5.836 -1.8191 -0.2888 -1.0655
   60MOL   H11615574   0.525   0.714   5.996 -0.9648  0.0820 -0.5675
   60MOL   H11715575   0.192   0.798   6.090 -1.3469 -1.4726  0.7962
   60MOL   H11815576   0.347   0.839   6.107 -0.7886 -0.2992  0.0494
   60MOL   C11915577   0.299   0.653   6.219  0.1958  0.3586  0.1765
   60MOL   C12015578   0.273   0.716   6.356 -0.5197  0.4357 -0.0935
   60MOL   C12115579   0.347   0.723   6.470  0.3374  0.1174  0.1346
   60MOL   C12215580   0.312   0.807   6.588  0.2246  0.1714 -0.4979
   60MOL   C12315581   0.480   0.652   6.491  0.1779 -0.4867 -0.3573
   60MOL   H12415582   0.400   0.612   6.212  0.0266  0.2463 -2.1713
   60MOL   H12515583   0.237   0.564   6.206  0.2930  0.2196  0.6447
   60MOL   H12615584   0.182   0.773   6.343 -0.9465 -0.6009 -1.8155
   60MOL   H12715585   0.214   0.855   6.575 -0.3665 -0.7230  0.5900
   60MOL   H12815586   0.383   0.889   6.600  0.6383 -0.3856  1.0418
   60MOL   H12915587   0.306   0.745   6.677  1.3357 -0.8396 -1.1209
   60MOL   H13015588   0.539   0.706   6.565  0.1646  0.0879 -0.7670
   60MOL   H13115589   0.539   0.647   6.399 -3.6045 -2.9400 -2.7981
   60MOL   C13215590   0.466   0.510   6.534 -0.1681  0.6498 -0.0103
   60MOL   C13315591   0.601   0.439   6.557  0.9670  0.3300  0.9002
   60MOL   C13415592   0.659   0.362   6.465  0.4626 -0.5368  0.7065
   60MOL   C13515593   0.786   0.284   6.481  0.2678 -0.0083 -0.3136
   60MOL   C13615594   0.608   0.345   6.320  0.5616  0.5924 -0.0881
   60MOL   H13715595   0.412   0.450   6.460  1.3540 -0.3809 -0.2973
   60MOL   H13815596   0.413   0.501   6.629  0.0245 -0.1536  0.0268
   60MOL   H13915597   0.647   0.451   6.654 -0.4163  1.9680  1.3808
   60MOL   H14015598   0.857   0.318   6.406 -1.8373  1.4514 -1.6798
   60MOL   H14115599   0.771   0.177   6.471 -0.7844  0.2036 -1.0510
   60MOL   H14215600   0.837   0.300   6.577  0.8409 -1.0418 -0.4368
   60MOL   H14315601   0.693   0.350   6.252 -1.0939 -0.7489 -2.2801
   60MOL   H14415602   0.547   0.431   6.295  1.6033  1.1928 -0.6123
   60MOL   C14515603   0.544   0.209   6.300  0.4494 -0.8513 -0.1133
   60MOL   C14615604   0.474   0.180   6.165 -0.2769  0.2685  0.2529
   60MOL   C14715605   0.344   0.141   6.157  0.4541 -0.6808  0.1521
   60MOL   C14815606   0.295   0.097   6.021 -0.3359 -0.4785  0.6509
   60MOL   C14915607   0.240   0.130   6.262 -0.8226 -0.0346 -0.9943
   60MOL   H15015608   0.481   0.201   6.388 -0.7914 -0.2831 -0.9233
   60MOL   H15115609   0.619   0.130   6.304  0.7095 -0.4760  3.3725
   60MOL   H15215610   0.531   0.180   6.073 -4.2664  2.8544 -2.3762
   60MOL   H15315611   0.359   0.138   5.943 -1.2362  1.5659  0.9451
   60MOL   H15415612   0.200   0.138   5.986  0.7730  0.9291 -0.7663
   60MOL   H15515613   0.292   7.868   6.009  0.3505 -0.2898 -1.4148
   60MOL   H15615614   0.137   0.128   6.225 -1.3877  4.8371 -0.0692
   60MOL   H15715615   0.247   0.217   6.328  0.8556 -0.5948 -0.4035
   60MOL   C15815616   0.273   0.005   6.350 -0.1511  0.0076 -0.8689
   60MOL   C15915617   0.170   7.858   6.457  0.0962 -0.2635  0.1230
   60MOL   C16015618   0.075   7.759   6.462 -0.7633 -0.1317  0.3460
   60MOL   C16115619   0.052   7.658   6.347  0.0219 -0.7218  0.2498
   60MOL   C16215620   7.874   7.738   6.589  0.6305  0.1987 -0.5207
   60MOL   H16315621   0.374   0.005   6.389 -0.8922  2.5689  1.1936
   60MOL   H16415622   0.266   7.799   6.282  3.2347  0.0249 -1.3368
   60MOL   H16515623   0.178   0.044   6.543  0.2610 -0.6633  0.4134
   60MOL   H16615624   0.078   7.698   6.249  0.4643 -0.4787  0.4607
   60MOL   H16715625   7.824   7.644   6.341 -0.2894  1.3147  0.6992
   60MOL   H16815626   0.114   7.568   6.348  1.7979  0.4648 -0.6460
   60MOL   H16915627   7.771   7.769   6.572  0.2314  0.9131  2.9081
   60MOL   H17015628   0.027   7.810   6.664 -0.1812 -0.0141  0.0462
   60MOL   C17115629   0.017   7.594   6.645 -0.8791  0.4344 -0.7680
   60MOL   C17215630   0.169   7.570   6.662 -0.4213  0.9161  0.4690
   60MOL   C17315631   0.257   7.472   6.633  0.8070 -0.4351 -0.3517
   60MOL   C17415632   0.217   7.339   6.564 -0.3201 -0.2050 -0.1879
   60MOL   C17515633   0.404   7.470   6.679  0.4797  0.1071 -0.5023
   60MOL   H17615634   7.845   7.523   6.580  1.7358  0.3835 -2.8790
   60MOL   H17715635   7.867   7.599   6.750  1.3228  2.0540 -0.2028
   60MOL   H17815636   0.219   7.649   6.715  1.2123 -0.1845  0.6076
   60MOL   H17915637   0.110   7.346   6.543 -0.8715 -0.3267  2.3977
   60MOL   H18015638   0.232   7.249   6.623  0.6533 -0.6934 -1.1558
   60MOL   H18115639   0.261   7.329   6.465  0.7852 -0.2276  0.3012
   60MOL   H18215640   0.444   7.569   6.702 -1.2611  0.3838  1.4939
   60MOL   H18315641   0.459   7.440   6.590 -1.0709 -1.1206 -1.0680
   60MOL   C18415642   0.424   7.393   6.808 -0.4134 -0.5234  0.1223
   60MOL   C18515643   0.568   7.415   6.851 -0.2019 -0.7731  0.2880
   60MOL   C18615644   0.610   7.455   6.980 -0.8558  0.3142 -0.5255
   60MOL   C18715645   0.761   7.465   7.007  0.6274  0.2619 -0.0288
   60MOL   C18815646   0.516   7.501   7.093  0.2133  0.1882  0.1245
   60MOL   H18915647   0.401   7.290   6.779  2.2505 -1.0600 -0.2295
   60MOL   H19015648   0.343   7.416   6.878 -0.2310  4.3085 -1.0896
   60MOL   H19115649   0.643   7.387   6.779 -0.5410 -0.1091 -0.3236
   60MOL   H19215650   0.799   7.411   7.094  0.1715 -1.1029 -0.6693
   60MOL   H19315651   0.785   7.571   7.008  0.2726  0.3401  0.0744
   60MOL   H19415652   0.821   7.433   6.922  0.9983 -0.4672  0.4925
   60MOL   H19515653   0.430   7.539   7.038 -0.7150 -0.9027  0.8117
   60MOL   H19615654   0.557   7.588   7.145 -1.2662  0.6357  0.5655
   60MOL   C19715655   0.468   7.388   7.187  0.1492 -0.3185  0.4381
   60MOL   C19815656   0.392   7.449   7.306  0.0740  0.5147 -0.3888
   60MOL   C19915657   0.433   7.454   7.435 -0.7212  0.0090  0.1221
   60MOL   C20015658   0.352   7.494   7.554 -0.0508  0.0366  0.2595
   60MOL   C20115659   0.568   7.403   7.475  0.1521  0.1662 -0.8546
   60MOL   H20215660   0.558   7.335   7.217  1.9282  1.4736 -1.5911
   60MOL   H20315661   0.400   7.323   7.132  2.2520 -1.0085 -1.4259
   60MOL   H20415662   0.304   7.504   7.276 -0.6449 -0.6193 -0.3693
   60MOL   H20515663   0.427   7.540   7.620  1.0599 -0.9829 -0.2673
   60MOL   H20615664   0.301   7.412   7.603 -1.9129  1.0427  0.0240
   60MOL   H20715665   0.273   7.565   7.532 -0.1965 -0.4668 -0.8497
   60MOL   H20815666   0.610   7.449   7.564 -1.8076 -1.6420  1.0561
   60MOL   H20915667   0.642   7.424   7.397 -0.3712  1.6679 -0.9644
   60MOL   C21015668   0.568   7.257   7.512 -0.2356  0.2933 -0.2468
   60MOL   C21115669   0.709   7.210   7.530  0.0477 -0.6471  0.5040
   60MOL   C21215670   0.784   7.192   7.650 -0.1503  0.3134 -0.1026
   60MOL   C21315671   0.928   7.151   7.651 -0.2728 -0.3613  0.6037
   60MOL   C21415672   0.731   7.226   7.791  0.3768 -0.0657  0.5234
   60MOL   H21515673   0.518   7.195   7.438  0.3004  1.1351 -1.3226
   60MOL   H21615674   0.511   7.241   7.604 -1.3163  0.4771 -0.8717
   60MOL   H21715675   0.759   7.178   7.439  1.0412  1.2777  0.3393
   60MOL   H21815676   0.984   7.228   7.704  3.3170 -0.2492 -3.1122
   60MOL   H21915677   0.973   7.159   7.552 -2.0701  2.7741 -0.0121
   60MOL   H22015678   0.936   7.052   7.697 -0.8363 -0.9835 -0.6092
   60MOL   H22115679   0.635   7.276   7.779 -0.6133 -2.1234 -0.3178
   60MOL   H22215680   0.797   7.293   7.847  0.7275 -1.8382  2.3249
   60MOL   C22315681   0.712   7.098   0.003  0.4901  0.6350  0.3302
   60MOL   C22415682   0.666   7.134   0.142  0.7979  0.5267  0.2556
   60MOL   C22515683   0.704   7.073   0.253 -0.6562 -0.3665  0.8445
   60MOL   C22615684   0.655   7.122   0.385 -0.4510 -0.0584  0.2169
   60MOL   C22715685   0.798   6.961   0.261 -0.5805  0.4042  0.1673
   60MOL   H22815686   0.805   7.044   0.024 -1.1412 -3.3224 -2.0166
   60MOL   H22915687   0.643   7.026   7.838  1.9105 -0.8355  0.4669
   60MOL   H23015688   0.590   7.210   0.139  2.0367  1.9004  2.5176
   60MOL   H23115689   0.598   7.213   0.364  2.3593  1.8438  0.4262
   60MOL   H23215690   0.737   7.159   0.447  1.6192 -2.9737 -0.6700
   60MOL   H23315691   0.595   7.053   0.443 -0.7479 -1.0354 -1.2185
   60MOL   H23415692   0.839   6.948   0.361  0.6686  0.7042 -0.3027
   60MOL   H23515693   0.882   6.972   0.192 -0.7210 -1.9177 -0.3952
   60MOL   C23615694   0.730   6.829   0.236 -0.7051 -0.0735  0.0308
   60MOL   C23715695   0.637   6.789   0.349  0.1979 -0.0345  0.5382
   60MOL   C23815696   0.504   6.764   0.335  0.3495 -0.0552  0.2184
   60MOL   C23915697   0.405   6.723   0.450  0.2128  0.5224 -0.1154
   60MOL   C24015698   0.434   6.754   0.195  0.9684 -0.0274 -0.0020
   60MOL   H24115699   0.812   6.758   0.245 -1.3828 -0.7495  1.0286
   60MOL   H24215700   0.698   6.828   0.132 -1.5439  2.1778  0.2267
   60MOL   H24315701   0.672   6.788   0.451 -0.3834 -0.8473  0.7412
   60MOL   H24415702   0.351   6.815   0.474  0.0008  0.7367 -1.3872
   60MOL   H24515703   0.442   6.683   0.544 -1.5253  0.8848  0.7453
   60MOL   H24615704   0.331   6.655   0.410  2.2741 -1.3934 -0.7421
   60MOL   H24715705   0.392   6.654   0.188 -0.1421  0.4225  0.0719
   60MOL   H24815706   0.509   6.769   0.117  0.4767  1.5647 -0.1772
   60MOL   C24915707   0.335   6.864   0.162  0.3043  0.1320  0.2464
   60MOL   C25015708   0.297   6.863   0.014 -1.0569  0.7788  0.2442
   60MOL   C25115709   0.294   6.964   7.804  0.2817 -0.1260 -0.4021
   60MOL   C25215710   0.266   6.943   7.653  0.0031 -0.0952 -0.1597
   60MOL   C25315711   0.335   7.109   7.845  0.0510  0.3291 -0.4551
   60MOL   H25415712   0.373   6.960   0.198 -0.5214 -0.2408  2.1997
   60MOL   H25515713   0.242   6.840   0.214  1.1486 -0.3913  1.5290
   60MOL   H25615714   0.268   6.765   7.857 -1.1773  0.4565  1.2062
   60MOL   H25715715   0.305   6.843   7.634  0.8067  0.0971  0.4192
   60MOL   H25815716   0.317   7.012   7.585  2.1205  0.4214  1.8867
   60MOL   H25915717   0.158   6.945   7.638  0.2414  0.2828 -1.8837
   60MOL   H26015718   0.433   7.130   7.804  0.3351 -0.4172 -0.1754
   60MOL   H26115719   0.341   7.121   0.074  0.7888 -2.2504 -0.1680
   60MOL   H26215720   0.259   7.169   7.795 -1.6862 -0.0470  1.6506
   61MOL     C115721   3.743   6.178   0.098  0.1562 -0.2383 -0.1892
   61MOL     C215722   3.811   6.074   0.184  0.5153 -0.2938 -0.0983
   61MOL     C315723   3.781   5.947   0.185 -0.1181  0.3800  0.3358
   61MOL     C415724   3.863   5.846   0.274  0.7132  0.7753  0.7184
   61MOL     C515725   3.663   5.875   0.113 -0.1846 -0.4949 -0.1256
   61MOL     H615726   3.742   6.284   0.123  0.4276 -0.3823  0.4350
   61MOL     H715727   3.780   6.169   7.874 -0.4638  1.7178 -0.6015
   61MOL     H815728   3.895   6.106   0.243  0.5013  1.0660 -0.8068
   61MOL     H915729   3.927   5.910   0.335  0.5910  0.1157  1.5510
   61MOL    H1015730   3.934   5.776   0.230  0.6992  0.8907  0.5113
   61MOL    H1115731   3.804   5.796   0.351 -1.2230 -0.7204 -1.6517
   61MOL    H1215732   3.708   5.787   0.069  0.5344  0.8712 -2.2162
   61MOL    H1315733   3.623   5.947   0.041  1.8426  0.2188 -0.5624
   61MOL    H1415734   3.639   6.151   0.080 -0.1981  1.0195 -0.0528
   61MOL    C1515735   3.543   5.835   0.200  0.1752  0.4266  0.0252
   61MOL    C1615736   3.447   5.742   0.124 -0.2851  0.1608 -0.5583
   61MOL    C1715737   3.313   5.762   0.105 -0.4424  0.9510  0.4390
   61MOL    C1815738   3.233   5.658   0.029 -0.0529  0.3733 -0.0934
   61MOL    C1915739   3.237   5.896   0.137  0.3265  0.3600  0.0140
   61MOL    H2015740   3.500   5.927   0.240 -1.8820 -1.4712  2.3357
   61MOL    H2115741   3.580   5.771   0.280 -1.6208 -1.4748 -0.6163
   61MOL    H2215742   3.479   5.644   0.092  0.8866  0.7955 -1.3863
   61MOL    H2315743   3.228   5.674   7.800  2.4970 -0.2637 -0.3437
   61MOL    H2415744   3.136   5.650   0.079  0.3141 -0.6309  0.4829
   61MOL    H2515745   3.273   5.557   0.042 -1.6216 -0.0811  1.4465
   61MOL    H2615746   3.304   5.978   0.163  0.5781 -0.1485  1.0236
   61MOL    H2715747   3.172   5.880   0.224  1.1339  0.9510  0.7416
   61MOL    C2815748   3.158   5.932   0.012  0.0853 -0.8512 -0.1766
   61MOL    C2915749   3.038   6.021   0.053  0.4065 -0.2641 -0.0975
   61MOL    C3015750   3.009   6.148   0.005 -0.2159  0.5734 -0.3965
   61MOL    C3115751   2.902   6.229   0.078  0.1316  0.5955  0.6159
   61MOL    C3215752   3.096   6.208   7.775 -0.1626 -0.5495 -0.0849
   61MOL    H3315753   3.100   5.854   7.841 -1.1043  1.5231 -2.6236
   61MOL    H3415754   3.238   5.966   7.825 -0.1651  0.0102 -0.0317
   61MOL    H3515755   2.975   5.986   0.133 -1.7017  0.3802 -1.4271
   61MOL    H3615756   2.832   6.252   7.876  0.6436  0.1566  0.0430
   61MOL    H3715757   2.940   6.320   0.123 -0.2520  0.6458  0.8360
   61MOL    H3815758   2.848   6.175   0.156 -1.5008  1.6370  0.2339
   61MOL    H3915759   3.027   6.258   7.707  0.4945 -1.4077 -1.3975
   61MOL    H4015760   3.151   6.133   7.718 -0.3684 -0.4790 -0.3772
   61MOL    C4115761   3.186   6.318   7.842  0.3427  0.2705  1.1977
   61MOL    C4215762   3.330   6.312   7.805 -0.6858 -0.5722  0.0012
   61MOL    C4315763   3.399   6.357   7.694  0.0154 -0.2795  0.1235
   61MOL    C4415764   3.547   6.323   7.675 -0.2128  0.1263  0.0994
   61MOL    C4515765   3.327   6.428   7.583 -0.1565  0.4268  0.0607
   61MOL    H4615766   3.183   6.304   0.071  0.0611 -1.4902  0.9839
   61MOL    H4715767   3.151   6.420   7.828 -2.6390 -0.8000  0.4734
   61MOL    H4815768   3.385   6.261   0.004  0.3425  1.4588  0.6315
   61MOL    H4915769   3.566   6.295   7.572 -2.4717  0.1520 -0.3496
   61MOL    H5015770   3.571   6.233   7.733  0.7575  0.2767 -0.0611
   61MOL    H5115771   3.604   6.413   7.700 -1.1433  0.9338 -0.6851
   61MOL    H5215772   3.218   6.423   7.594 -0.0798 -1.7182  0.1306
   61MOL    H5315773   3.350   6.382   7.487 -2.1765  0.2908 -0.3863
   61MOL    C5415774   3.356   6.580   7.577  0.2268 -0.2937  0.0472
   61MOL    C5515775   3.322   6.643   7.448 -0.7112 -0.0168 -0.2070
   61MOL    C5615776   3.383   6.746   7.393 -0.2999 -0.6075  0.5026
   61MOL    C5715777   3.336   6.787   7.257 -0.5508 -0.1859 -0.8450
   61MOL    C5815778   3.477   6.841   7.466 -0.6653 -0.1421  0.1897
   61MOL    H5915779   3.460   6.593   7.606  0.5777 -0.1379 -1.2893
   61MOL    H6015780   3.299   6.628   7.657 -0.5410 -2.4526  0.8215
   61MOL    H6115781   3.239   6.598   7.395 -1.2547  1.2566 -0.4620
   61MOL    H6215782   3.291   6.885   7.278  2.4245  0.9715  0.4156
   61MOL    H6315783   3.263   6.719   7.214 -1.8059 -0.2516  1.2823
   61MOL    H6415784   3.414   6.799   7.183 -1.0191  1.4954 -1.0913
   61MOL    H6515785   3.475   6.823   7.574  2.0558  0.4130  0.3761
   61MOL    H6615786   3.441   6.943   7.476 -0.8974 -0.1948 -0.1071
   61MOL    C6715787   3.626   6.839   7.418 -0.1282  0.1955 -0.7068
   61MOL    C6815788   3.721   6.910   7.515 -0.4808  0.0564 -0.1081
   61MOL    C6915789   3.775   6.870   7.637 -1.2651 -0.7977 -0.0607
   61MOL    C7015790   3.876   6.963   7.704  0.2445 -0.1520 -0.1607
   61MOL    C7115791   3.752   6.734   7.703  0.6208  0.4868 -0.1278
   61MOL    H7215792   3.652   6.877   7.319  0.5973 -2.4554 -1.5764
   61MOL    H7315793   3.651   6.732   7.416 -1.0823 -0.0694  1.0435
   61MOL    H7415794   3.742   7.014   7.494  0.0662 -0.3017 -1.3595
   61MOL    H7515795   3.828   7.014   7.788  0.1107  0.6507 -0.7255
   61MOL    H7615796   3.905   7.049   7.644  0.5394  1.1137  1.7417
   61MOL    H7715797   3.969   6.919   7.740  1.9554  2.5419 -1.1625
   61MOL    H7815798   3.657   6.690   7.673  2.2370 -1.7226 -2.1881
   61MOL    H7915799   3.744   6.743   7.811  0.3261 -1.1314 -0.0009
   61MOL    C8015800   3.863   6.636   7.674 -0.1596 -1.0508 -0.8237
   61MOL    C8115801   3.850   6.580   7.533 -0.1156 -0.5599  0.1233
   61MOL    C8215802   3.938   6.599   7.429 -0.4546  0.0375  0.4180
   61MOL    C8315803   4.073   6.666   7.450  0.4208 -0.1496  0.9844
   61MOL    C8415804   3.920   6.524   7.298 -0.2897  0.1085  0.2495
   61MOL    H8515805   3.852   6.554   7.746  2.6880 -0.3998  0.4660
   61MOL    H8615806   3.960   6.681   7.698  0.7971 -2.8510 -1.1593
   61MOL    H8715807   3.758   6.527   7.515 -1.1284  0.6147  1.7325
   61MOL    H8815808   4.114   6.695   7.353  3.1097 -2.5003  1.3442
   61MOL    H8915809   4.156   6.622   7.505  1.9810  2.8723  1.1348
   61MOL    H9015810   4.054   6.762   7.496 -0.5651 -0.7709  1.8914
   61MOL    H9115811   3.824   6.473   7.305  0.5973 -1.7237 -0.5601
   61MOL    H9215812   4.002   6.452   7.292 -0.2079  0.2871 -0.8998
   61MOL    C9315813   3.929   6.632   7.186 -0.0262  0.9890  0.0268
   61MOL    C9415814   3.883   6.569   7.056  0.4318  0.2308  0.0377
   61MOL    C9515815   3.775   6.601   6.984 -0.1619  0.3218  0.2586
   61MOL    C9615816   3.749   6.523   6.854  0.2080  0.1415 -0.1188
   61MOL    C9715817   3.668   6.702   7.018  0.1350  0.1965  0.4558
   61MOL    H9815818   4.028   6.666   7.159  0.7039 -1.3374 -0.3575
   61MOL    H9915819   3.874   6.720   7.220  1.9193  1.7096  1.3690
   61MOL   H10015820   3.944   6.493   7.011 -1.9383 -1.9618  0.4294
   61MOL   H10115821   3.744   6.584   6.763 -1.1815 -0.1232 -0.2385
   61MOL   H10215822   3.813   6.437   6.839  1.9612  1.4699 -0.4082
   61MOL   H10315823   3.655   6.473   6.878  1.1942 -0.8891  1.6854
   61MOL   H10415824   3.682   6.736   7.121 -2.4344  0.7218  0.6623
   61MOL   H10515825   3.571   6.653   7.026 -0.3729  1.0043 -0.5924
   61MOL   C10615826   3.654   6.816   6.911  0.8231  0.0955  0.0495
   61MOL   C10715827   3.570   6.930   6.960  0.2351  0.2109 -0.4291
   61MOL   C10815828   3.434   6.939   6.944 -0.2819 -0.6439 -0.4756
   61MOL   C10915829   3.360   6.846   6.861  0.1524  0.0442  0.0433
   61MOL   C11015830   3.351   7.057   6.981  0.4398 -0.5569  0.2104
   61MOL   H11115831   3.626   6.791   6.809 -0.3503 -0.4086  0.4930
   61MOL   H11215832   3.757   6.851   6.924  0.3224  1.2610  0.8710
   61MOL   H11315833   3.628   7.001   7.018  1.4835 -1.0349 -0.1418
   61MOL   H11415834   3.419   6.778   6.800 -1.3708  0.6683 -2.1696
   61MOL   H11515835   3.304   6.792   6.937  0.0735  0.4924  0.3059
   61MOL   H11615836   3.289   6.886   6.789  1.0544 -0.5235 -1.1761
   61MOL   H11715837   3.254   7.015   7.010  0.3033  0.9322  1.9877
   61MOL   H11815838   3.323   7.128   6.903 -0.4281 -0.7226  0.3579
   61MOL   C11915839   3.399   7.150   7.099  0.3055 -0.4511  0.7039
   61MOL   C12015840   3.284   7.238   7.144 -0.1917 -0.6429 -0.1942
   61MOL   C12115841   3.283   7.367   7.168  0.6430 -0.3399 -0.5193
   61MOL   C12215842   3.158   7.443   7.208 -0.3964 -0.0902 -0.1159
   61MOL   C12315843   3.409   7.458   7.144  0.2677  0.1629 -0.0336
   61MOL   H12415844   3.480   7.206   7.052 -0.3023  0.7027  0.9934
   61MOL   H12515845   3.428   7.088   7.184  0.2110  1.2712  2.0238
   61MOL   H12615846   3.190   7.186   7.148  0.0837 -1.0214  2.3882
   61MOL   H12715847   3.141   7.507   7.121  1.1439  0.1551 -0.2579
   61MOL   H12815848   3.162   7.504   7.299  1.3849  0.5206 -0.5761
   61MOL   H12915849   3.072   7.378   7.211 -2.3396  2.3435 -1.1613
   61MOL   H13015850   3.496   7.400   7.174  1.5675  1.3232 -1.4726
   61MOL   H13115851   3.400   7.544   7.210 -0.2251  0.1667 -0.1071
   61MOL   C13215852   3.417   7.504   6.999 -0.5253  1.5154 -0.1047
   61MOL   C13315853   3.525   7.606   6.977  0.3209 -0.2350 -0.4457
   61MOL   C13415854   3.515   7.741   6.962 -0.9207  1.0709  0.1433
   61MOL   C13515855   3.638   7.824   6.943  0.4758  0.0267  0.5211
   61MOL   C13615856   3.388   7.822   6.964  0.1589 -0.6594  0.1954
   61MOL   H13715857   3.331   7.560   6.963 -0.2320  1.0036 -1.6283
   61MOL   H13815858   3.430   7.418   6.934  4.2394  1.4175  0.7797
   61MOL   H13915859   3.623   7.564   6.989  0.2355 -0.1789  0.4328
   61MOL   H14015860   3.671   7.845   7.045 -0.3818  0.6968  0.6720
   61MOL   H14115861   3.616   0.038   6.890 -0.4952  0.1081  1.0532
   61MOL   H14215862   3.719   7.772   6.892 -0.6438  0.8672 -2.2193
   61MOL   H14315863   3.411   0.038   7.012  2.1847 -0.3724 -1.3022
   61MOL   H14415864   3.312   7.784   7.033 -0.9712  0.5786 -0.3408
   61MOL   C14515865   3.330   7.848   6.826  0.3376 -0.7341 -0.1701
   61MOL   C14615866   3.197   0.043   6.830  0.1333  0.6952 -0.6087
   61MOL   C14715867   3.073   0.001   6.794  0.7796 -0.2180  0.4046
   61MOL   C14815868   2.954   0.083   6.830 -0.1570  0.1915  0.2259
   61MOL   C14915869   3.048   7.744   6.739  0.6172  0.1259  0.3041
   61MOL   H15015870   3.336   7.762   6.759 -1.3723 -0.0889 -1.1821
   61MOL   H15115871   3.400   0.038   6.779  1.5519 -1.8647 -0.0489
   61MOL   H15215872   3.217   0.135   6.883 -0.0555 -0.8229  2.2342
   61MOL   H15315873   2.988   0.181   6.866  1.0142  0.1024 -0.5960
   61MOL   H15415874   2.895   0.039   6.910 -2.2049 -0.2943 -1.5213
   61MOL   H15515875   2.887   0.090   6.745 -0.6727 -1.0064  0.5268
   61MOL   H15615876   3.138   7.694   6.702 -0.8518 -1.6079 -1.0147
   61MOL   H15715877   2.969   7.742   6.663 -0.9814  3.2303  1.7933
   61MOL   C15815878   3.015   7.644   6.853  0.3985 -0.5932 -0.0099
   61MOL   C15915879   3.009   7.502   6.798 -0.1799  0.4814 -0.4508
   61MOL   C16015880   2.934   7.401   6.843 -0.0334 -0.3631 -0.1452
   61MOL   C16115881   2.831   7.414   6.953  0.2400  0.4692 -0.1320
   61MOL   C16215882   2.939   7.262   6.785 -0.0867 -0.0292  0.2095
   61MOL   H16315883   2.917   7.665   6.897 -0.1234  0.7919 -1.7665
   61MOL   H16415884   3.094   7.656   6.927  0.6022  1.2291 -0.4975
   61MOL   H16515885   3.072   7.489   6.711  0.0515 -2.6233  0.1340
   61MOL   H16615886   2.754   7.336   6.951  1.0956 -0.3355 -3.9618
   61MOL   H16715887   2.779   7.510   6.956 -0.2071  0.2336 -0.2669
   61MOL   H16815888   2.885   7.406   7.048  1.1684 -2.9878 -0.9065
   61MOL   H16915889   2.971   7.284   6.683 -2.4163 -0.7044 -0.7009
   61MOL   H17015890   2.834   7.234   6.778 -0.2735 -0.0915  2.5823
   61MOL   C17115891   3.018   7.159   6.867  0.1860  0.6882 -0.9333
   61MOL   C17215892   3.021   7.035   6.787  0.1299  0.2589 -0.0176
   61MOL   C17315893   2.964   6.914   6.816 -0.2926 -0.5625 -0.1165
   61MOL   C17415894   2.896   6.879   6.943 -0.1124  0.3582  0.2421
   61MOL   C17515895   2.999   6.795   6.720  0.6208 -0.4635 -0.1760
   61MOL   H17615896   2.972   7.146   6.965 -2.3958  0.4477 -2.1526
   61MOL   H17715897   3.118   7.201   6.876 -0.0163  0.8803  0.5906
   61MOL   H17815898   3.073   7.040   6.693  0.2738  0.6072  0.0824
   61MOL   H17915899   2.968   6.839   7.015 -1.0410 -0.8931  0.4941
   61MOL   H18015900   2.819   6.803   6.928  0.6178 -0.5890  1.2204
   61MOL   H18115901   2.853   6.971   6.982 -0.4453  0.4757 -0.3913
   61MOL   H18215902   3.014   6.711   6.788 -2.5078 -1.2842 -0.4382
   61MOL   H18315903   3.093   6.822   6.670  0.2758  2.5790  0.7059
   61MOL   C18415904   2.894   6.777   6.610  0.1557 -0.5186 -0.0484
   61MOL   C18515905   2.931   6.662   6.513 -0.2864  0.0684  0.2084
   61MOL   C18615906   2.858   6.555   6.479 -0.1835 -0.4841 -0.2414
   61MOL   C18715907   2.914   6.454   6.389 -0.5458  0.4177  0.2372
   61MOL   C18815908   2.729   6.524   6.554 -0.1089 -0.2812 -0.1984
   61MOL   H18915909   2.889   6.873   6.558 -0.4318 -0.5553 -0.0620
   61MOL   H19015910   2.799   6.752   6.658  1.0713  0.4766  2.3662
   61MOL   H19115911   3.031   6.678   6.475  0.4719  1.5112  2.6580
   61MOL   H19215912   3.019   6.470   6.365 -0.3649 -1.3750 -0.1986
   61MOL   H19315913   2.857   6.448   6.296 -0.5521  0.4785  0.2376
   61MOL   H19415914   2.920   6.359   6.442  0.6171  0.3330 -0.0391
   61MOL   H19515915   2.716   6.556   6.658 -0.3947  1.0798 -0.6426
   61MOL   H19615916   2.725   6.415   6.553 -1.4037 -0.2297 -1.3140
   61MOL   C19715917   2.607   6.570   6.475  0.9060 -0.3524 -0.3980
   61MOL   C19815918   2.481   6.557   6.555  0.1861  0.0392  0.3985
   61MOL   C19915919   2.357   6.546   6.503  0.0579 -0.3287 -0.2086
   61MOL   C20015920   2.231   6.529   6.579  0.3586  0.1856 -0.4127
   61MOL   C20115921   2.327   6.550   6.352 -0.8716 -0.3905 -0.3087
   61MOL   H20215922   2.599   6.516   6.381 -0.4682  1.2158 -1.2013
   61MOL   H20315923   2.628   6.676   6.457 -1.7400 -0.0256 -1.7529
   61MOL   H20415924   2.484   6.547   6.662  0.0305  0.9612  0.4944
   61MOL   H20515925   2.254   6.535   6.685  1.1195  0.0586 -0.5686
   61MOL   H20615926   2.177   6.436   6.561 -0.9527  0.8706 -0.0952
   61MOL   H20715927   2.152   6.597   6.547  0.3157  0.5466  0.4518
   61MOL   H20815928   2.247   6.481   6.327 -1.1454  0.6497 -2.4541
   61MOL   H20915929   2.412   6.517   6.294 -0.0346 -0.1677  0.7754
   61MOL   C21015930   2.272   6.689   6.308  0.0590  0.3149 -0.6866
   61MOL   C21115931   2.310   6.720   6.162  0.3784 -0.8286 -0.8027
   61MOL   C21215932   2.239   6.777   6.062  0.1343  0.4774  0.8814
   61MOL   C21315933   2.309   6.807   5.925  0.9456  0.6379  0.6095
   61MOL   C21415934   2.088   6.790   6.062 -0.2655 -0.8639  0.0764
   61MOL   H21515935   2.320   6.762   6.374  0.5491 -0.2294 -0.4334
   61MOL   H21615936   2.168   6.703   6.335  0.1605 -0.2374  0.0118
   61MOL   H21715937   2.416   6.719   6.141  0.9785 -1.2078  2.0242
   61MOL   H21815938   2.261   6.749   5.846 -1.9464  1.8501  1.4056
   61MOL   H21915939   2.417   6.789   5.927  0.5269 -2.0194  1.9832
   61MOL   H22015940   2.286   6.902   5.878 -1.2902 -0.0012  0.3373
   61MOL   H22115941   2.044   6.748   6.153 -0.7000 -0.0636  0.2415
   61MOL   H22215942   2.041   6.727   5.986 -0.2275 -0.0815 -0.5979
   61MOL   C22315943   2.034   6.937   6.045 -1.5396  0.3837 -0.5282
   61MOL   C22415944   1.885   6.943   6.037 -0.5728 -0.0400  0.0041
   61MOL   C22515945   1.807   7.018   6.113 -0.5079  0.1681  0.0790
   61MOL   C22615946   1.661   7.042   6.083 -0.0012 -0.4499 -0.9719
   61MOL   C22715947   1.859   7.098   6.228  0.3830 -0.1602 -0.3392
   61MOL   H22815948   2.081   6.980   5.956 -0.2949  0.0529 -0.0353
   61MOL   H22915949   2.075   6.991   6.130 -1.2013 -0.7165  0.0187
   61MOL   H23015950   1.835   6.897   5.953  2.0516 -0.2264 -1.5092
   61MOL   H23115951   1.621   6.980   6.003 -1.7291  0.4135 -0.8082
   61MOL   H23215952   1.651   7.141   6.038  2.3540 -0.5906 -1.8879
   61MOL   H23315953   1.596   7.039   6.171 -0.1698 -1.9822 -1.1344
   61MOL   H23415954   1.781   7.162   6.270  2.5447  2.8009 -0.6711
   61MOL   H23515955   1.935   7.171   6.202  0.6198  0.7196  2.7183
   61MOL   C23615956   1.894   7.013   6.346  0.3076  0.3786 -0.3875
   61MOL   C23715957   1.927   7.098   6.462  0.2379  0.7735  0.2468
   61MOL   C23815958   1.835   7.131   6.558 -0.7416  0.0269  0.3181
   61MOL   C23915959   1.885   7.230   6.663 -0.2763  0.6761 -0.2295
   61MOL   C24015960   1.692   7.087   6.568  0.2996 -0.4482 -0.4967
   61MOL   H24115961   1.976   6.946   6.320  1.7462  0.9566  2.4400
   61MOL   H24215962   1.816   6.939   6.366  2.9894 -1.9067  2.0054
   61MOL   H24315963   2.025   7.145   6.466  0.9635 -0.5079 -1.5950
   61MOL   H24415964   1.830   7.324   6.669 -1.6699 -0.0872 -0.6547
   61MOL   H24515965   1.991   7.244   6.644 -0.3599  0.5432 -0.7979
   61MOL   H24615966   1.847   7.184   6.755  0.3154 -0.4294 -0.5205
   61MOL   H24715967   1.675   7.040   6.665  2.3872 -0.9206 -0.3316
   61MOL   H24815968   1.671   7.001   6.504 -0.2359 -0.7536  0.0816
   61MOL   C24915969   1.578   7.188   6.559 -0.5798  0.0044  0.4625
   61MOL   C25015970   1.439   7.131   6.569  0.1304  0.3786  0.2676
   61MOL   C25115971   1.372   7.104   6.684 -0.1046 -0.1013  0.0575
   61MOL   C25215972   1.228   7.049   6.672 -0.0740 -0.5626 -0.7263
   61MOL   C25315973   1.425   7.120   6.822 -0.5080  0.3496  0.0069
   61MOL   H25415974   1.587   7.229   6.458  0.5558 -1.9864 -0.2908
   61MOL   H25515975   1.589   7.269   6.630 -1.1294 -0.4580  1.0777
   61MOL   H25615976   1.390   7.124   6.473  2.1031  0.0216 -0.7395
   61MOL   H25715977   1.188   7.064   6.571  0.8492 -1.3013 -1.2072
   61MOL   H25815978   1.165   7.091   6.750  1.0706  0.0695 -0.1343
   61MOL   H25915979   1.239   6.943   6.694 -2.3823 -0.8209 -0.6276
   61MOL   H26015980   1.460   7.020   6.848  2.6715  1.1625 -0.9508
   61MOL   H26115981   1.346   7.144   6.894 -1.5338 -2.2583 -0.2030
   61MOL   H26215982   1.507   7.192   6.833 -1.7924  1.8270  0.1021
   62MOL     C115983   1.547   7.578   6.568  0.1208  0.1281 -0.4090
   62MOL     C215984   1.473   7.664   6.463 -0.4163  0.3332  0.4496
   62MOL     C315985   1.359   7.632   6.399  0.1028  0.1817  1.1232
   62MOL     C415986   1.286   7.730   6.313 -0.3941 -0.4539  0.3814
   62MOL     C515987   1.282   7.504   6.413  0.2354  0.8026  0.2695
   62MOL     H615988   1.480   7.537   6.643  0.8377  0.3532  0.3638
   62MOL     H715989   1.617   7.508   6.523 -2.2290 -1.4122 -1.7194
   62MOL     H815990   1.522   7.758   6.442  2.6951 -0.3218  4.2093
   62MOL     H915991   1.255   7.699   6.213 -1.3572 -0.7187  0.7519
   62MOL    H1015992   1.338   7.826   6.314  0.6362 -0.9819 -1.4507
   62MOL    H1115993   1.191   7.742   6.367 -0.2727  2.0590  0.0792
   62MOL    H1215994   1.335   7.434   6.477 -0.1367  0.2474 -0.0278
   62MOL    H1315995   1.270   7.455   6.317  0.0298  0.6354  0.3800
   62MOL    H1415996   1.622   7.634   6.624 -0.1519  2.0764 -1.9365
   62MOL    C1515997   1.143   7.515   6.476  0.2691 -0.6376 -1.3956
   62MOL    C1615998   1.144   7.566   6.619  0.0741  0.4199 -0.2364
   62MOL    C1715999   1.038   7.633   6.680 -0.0818 -0.7888 -1.4749
   62MOL    C1816000   1.054   7.684   6.824 -0.4614  0.3485 -0.1462
   62MOL    C1916001   0.898   7.653   6.625  0.2819 -0.7887 -0.0999
   62MOL    H2016002   1.091   7.419   6.469  1.5490 -1.3939 -0.8260
   62MOL    H2116003   1.072   7.579   6.424  0.6645  1.3167  0.4010
   62MOL    H2216004   1.234   7.549   6.676 -0.3305 -2.8123 -0.4655
   62MOL    H2316005   1.018   7.783   6.850  0.3638  0.5337  0.3012
   62MOL    H2416006   1.162   7.695   6.837 -0.4791  1.1030 -0.6741
   62MOL    H2516007   1.010   7.608   6.889  1.0434 -0.8500 -0.4982
   62MOL    H2616008   0.831   7.615   6.702 -0.8470  0.6046 -0.3805
   62MOL    H2716009   0.881   7.598   6.533 -0.8777 -0.5047 -0.0683
   62MOL    C2816010   0.854   7.801   6.609  0.1388  0.4658  0.5062
   62MOL    C2916011   0.705   7.830   6.601 -0.7042 -0.2597  0.2770
   62MOL    C3016012   0.621   7.871   6.704  0.3815  0.3246  0.4447
   62MOL    C3116013   0.468   0.005   6.670 -0.0385  0.5414  0.4149
   62MOL    C3216014   0.666   0.019   6.850  0.2849 -0.4583 -1.0202
   62MOL    H3316015   0.910   7.843   6.525 -1.8067 -0.5762 -1.3683
   62MOL    H3416016   0.880   7.854   6.700  0.7084 -0.0468  0.6463
   62MOL    H3516017   0.667   7.821   6.500 -0.6406 -0.4406  0.2696
   62MOL    H3616018   0.447   7.828   6.579  1.9296  2.6455 -1.3651
   62MOL    H3716019   0.440   0.109   6.654  1.5158  0.8229 -0.5902
   62MOL    H3816020   0.431   7.831   6.759  0.5878 -0.5328  0.0490
   62MOL    H3916021   0.746   7.830   6.876 -0.8913 -1.6379 -0.4194
   62MOL    H4016022   0.586   7.874   6.920  1.9688  0.3036  1.2250
   62MOL    C4116023   0.715   0.156   6.874  0.9068 -0.2840  0.1968
   62MOL    C4216024   0.748   0.185   7.014 -0.3615  0.0939  0.5951
   62MOL    C4316025   0.770   0.305   7.072  0.1006 -0.5743 -1.0401
   62MOL    C4416026   0.822   0.301   7.215  0.9016  0.7503  0.4381
   62MOL    C4516027   0.763   0.438   6.997  0.0934 -0.5043 -0.2907
   62MOL    H4616028   0.644   0.232   6.841  1.1493  0.3825  1.1662
   62MOL    H4716029   0.802   0.165   6.810  0.3622  0.8157 -0.4016
   62MOL    H4816030   0.767   0.090   7.062 -1.8024 -1.9989 -2.8373
   62MOL    H4916031   0.804   0.397   7.263 -0.0992  0.7479  0.0780
   62MOL    H5016032   0.930   0.284   7.212  0.7394 -0.6118  1.7953
   62MOL    H5116033   0.770   0.226   7.275 -0.5104  1.4125  0.0563
   62MOL    H5216034   0.747   0.422   6.890 -0.3912  0.9507 -0.4438
   62MOL    H5316035   0.867   0.467   6.985  0.0223 -0.0369  0.2233
   62MOL    C5416036   0.659   0.542   7.047  0.4609  0.4053 -0.3758
   62MOL    C5516037   0.651   0.670   6.969  0.4889  0.0477 -0.5385
   62MOL    C5616038   0.621   0.794   7.016  0.9582  0.2204  0.3085
   62MOL    C5716039   0.594   0.911   6.922 -0.1517  0.2728 -0.2170
   62MOL    C5816040   0.603   0.825   7.161  0.6960 -0.1068 -0.5836
   62MOL    H5916041   0.695   0.556   7.150  0.1379  1.0196 -0.3482
   62MOL    H6016042   0.562   0.494   7.036  0.2137  1.0654 -1.0538
   62MOL    H6116043   0.662   0.647   6.864 -1.3705  0.7354 -0.8955
   62MOL    H6216044   0.662   0.994   6.944  0.1173 -0.2717  1.1069
   62MOL    H6316045   0.491   0.944   6.917 -0.5130 -0.5542  1.3468
   62MOL    H6416046   0.613   0.879   6.820 -2.8523  1.1983 -1.0525
   62MOL    H6516047   0.669   0.908   7.187  0.5210  0.5604 -2.2116
   62MOL    H6616048   0.632   0.746   7.231 -0.6540  1.2655  1.5681
   62MOL    C6716049   0.464   0.864   7.197 -0.2904 -1.2023 -0.7181
   62MOL    C6816050   0.453   0.890   7.346 -0.7820 -0.1738 -0.4857
   62MOL    C6916051   0.342   0.878   7.419 -0.1389 -0.3731 -0.0777
   62MOL    C7016052   0.336   0.905   7.566 -0.3620 -0.4691 -0.1423
   62MOL    C7116053   0.205   0.830   7.360 -0.9485 -0.7473 -0.2145
   62MOL    H7216054   0.383   0.799   7.164 -2.2236  1.1294 -0.6897
   62MOL    H7316055   0.439   0.960   7.152 -1.3047 -2.8208 -3.7162
   62MOL    H7416056   0.542   0.935   7.387 -1.0971 -0.8106  0.9030
   62MOL    H7516057   0.430   0.949   7.600 -0.1124 -0.4003 -0.9144
   62MOL    H7616058   0.312   0.820   7.629 -1.6974 -0.6289 -0.8476
   62MOL    H7716059   0.252   0.966   7.598 -0.5058 -0.4602 -0.5333
   62MOL    H7816060   0.197   0.847   7.253 -0.1092 -0.4791 -0.2416
   62MOL    H7916061   0.123   0.886   7.404 -3.0009 -2.9621 -1.0911
   62MOL    C8016062   0.195   0.679   7.377  0.0249  0.3557  0.1847
   62MOL    C8116063   0.077   0.617   7.302 -0.5695 -0.0821 -0.4930
   62MOL    C8216064   0.030   0.490   7.311 -0.2524  0.4036  0.2609
   62MOL    C8316065   0.101   0.386   7.394  0.3524 -0.3068 -0.8634
   62MOL    C8416066   7.798   0.441   7.216  0.7241 -0.2934 -0.3923
   62MOL    H8516067   0.178   0.661   7.483 -1.0025  0.3466  0.0287
   62MOL    H8616068   0.286   0.623   7.355  0.0233  0.5631 -0.3444
   62MOL    H8716069   0.027   0.693   7.244 -1.4134  0.3495  0.7570
   62MOL    H8816070   0.032   0.326   7.454 -1.8742  0.1134 -2.8832
   62MOL    H8916071   0.164   0.442   7.461  1.2026 -1.6927 -0.4806
   62MOL    H9016072   0.155   0.326   7.320  0.9604 -0.4391 -0.3109
   62MOL    H9116073   7.813   0.333   7.203 -1.2941 -1.0431  2.8412
   62MOL    H9216074   7.801   0.485   7.117 -3.6244 -1.4710 -1.1268
   62MOL    C9316075   7.658   0.455   7.283 -0.2432  1.0313 -0.4772
   62MOL    C9416076   7.558   0.391   7.195  0.2749 -0.1221 -0.2386
   62MOL    C9516077   7.447   0.322   7.232 -0.1463  0.5956  0.0812
   62MOL    C9616078   7.350   0.270   7.127 -0.6294 -0.6917  0.1790
   62MOL    C9716079   7.409   0.289   7.375  0.3395 -0.4564 -0.1604
   62MOL    H9816080   7.622   0.558   7.291 -1.6694  0.5968 -1.2940
   62MOL    H9916081   7.650   0.401   7.377  0.0826  1.3745 -0.2495
   62MOL   H10016082   7.577   0.416   7.092 -1.6206 -0.1872 -0.6144
   62MOL   H10116083   7.371   0.302   7.025  0.2926 -1.0949  0.2369
   62MOL   H10216084   7.356   0.161   7.127 -1.3443 -0.7460  1.9197
   62MOL   H10316085   7.251   0.313   7.144 -0.1140  1.2560 -1.5554
   62MOL   H10416086   7.302   0.299   7.393  0.4535  0.3469  0.0786
   62MOL   H10516087   7.445   0.351   7.456 -0.1164  0.5395 -0.7157
   62MOL   C10616088   7.439   0.143   7.399 -0.1553 -0.4024 -0.2081
   62MOL   C10716089   7.435   0.108   7.551 -0.3880  0.2887 -0.1543
   62MOL   C10816090   7.327   0.060   7.616 -0.9022  0.1472 -0.1924
   62MOL   C10916091   7.187   0.025   7.562  0.8655  0.0020  0.0583
   62MOL   C11016092   7.325   0.040   7.765  0.5214 -0.5984 -0.9254
   62MOL   H11116093   7.533   0.101   7.364 -2.2648 -0.9526 -5.7653
   62MOL   H11216094   7.381   0.081   7.329  1.5548 -0.5124 -1.5436
   62MOL   H11316095   7.526   0.135   7.601 -1.2351 -1.2510  2.2856
   62MOL   H11416096   7.168   7.807   7.609 -3.0019  1.5148  1.7965
   62MOL   H11516097   7.119   0.095   7.611  1.0755  0.6436 -0.5754
   62MOL   H11616098   7.189   0.025   7.453 -1.0403 -0.1014 -0.0007
   62MOL   H11716099   7.222   0.061   7.794  0.7211 -2.6608  1.4556
   62MOL   H11816100   7.386   0.115   7.816  0.0569 -1.1132  0.4254
   62MOL   C11916101   7.357   7.778   7.814 -0.6540  0.5335 -0.2254
   62MOL   C12016102   7.364   7.760   0.080  0.0267 -0.2589  0.2271
   62MOL   C12116103   7.339   7.649   0.151 -0.3510 -0.2325 -0.0187
   62MOL   C12216104   7.332   7.631   0.298 -0.2283 -0.1543  0.5292
   62MOL   C12316105   7.284   7.521   0.078 -0.0696 -0.2179 -0.1045
   62MOL   H12416106   7.461   7.756   7.790 -0.3327  3.6708 -2.0374
   62MOL   H12516107   7.284   7.717   7.762 -0.3700  0.0259 -0.0238
   62MOL   H12616108   7.405   7.835   0.146 -0.0146  0.9342 -1.0548
   62MOL   H12716109   7.239   7.594   0.341 -0.1264 -2.3147 -0.9809
   62MOL   H12816110   7.361   7.722   0.350  1.7568 -0.2782 -0.3293
   62MOL   H12916111   7.410   7.560   0.324 -0.1891 -1.3612 -2.6318
   62MOL   H13016112   7.330   7.430   0.119  0.1744 -0.0419  0.0124
   62MOL   H13116113   7.303   7.518   7.850 -0.9200  0.1328 -0.2701
   62MOL   C13216114   7.133   7.511   0.103 -0.0906  0.0586 -0.0889
   62MOL   C13316115   7.065   7.636   0.043  1.2184  0.3236  0.5148
   62MOL   C13416116   6.968   7.634   7.830 -0.1118 -0.4418 -0.2786
   62MOL   C13516117   6.904   7.754   7.765 -0.1268 -0.0118  0.2586
   62MOL   C13616118   6.917   7.511   7.755 -0.6875  0.5837  0.2888
   62MOL   H13716119   7.099   7.495   0.205 -0.7336 -2.0381 -0.6076
   62MOL   H13816120   7.102   7.418   0.055 -1.9697  1.4273 -1.5758
   62MOL   H13916121   7.094   7.732   0.082  0.2587  0.5981  0.5568
   62MOL   H14016122   6.945   7.753   7.664 -2.2649  1.2290 -0.6653
   62MOL   H14116123   6.930   7.848   7.812  0.4603  0.7431 -1.5412
   62MOL   H14216124   6.800   7.721   7.763 -0.2474  0.4379 -1.3326
   62MOL   H14316125   6.821   7.532   7.710 -2.1589 -1.4179  2.3791
   62MOL   H14416126   6.896   7.433   7.828  2.2315 -0.6202 -0.0636
   62MOL   C14516127   7.007   7.447   7.646  0.3790 -0.0117 -0.0347
   62MOL   C14616128   6.925   7.378   7.540 -0.2105  1.3094  0.3965
   62MOL   C14716129   6.919   7.395   7.403  0.0804 -0.2537 -0.0492
   62MOL   C14816130   6.822   7.313   7.324  0.3321 -0.6836  0.2008
   62MOL   C14916131   6.986   7.514   7.331 -0.2910  0.6881 -0.4902
   62MOL   H15016132   7.078   7.382   7.698 -0.0959 -0.0393  0.5916
   62MOL   H15116133   7.055   7.520   7.582  0.7180 -1.5231 -1.5601
   62MOL   H15216134   6.870   7.296   7.583  1.6788 -0.5161 -0.5821
   62MOL   H15316135   6.729   7.367   7.309  1.0447  0.2060 -1.1132
   62MOL   H15416136   6.803   7.217   7.372  2.8328 -1.6292 -0.6183
   62MOL   H15516137   6.859   7.275   7.229 -1.3368 -3.1895  0.5078
   62MOL   H15616138   6.991   7.489   7.225 -0.5717  1.8059 -0.7784
   62MOL   H15716139   7.089   7.521   7.365 -0.0198 -0.2660 -1.1117
   62MOL   C15816140   6.915   7.651   7.355 -0.6907  0.1903 -0.0051
   62MOL   C15916141   6.989   7.761   7.275  1.2021  0.9278  0.2857
   62MOL   C16016142   6.966   0.013   7.295 -0.3199  0.1461  0.0806
   62MOL   C16116143   6.873   0.073   7.406  0.6920  0.6668  0.6558
   62MOL   C16216144   7.015   0.117   7.198  0.6302 -0.5488  0.2025
   62MOL   H16316145   6.919   7.669   7.462  0.0816 -0.5323  0.0974
   62MOL   H16416146   6.811   7.662   7.326 -0.9373  0.4198  0.9485
   62MOL   H16516147   7.050   7.739   7.189  2.4545  0.8370  1.1934
   62MOL   H16616148   6.861   0.009   7.494 -0.3405  1.6419  1.2265
   62MOL   H16716149   6.772   0.093   7.371  0.9461  2.3013  0.8389
   62MOL   H16816150   6.910   0.168   7.444 -0.1276  1.1085  0.3519
   62MOL   H16916151   7.110   0.085   7.157  1.0335  2.7783 -1.6781
   62MOL   H17016152   7.037   0.211   7.251  0.9761 -1.7776  2.3043
   62MOL   C17116153   6.919   0.144   7.085  0.0651  0.4413  0.0065
   62MOL   C17216154   6.982   0.246   6.984 -0.3330 -0.2303  0.1208
   62MOL   C17316155   7.036   0.214   6.859 -0.3480  0.0599 -0.1700
   62MOL   C17416156   7.036   0.078   6.793 -0.6197  0.0942  0.5009
   62MOL   C17516157   7.097   0.319   6.768 -0.2198  0.2536  0.2352
   62MOL   H17616158   6.825   0.183   7.122 -0.1969 -0.5169  0.3816
   62MOL   H17716159   6.888   0.050   7.039  0.7579  1.0125 -1.6563
   62MOL   H17816160   6.973   0.348   7.016  1.0867 -0.6206  1.8308
   62MOL   H17916161   6.955   0.074   6.720 -0.0547  2.1151 -0.2744
   62MOL   H18016162   7.029   7.876   6.865  0.7482 -0.7580 -0.2964
   62MOL   H18116163   7.135   0.075   6.747  0.0720  0.0979  1.9594
   62MOL   H18216164   7.044   0.301   6.674  1.1890 -0.7648 -0.3837
   62MOL   H18316165   7.203   0.299   6.755 -0.2721 -0.3875  0.7313
   62MOL   C18416166   7.096   0.467   6.811 -0.0792 -0.0443 -0.7636
   62MOL   C18516167   7.147   0.566   6.703 -0.2657  0.0114 -0.8670
   62MOL   C18616168   7.077   0.653   6.628 -0.0831  0.2176  0.8673
   62MOL   C18716169   7.140   0.730   6.513 -0.3929 -0.5386  0.0307
   62MOL   C18816170   6.931   0.686   6.647  0.4585 -0.5457  0.0507
   62MOL   H18916171   7.162   0.480   6.897 -0.1719 -3.1882 -0.1492
   62MOL   H19016172   7.005   0.504   6.860  1.3077  0.3602  1.5834
   62MOL   H19116173   7.255   0.562   6.704 -0.3031 -1.0641 -0.5343
   62MOL   H19216174   7.099   0.709   6.414  0.1213  0.7620 -0.4620
   62MOL   H19316175   7.241   0.697   6.486 -0.8839  1.4954 -4.6291
   62MOL   H19416176   7.142   0.836   6.538 -1.5971 -0.1649 -1.3851
   62MOL   H19516177   6.923   0.793   6.625  1.5507 -1.0826 -3.2502
   62MOL   H19616178   6.895   0.666   6.748  1.7605 -0.2572  0.5772
   62MOL   C19716179   6.843   0.613   6.545  0.1174 -0.4094 -0.0740
   62MOL   C19816180   6.808   0.471   6.580 -0.6283  0.0749 -0.4920
   62MOL   C19916181   6.782   0.370   6.489 -0.3541  0.1180 -0.1063
   62MOL   C20016182   6.740   0.233   6.540 -0.0089  1.1550 -0.0210
   62MOL   C20116183   6.765   0.392   6.342  0.0438  0.5273  0.2133
   62MOL   H20216184   6.871   0.634   6.442  0.5119  1.4829  0.4115
   62MOL   H20316185   6.748   0.668   6.546  3.3025  5.4255  2.3637
   62MOL   H20416186   6.823   0.447   6.684  0.9454 -1.1928 -0.9987
   62MOL   H20516187   6.633   0.218   6.527 -0.1487  1.7285  0.4239
   62MOL   H20616188   6.762   0.221   6.646 -2.8828 -2.3575  0.2596
   62MOL   H20716189   6.794   0.155   6.486 -0.6540 -0.0852  1.1126
   62MOL   H20816190   6.808   0.490   6.319  0.8057 -0.1319 -1.3054
   62MOL   H20916191   6.659   0.399   6.321  0.1550 -0.3836 -0.7394
   62MOL   C21016192   6.835   0.280   6.262 -0.6893  0.1731  0.8756
   62MOL   C21116193   6.885   0.338   6.122  0.1822  0.1975  0.0329
   62MOL   C21216194   6.849   0.310   6.000  0.4875 -0.6205 -0.1644
   62MOL   C21316195   6.902   0.375   5.875  0.1120 -0.5737 -0.3393
   62MOL   C21416196   6.759   0.193   5.974  0.4955 -0.4101 -0.3205
   62MOL   H21516197   6.790   0.181   6.255 -1.2898  0.4598  0.6111
   62MOL   H21616198   6.932   0.255   6.304  0.6278 -0.4360 -2.4088
   62MOL   H21716199   6.956   0.419   6.132  0.1988  0.0549  1.1651
   62MOL   H21816200   6.828   0.414   5.805 -1.1065 -3.1650 -0.5252
   62MOL   H21916201   6.942   0.291   5.818  0.8459 -0.4159 -0.0688
   62MOL   H22016202   6.977   0.452   5.895 -0.0758 -0.6851  0.8227
   62MOL   H22116203   6.763   0.122   6.057  1.7616 -0.5032 -0.4457
   62MOL   H22216204   6.802   0.138   5.890  1.3478 -0.8115  0.3661
   62MOL   C22316205   6.616   0.229   5.944  0.1757  0.0980 -0.7846
   62MOL   C22416206   6.537   0.270   6.066 -0.1200 -0.5995  0.0708
   62MOL   C22516207   6.432   0.350   6.069  0.0620  0.4958 -0.2133
   62MOL   C22616208   6.367   0.395   6.194 -0.5594  0.6554 -0.0769
   62MOL   C22716209   6.368   0.415   5.944 -0.5821 -0.3985  0.8627
   62MOL   H22816210   6.551   0.153   5.902 -1.8600  2.0596 -1.3073
   62MOL   H22916211   6.624   0.309   5.870 -1.5924  0.2709 -0.8065
   62MOL   H23016212   6.563   0.234   6.165 -0.1326 -0.3116  0.1785
   62MOL   H23116213   6.415   0.337   6.272 -0.6407 -2.0421 -1.9339
   62MOL   H23216214   6.262   0.363   6.199 -0.9514  1.8217 -0.6059
   62MOL   H23316215   6.391   0.501   6.206 -1.5746  0.9374 -0.4104
   62MOL   H23416216   6.260   0.416   5.954 -0.6617 -2.1624  0.3454
   62MOL   H23516217   6.394   0.355   5.856 -1.9505  0.1955  0.0442
   62MOL   C23616218   6.388   0.570   5.925 -0.6276  0.2897 -0.2292
   62MOL   C23716219   6.536   0.614   5.949  0.0550 -0.2511 -0.1436
   62MOL   C23816220   6.610   0.684   5.859  0.3224  0.2064  0.0954
   62MOL   C23916221   6.756   0.719   5.904  0.2889 -0.6315 -0.0212
   62MOL   C24016222   6.572   0.728   5.722  0.4798  0.5828  0.3588
   62MOL   H24116223   6.331   0.629   5.997 -2.3034 -1.4627 -0.0790
   62MOL   H24216224   6.341   0.599   5.831 -0.5641  1.4064  0.0776
   62MOL   H24316225   6.577   0.581   6.043  0.2840 -1.1554 -0.5573
   62MOL   H24416226   6.830   0.667   5.842 -0.2535  0.8104 -1.9272
   62MOL   H24516227   6.770   0.682   6.006  0.5753 -0.5872 -0.0424
   62MOL   H24616228   6.774   0.826   5.890  2.3033 -0.8420  0.7425
   62MOL   H24716229   6.640   0.802   5.679  1.3753 -0.4271  0.0122
   62MOL   H24816230   6.472   0.771   5.713 -0.2638 -0.7922  1.8237
   62MOL   C24916231   6.564   0.599   5.634 -0.0834  0.0060 -0.3180
   62MOL   C25016232   6.706   0.547   5.600 -0.0937 -0.0608 -0.1783
   62MOL   C25116233   6.740   0.425   5.553  0.5639  1.2832 -0.4094
   62MOL   C25216234   6.877   0.410   5.493 -0.0127  0.4265 -0.7675
   62MOL   C25316235   6.657   0.295   5.562  0.2716  0.3982 -0.1807
   62MOL   H25416236   6.520   0.630   5.539 -0.8706 -0.4368 -0.1024
   62MOL   H25516237   6.499   0.521   5.673 -0.4081  1.3145  1.8749
   62MOL   H25616238   6.775   0.629   5.588 -1.0042  0.3059 -3.4797
   62MOL   H25716239   6.878   0.408   5.384 -0.4174  0.9753 -0.7853
   62MOL   H25816240   6.938   0.325   5.520  0.4965  0.9925 -0.1032
   62MOL   H25916241   6.946   0.492   5.517 -2.5214  2.5359 -0.4697
   62MOL   H26016242   6.637   0.246   5.467  0.3779  0.1196 -0.0565
   62MOL   H26116243   6.557   0.319   5.598  0.1207  1.2041 -1.1205
   62MOL   H26216244   6.706   0.231   5.636 -0.1829  0.2582  0.0021
   63MOL     C116245   3.792   3.788   3.559  0.1841 -0.0585  0.4164
   63MOL     C216246   3.763   3.654   3.491  0.4129  0.1376  0.5166
   63MOL     C316247   3.649   3.582   3.517  0.5823  0.0439  0.2111
   63MOL     C416248   3.630   3.439   3.465  0.0933 -0.3374 -0.4715
   63MOL     C516249   3.529   3.649   3.585  0.3486  0.0114 -0.3030
   63MOL     H616250   3.747   3.868   3.501  1.8300  0.3225 -0.3599
   63MOL     H716251   3.756   3.787   3.661  1.7048 -1.5858  0.9739
   63MOL     H816252   3.840   3.614   3.426 -0.2233  0.5847 -0.5287
   63MOL     H916253   3.537   3.430   3.409 -0.6862  0.5199  0.6404
   63MOL    H1016254   3.645   3.372   3.550  0.0573 -1.7239 -1.5574
   63MOL    H1116255   3.713   3.416   3.398  2.9273 -1.3164  3.2080
   63MOL    H1216256   3.560   3.734   3.645  2.5006  0.3631 -1.8700
   63MOL    H1316257   3.490   3.578   3.658 -0.1571  0.6014  0.0147
   63MOL    H1416258   3.898   3.814   3.563 -0.6790  3.4077  1.6228
   63MOL    C1516259   3.417   3.693   3.492  0.1170  0.5975  0.7708
   63MOL    C1616260   3.310   3.784   3.553 -0.7943  0.5404 -0.5611
   63MOL    C1716261   3.304   3.919   3.544  0.2720  0.2141  0.6905
   63MOL    C1816262   3.191   3.987   3.615 -0.0480  0.6101 -0.5768
   63MOL    C1916263   3.407   4.006   3.479 -1.2357  0.0070 -0.6231
   63MOL    H2016264   3.363   3.604   3.460  0.6010  0.4140  0.4500
   63MOL    H2116265   3.452   3.728   3.395 -1.3903  0.9387  0.3437
   63MOL    H2216266   3.227   3.737   3.603 -0.6665 -1.8031 -2.4395
   63MOL    H2316267   3.152   4.081   3.578 -0.0593  0.4901 -0.8745
   63MOL    H2416268   3.226   4.007   3.717 -2.4003  1.9019  0.0010
   63MOL    H2516269   3.104   3.922   3.623  0.7318 -0.2364  1.4143
   63MOL    H2616270   3.374   4.082   3.409 -1.9358  0.7512  0.5111
   63MOL    H2716271   3.474   3.935   3.429 -0.6569 -1.3547  1.9931
   63MOL    C2816272   3.487   4.083   3.586 -0.1491  0.1712  0.3896
   63MOL    C2916273   3.606   4.160   3.529 -0.3087 -0.2136 -0.2962
   63MOL    C3016274   3.653   4.283   3.570 -0.0347 -0.7304  0.1344
   63MOL    C3116275   3.757   4.351   3.484  0.2967  0.2424 -0.3617
   63MOL    C3216276   3.580   4.364   3.670 -0.2493 -0.1276  0.0974
   63MOL    H3316277   3.526   4.016   3.663  0.3631 -0.1268 -0.1293
   63MOL    H3416278   3.423   4.155   3.638  0.9813  0.4605  1.4072
   63MOL    H3516279   3.660   4.115   3.447  0.7326 -1.9622  1.2923
   63MOL    H3616280   3.702   4.416   3.417 -0.9884  1.4039  1.7486
   63MOL    H3716281   3.812   4.280   3.423 -0.2907  0.9714 -1.7577
   63MOL    H3816282   3.818   4.418   3.545  2.3664 -1.0411 -0.9824
   63MOL    H3916283   3.660   4.428   3.706  0.1509 -0.8560  0.5239
   63MOL    H4016284   3.535   4.324   3.761 -4.3305  4.0590  0.0978
   63MOL    C4116285   3.464   4.449   3.620  0.0769  0.1141 -0.3053
   63MOL    C4216286   3.405   4.544   3.730 -0.8637  0.3981  0.0926
   63MOL    C4316287   3.362   4.670   3.722  0.2725 -0.0260 -0.2057
   63MOL    C4416288   3.300   4.728   3.845 -0.2581 -0.0482  0.5922
   63MOL    C4516289   3.363   4.763   3.601  0.5837 -0.0403 -0.1190
   63MOL    H4616290   3.387   4.378   3.589 -0.0061 -0.0171  0.2046
   63MOL    H4716291   3.501   4.500   3.531 -0.3189 -0.0509 -0.5656
   63MOL    H4816292   3.386   4.500   3.827 -2.6300 -0.6345 -0.6973
   63MOL    H4916293   3.381   4.788   3.886 -1.7727  2.9997 -0.7457
   63MOL    H5016294   3.260   4.647   3.907  1.0787 -1.6497 -0.5849
   63MOL    H5116295   3.225   4.798   3.807  0.9501  0.2137 -1.3829
   63MOL    H5216296   3.260   4.775   3.567  0.2930  1.2456  1.1305
   63MOL    H5316297   3.425   4.728   3.519  2.3720 -1.8203  1.9289
   63MOL    C5416298   3.404   4.916   3.614 -0.4764 -0.0394  0.0455
   63MOL    C5516299   3.537   4.940   3.696 -0.2806  0.6418  0.5884
   63MOL    C5616300   3.546   5.015   3.806  0.0460 -0.2100  0.2568
   63MOL    C5716301   3.682   5.040   3.873  0.3368  0.0857  0.6292
   63MOL    C5816302   3.433   5.089   3.868  0.3292 -1.1432 -0.3817
   63MOL    H5916303   3.320   4.967   3.661 -1.0122 -0.8890  0.0170
   63MOL    H6016304   3.405   4.958   3.514 -0.4636 -2.1192 -0.8601
   63MOL    H6116305   3.621   4.887   3.654 -0.0773  0.5723  1.0846
   63MOL    H6216306   3.766   4.976   3.846  0.7867  1.3950 -1.1510
   63MOL    H6316307   3.667   5.005   3.975  0.3325 -0.2555  0.5128
   63MOL    H6416308   3.709   5.145   3.872  1.6720 -0.2380 -2.3679
   63MOL    H6516309   3.457   5.082   3.974 -1.8773 -0.5168  0.2043
   63MOL    H6616310   3.336   5.041   3.857 -0.2337  0.3471 -2.1997
   63MOL    C6716311   3.425   5.234   3.827 -0.1196  0.5538 -0.8012
   63MOL    C6816312   3.334   5.317   3.915  0.5079 -0.1417 -0.3494
   63MOL    C6916313   3.365   5.424   3.996 -0.1049  1.5456  0.3401
   63MOL    C7016314   3.255   5.476   4.093 -0.2154 -0.1735  0.5243
   63MOL    C7116315   3.507   5.492   4.002 -0.3146 -0.4385  0.3031
   63MOL    H7216316   3.376   5.248   3.730 -0.8392 -0.9312 -0.6686
   63MOL    H7316317   3.524   5.278   3.824 -0.2489  0.8513 -0.6576
   63MOL    H7416318   3.235   5.275   3.932  1.2283 -1.9590 -0.5450
   63MOL    H7516319   3.159   5.426   4.078 -1.5175  1.8408  1.8380
   63MOL    H7616320   3.234   5.580   4.070 -0.6508  0.0455  1.8522
   63MOL    H7716321   3.290   5.471   4.196 -0.8307 -0.0478  0.7407
   63MOL    H7816322   3.585   5.430   3.957 -2.6852 -2.9304 -0.5129
   63MOL    H7916323   3.543   5.499   4.105 -0.0575  1.4949  0.1024
   63MOL    C8016324   3.503   5.633   3.939  0.1670 -0.2576 -0.0462
   63MOL    C8116325   3.637   5.684   3.890 -0.2369 -0.0600  0.2099
   63MOL    C8216326   3.714   5.787   3.932  0.2674 -0.3937  0.3045
   63MOL    C8316327   3.668   5.888   4.044 -0.4926 -0.4132 -0.2023
   63MOL    C8416328   3.856   5.810   3.884 -0.2261 -0.2857  0.5049
   63MOL    H8516329   3.465   5.699   4.017  0.0780 -0.6972  0.2819
   63MOL    H8616330   3.419   5.641   3.870 -0.4900  2.4605  1.0234
   63MOL    H8716331   3.679   5.622   3.813 -0.7154  1.2863 -1.1583
   63MOL    H8816332   3.683   5.995   4.024  0.3574 -0.2789  1.0987
   63MOL    H8916333   3.735   5.877   4.129  1.9605  0.2657 -1.9680
   63MOL    H9016334   3.568   5.862   4.078 -1.3341 -0.4430 -2.6470
   63MOL    H9116335   3.853   5.912   3.845  1.3181  1.0974  3.7864
   63MOL    H9216336   3.871   5.741   3.801  1.6700  1.1300 -0.3643
   63MOL    C9316337   3.962   5.793   3.991 -0.1020 -0.3905 -0.5123
   63MOL    C9416338   3.960   5.659   4.064  0.1235  0.0956  0.0669
   63MOL    C9516339   4.051   5.564   4.074 -0.5305  0.5946 -0.3538
   63MOL    C9616340   4.024   5.433   4.138 -0.3495  0.4125  0.1292
   63MOL    C9716341   4.182   5.572   3.996 -0.3042 -0.5464  0.1031
   63MOL    H9816342   3.952   5.873   4.064  0.9098  0.6876 -1.5258
   63MOL    H9916343   4.053   5.832   3.945  0.2364 -0.7032 -0.1066
   63MOL   H10016344   3.865   5.648   4.115  0.4729  0.5286  0.8122
   63MOL   H10116345   4.051   5.444   4.243  1.6153  0.3244 -0.3481
   63MOL   H10216346   3.916   5.424   4.142 -0.2971 -0.1295  0.3480
   63MOL   H10316347   4.069   5.342   4.099 -0.3415  1.5004 -2.5549
   63MOL   H10416348   4.265   5.522   4.044  0.0748 -0.1519 -0.1403
   63MOL   H10516349   4.198   5.679   3.983  0.1716 -0.4463  1.4011
   63MOL   C10616350   4.170   5.515   3.862  0.3719  0.0717  0.6149
   63MOL   C10716351   4.300   5.515   3.787 -0.5152  0.4882  0.1483
   63MOL   C10816352   4.328   5.574   3.668  0.3482 -0.0485  0.2846
   63MOL   C10916353   4.232   5.663   3.592  0.0940  0.4073 -0.0105
   63MOL   C11016354   4.450   5.530   3.580  0.0351 -0.0768  0.0019
   63MOL   H11116355   4.089   5.574   3.819  1.2767  0.8846 -0.0282
   63MOL   H11216356   4.141   5.412   3.881  0.1099 -0.2926 -1.6591
   63MOL   H11316357   4.366   5.444   3.834 -0.5117 -0.2709 -0.9716
   63MOL   H11416358   4.277   5.744   3.534 -0.3646 -0.6737 -1.8873
   63MOL   H11516359   4.147   5.614   3.545  0.3428 -0.0602  0.0282
   63MOL   H11616360   4.163   5.711   3.662 -1.3937 -0.7337 -0.6600
   63MOL   H11716361   4.409   5.472   3.498  0.6537 -2.4367  1.2909
   63MOL   H11816362   4.501   5.455   3.641 -0.2808 -0.0628  0.2880
   63MOL   C11916363   4.540   5.645   3.534 -0.0347  0.5065 -0.2872
   63MOL   C12016364   4.675   5.582   3.501  0.3554  0.1021  0.6592
   63MOL   C12116365   4.735   5.565   3.378 -0.4836 -0.5967  0.5371
   63MOL   C12216366   4.856   5.476   3.359 -0.5363  0.4785 -0.4476
   63MOL   C12316367   4.686   5.636   3.244 -0.2242  0.1618 -0.6870
   63MOL   H12416368   4.560   5.706   3.623  1.9493 -0.8222  0.2131
   63MOL   H12516369   4.490   5.697   3.453 -2.3235 -1.9753 -0.5530
   63MOL   H12616370   4.720   5.516   3.573 -1.9202 -0.3408  1.7234
   63MOL   H12716371   4.842   5.392   3.292  2.2448 -0.1847 -0.2360
   63MOL   H12816372   4.883   5.434   3.456 -1.3242  3.0475  0.9646
   63MOL   H12916373   4.950   5.523   3.331 -0.4386  0.9430  0.6065
   63MOL   H13016374   4.770   5.696   3.211 -0.7402  1.9206  1.1112
   63MOL   H13116375   4.611   5.709   3.275 -0.7633 -0.4731 -0.4589
   63MOL   C13216376   4.645   5.540   3.134 -0.1360 -0.5826 -1.0068
   63MOL   C13316377   4.608   5.620   3.009  0.4573  0.2758  0.0773
   63MOL   C13416378   4.488   5.604   2.951 -0.2100 -0.2707  0.7645
   63MOL   C13516379   4.451   5.688   2.828  0.0786  0.2331  0.1050
   63MOL   C13616380   4.369   5.532   3.012 -0.7756 -0.0638  0.4079
   63MOL   H13716381   4.564   5.479   3.174 -0.5855  0.2509 -0.6280
   63MOL   H13816382   4.729   5.474   3.110 -0.7673 -1.0994 -1.8308
   63MOL   H13916383   4.675   5.688   2.959  1.1466 -0.7800 -0.4463
   63MOL   H14016384   4.542   5.740   2.798  0.4125 -0.4309 -0.0358
   63MOL   H14116385   4.383   5.772   2.844 -0.1108  0.6212 -2.4847
   63MOL   H14216386   4.418   5.621   2.749 -0.9116 -0.9636  1.5253
   63MOL   H14316387   4.284   5.589   2.977 -1.8770 -1.0858  1.3846
   63MOL   H14416388   4.362   5.535   3.120 -0.9444 -0.5525  0.4139
   63MOL   C14516389   4.358   5.391   2.952 -0.4106  0.5961 -0.5179
   63MOL   C14616390   4.253   5.301   3.013 -0.5609 -0.7498  0.0341
   63MOL   C14716391   4.135   5.280   2.955  0.2015  0.5033  0.2868
   63MOL   C14816392   4.028   5.192   3.009 -0.3695  0.0007  0.4418
   63MOL   C14916393   4.091   5.350   2.826 -0.1505 -0.3814  0.4407
   63MOL   H15016394   4.452   5.342   2.975 -1.1544 -0.6763 -0.1264
   63MOL   H15116395   4.348   5.373   2.845  1.1962 -0.5709 -0.4842
   63MOL   H15216396   4.289   5.251   3.101 -1.0970  0.1888  0.7984
   63MOL   H15316397   4.010   5.093   2.966 -1.3858  0.2085  0.3797
   63MOL   H15416398   3.940   5.254   3.024  0.0601  1.4638 -2.8656
   63MOL   H15516399   4.064   5.181   3.112  2.1561  0.4576 -0.3650
   63MOL   H15616400   4.144   5.443   2.809 -1.8143  0.4412 -0.4303
   63MOL   H15716401   3.992   5.395   2.834 -0.4937 -0.8505 -0.9618
   63MOL   C15816402   4.087   5.254   2.702  0.8233 -0.1337 -0.2135
   63MOL   C15916403   4.228   5.219   2.667  0.0701 -0.1217 -0.1806
   63MOL   C16016404   4.307   5.284   2.576  0.1665 -0.3773 -0.6319
   63MOL   C16116405   4.275   5.413   2.497  0.4056  0.3868  0.0884
   63MOL   C16216406   4.451   5.235   2.549  0.0013 -0.4515 -1.1023
   63MOL   H16316407   4.054   5.308   2.613  2.4875 -0.6564 -1.1622
   63MOL   H16416408   4.010   5.177   2.702  0.0781  0.5331  2.4948
   63MOL   H16516409   4.275   5.140   2.723 -0.8377 -0.5777 -0.0470
   63MOL   H16616410   4.343   5.410   2.412  2.0483  1.3155  1.3495
   63MOL   H16716411   4.310   5.494   2.561  2.1520 -0.0573 -0.2685
   63MOL   H16816412   4.173   5.418   2.459  0.7206 -0.3547 -0.8663
   63MOL   H16916413   4.476   5.232   2.443 -1.0793 -0.9561 -1.3447
   63MOL   H17016414   4.468   5.134   2.586 -1.1396 -0.0718  0.5264
   63MOL   C17116415   4.558   5.315   2.628 -0.4358  0.2615 -0.0707
   63MOL   C17216416   4.694   5.249   2.642 -0.5288 -0.3774  0.2052
   63MOL   C17316417   4.784   5.263   2.741  0.2323 -0.5685 -0.2857
   63MOL   C17416418   4.755   5.351   2.859  0.0046 -0.2065  0.2146
   63MOL   C17516419   4.920   5.200   2.750 -0.0254  0.1734  0.4392
   63MOL   H17616420   4.517   5.347   2.723 -3.2706  0.5481 -1.3532
   63MOL   H17716421   4.558   5.415   2.586  2.6273 -0.3704 -1.7085
   63MOL   H17816422   4.720   5.188   2.557 -3.9686 -0.3863 -0.9018
   63MOL   H17916423   4.655   5.394   2.863 -0.1432 -0.5395  0.0781
   63MOL   H18016424   4.814   5.442   2.846 -0.9922  0.4057 -0.1274
   63MOL   H18116425   4.775   5.298   2.951 -1.9799 -0.5949  0.4324
   63MOL   H18216426   4.986   5.252   2.820  0.9291 -2.6923  1.7564
   63MOL   H18316427   4.969   5.209   2.653 -1.7426 -0.8576 -0.5500
   63MOL   C18416428   4.914   5.048   2.788 -0.2165 -0.1953  0.8139
   63MOL   C18516429   5.036   4.984   2.845 -0.5885  0.1976  0.5313
   63MOL   C18616430   5.119   4.887   2.795 -0.4681 -0.2561 -0.0589
   63MOL   C18716431   5.227   4.834   2.886  0.3125 -0.1072 -0.0487
   63MOL   C18816432   5.122   4.835   2.646  0.0880 -0.1189 -0.0747
   63MOL   H18916433   4.893   4.990   2.698 -0.5994  2.1866 -0.6773
   63MOL   H19016434   4.829   5.039   2.856 -1.0274  0.4657 -0.1164
   63MOL   H19116435   5.047   4.993   2.952  0.8342 -2.9507  0.7118
   63MOL   H19216436   5.247   4.727   2.875 -0.5139 -0.2370 -0.3359
   63MOL   H19316437   5.213   4.853   2.992  1.8016  0.1781  0.1049
   63MOL   H19416438   5.319   4.883   2.854 -0.9011  1.7734 -0.7809
   63MOL   H19516439   5.222   4.837   2.603  0.4024 -0.4665  0.6273
   63MOL   H19616440   5.073   4.913   2.588  0.9346 -0.5664 -1.3994
   63MOL   C19716441   5.031   4.710   2.626 -0.1761 -0.3186 -0.6413
   63MOL   C19816442   5.108   4.582   2.627 -0.0919  0.4878  0.3072
   63MOL   C19916443   5.049   4.459   2.629 -0.1535  0.5628 -0.3555
   63MOL   C20016444   5.135   4.334   2.645  0.2011  0.4356 -0.2528
   63MOL   C20116445   4.899   4.431   2.617 -0.5050 -0.2757 -0.5635
   63MOL   H20216446   4.982   4.714   2.528 -1.1697  0.5551 -0.1113
   63MOL   H20316447   4.944   4.709   2.691 -1.1411  0.1526 -1.9123
   63MOL   H20416448   5.215   4.593   2.622 -0.3214  3.3004  0.9333
   63MOL   H20516449   5.238   4.369   2.656 -0.2302  1.3067  1.2509
   63MOL   H20616450   5.119   4.263   2.564  2.2949 -0.7553  0.3699
   63MOL   H20716451   5.103   4.289   2.739 -0.0703  0.0088 -0.5468
   63MOL   H20816452   4.892   4.374   2.525 -2.0248  2.4179 -2.1740
   63MOL   H20916453   4.847   4.524   2.596 -2.0732 -2.0299 -4.7996
   63MOL   C21016454   4.838   4.376   2.740 -0.3633 -0.0038  0.1552
   63MOL   C21116455   4.700   4.310   2.708  0.7463  0.2747 -0.6560
   63MOL   C21216456   4.592   4.290   2.788  0.1959 -0.1330  0.0114
   63MOL   C21316457   4.463   4.219   2.744 -0.2029 -0.0183  0.3314
   63MOL   C21416458   4.598   4.313   2.937 -0.6302  0.2095  0.5675
   63MOL   H21516459   4.826   4.454   2.815 -3.1703  0.4630 -0.6871
   63MOL   H21616460   4.903   4.301   2.784 -0.7300  0.5607  1.6954
   63MOL   H21716461   4.694   4.274   2.607 -1.8412  2.8679 -1.4753
   63MOL   H21816462   4.381   4.291   2.741 -1.0947 -0.9433  1.8872
   63MOL   H21916463   4.437   4.131   2.803 -0.1018  0.4657  1.1050
   63MOL   H22016464   4.474   4.186   2.641 -1.4932  2.2319 -0.5695
   63MOL   H22116465   4.685   4.378   2.944  0.2283 -0.9625  1.0813
   63MOL   H22216466   4.615   4.217   2.986  0.3420  0.9197  1.6522
   63MOL   C22316467   4.472   4.388   2.999  0.6552 -0.3604 -0.4184
   63MOL   C22416468   4.494   4.435   3.140  0.1243 -0.1144  0.3022
   63MOL   C22516469   4.420   4.523   3.198  0.2317 -0.7265 -0.0923
   63MOL   C22616470   4.462   4.591   3.332 -0.9030 -0.3496 -0.2442
   63MOL   C22716471   4.297   4.582   3.130 -0.3061 -0.2268  0.3946
   63MOL   H22816472   4.384   4.323   3.002  0.6286 -0.2879  0.6334
   63MOL   H22916473   4.433   4.465   2.933  0.4644 -0.1555 -0.0696
   63MOL   H23016474   4.574   4.400   3.203 -0.2422 -1.9471 -0.2147
   63MOL   H23116475   4.490   4.510   3.399 -0.5548 -1.2164 -1.4147
   63MOL   H23216476   4.380   4.656   3.364  0.3123  1.6644 -1.1162
   63MOL   H23316477   4.553   4.646   3.310 -0.4806 -1.3929 -1.1630
   63MOL   H23416478   4.220   4.581   3.207 -2.1133 -0.4183 -1.3749
   63MOL   H23516479   4.247   4.520   3.055 -0.6144 -0.1866  0.5700
   63MOL   C23616480   4.325   4.719   3.071 -0.0781 -1.0434  0.2297
   63MOL   C23716481   4.206   4.759   2.986  0.2840 -0.1498 -0.2907
   63MOL   C23816482   4.204   4.783   2.850  0.4737 -0.5799  0.5066
   63MOL   C23916483   4.074   4.830   2.779 -0.0988  0.0663 -0.5042
   63MOL   C24016484   4.323   4.785   2.756 -0.3153  0.1366  0.1049
   63MOL   H24116485   4.422   4.721   3.022  0.2365 -0.7961  0.8588
   63MOL   H24216486   4.324   4.796   3.148 -1.5174 -0.0760 -0.7315
   63MOL   H24316487   4.114   4.769   3.041  0.8869 -0.1702  0.7237
   63MOL   H24416488   3.987   4.843   2.843 -0.3234 -1.0509 -0.5763
   63MOL   H24516489   4.049   4.776   2.688  0.9742  1.4101 -1.6214
   63MOL   H24616490   4.112   4.927   2.747 -1.1325  0.7828  0.3967
   63MOL   H24716491   4.417   4.771   2.809 -1.2990  2.0532  2.4412
   63MOL   H24816492   4.318   4.884   2.710  1.8998 -0.3136 -1.1555
   63MOL   C24916493   4.319   4.670   2.655 -0.1665 -0.2633 -0.6398
   63MOL   C25016494   4.437   4.670   2.560 -0.4031 -0.2565  0.0079
   63MOL   C25116495   4.443   4.645   2.430  0.9600  0.1866  0.6614
   63MOL   C25216496   4.574   4.657   2.353  0.2361 -0.3236 -0.1981
   63MOL   C25316497   4.324   4.619   2.343  0.1594 -0.0942  0.6743
   63MOL   H25416498   4.234   4.673   2.588  0.2405 -2.8457 -1.3130
   63MOL   H25516499   4.316   4.577   2.712  0.5667  1.1370  1.8100
   63MOL   H25616500   4.533   4.684   2.606 -0.2414  2.3196 -1.0141
   63MOL   H25716501   4.609   4.572   2.295 -0.5341 -1.3710  0.8473
   63MOL   H25816502   4.655   4.663   2.425 -0.2066  1.9259  0.1404
   63MOL   H25916503   4.580   4.746   2.291  0.2738  0.7427  1.3042
   63MOL   H26016504   4.361   4.609   2.241  0.6193 -0.0362  0.8343
   63MOL   H26116505   4.239   4.682   2.366 -0.2131 -0.3007 -0.1194
   63MOL   H26216506   4.289   4.525   2.387  1.1985 -0.6750  0.2940
   64MOL     C116507   5.477   6.749   1.613  0.2652 -0.4448 -0.0361
   64MOL     C216508   5.599   6.801   1.544  0.8342 -0.0169  0.2886
   64MOL     C316509   5.655   6.749   1.432 -0.7781  0.9116 -0.5556
   64MOL     C416510   5.778   6.813   1.362 -0.3019  0.6841  0.2964
   64MOL     C516511   5.623   6.613   1.360  0.6776  0.6328  0.0250
   64MOL     H616512   5.390   6.812   1.593  3.0378  3.1582 -1.2426
   64MOL     H716513   5.457   6.644   1.594 -2.2527 -0.0923  0.4314
   64MOL     H816514   5.647   6.892   1.579  0.7605 -0.2427  0.9759
   64MOL     H916515   5.872   6.759   1.354 -0.3296  0.2965  2.4017
   64MOL    H1016516   5.806   6.903   1.415  1.6617  0.2387  0.0350
   64MOL    H1116517   5.748   6.847   1.263 -2.1052  1.3041  1.0433
   64MOL    H1216518   5.639   6.625   1.253  0.1092 -1.8986 -0.3744
   64MOL    H1316519   5.523   6.577   1.384  0.1813  1.4995 -0.7008
   64MOL    H1416520   5.505   6.749   1.719  0.1445 -1.6696 -0.0011
   64MOL    C1516521   5.730   6.507   1.393 -0.0048  0.2857  0.5543
   64MOL    C1616522   5.702   6.367   1.344 -0.3562  0.8146  0.0380
   64MOL    C1716523   5.651   6.269   1.418  0.7304  0.0851 -0.8795
   64MOL    C1816524   5.618   6.131   1.366 -0.4480  0.2702  0.6012
   64MOL    C1916525   5.620   6.270   1.567 -0.4308 -0.3741 -0.2917
   64MOL    H2016526   5.746   6.514   1.501 -2.7329 -0.1633  1.0215
   64MOL    H2116527   5.830   6.538   1.361  0.2287 -0.5808  0.4304
   64MOL    H2216528   5.726   6.349   1.240  0.4270 -1.0090  0.5229
   64MOL    H2316529   5.682   6.052   1.406  0.3531  1.5329  1.8791
   64MOL    H2416530   5.611   6.142   1.258  1.5353  0.5780  0.4930
   64MOL    H2516531   5.520   6.089   1.389 -0.4489  0.1444  0.3625
   64MOL    H2616532   5.656   6.359   1.618  1.0873 -0.6631 -0.8322
   64MOL    H2716533   5.667   6.178   1.603 -1.0982 -1.4080 -1.9794
   64MOL    C2816534   5.467   6.275   1.591 -0.6413  0.4187 -0.7080
   64MOL    C2916535   5.434   6.265   1.745 -0.3565 -0.2808  0.7456
   64MOL    C3016536   5.331   6.203   1.810  0.1569 -0.0934 -0.0537
   64MOL    C3116537   5.307   6.216   1.960 -0.4661 -0.5628  0.1134
   64MOL    C3216538   5.235   6.107   1.742 -0.4448  0.2997  0.4073
   64MOL    H3316539   5.416   6.194   1.538 -0.1568 -0.8109  0.6567
   64MOL    H3416540   5.435   6.369   1.547 -1.8608  0.6687  0.6587
   64MOL    H3516541   5.490   6.342   1.795 -0.6358  1.0832 -1.0040
   64MOL    H3616542   5.205   6.234   1.994 -0.4190 -0.7805  0.3693
   64MOL    H3716543   5.378   6.286   2.002  0.3027 -1.1920 -0.1199
   64MOL    H3816544   5.320   6.120   2.011  0.6753  0.7169  2.2490
   64MOL    H3916545   5.178   6.048   1.814 -0.8420 -1.1723 -1.0978
   64MOL    H4016546   5.294   6.038   1.681 -3.2855 -1.8383  0.0094
   64MOL    C4116547   5.136   6.177   1.655  0.0778  0.7442 -0.2268
   64MOL    C4216548   5.090   6.080   1.552  0.0766  0.2902  0.3065
   64MOL    C4316549   4.969   6.017   1.547 -0.0532  0.0041  0.4772
   64MOL    C4416550   4.947   5.917   1.425  0.2395 -0.0537 -0.2698
   64MOL    C4516551   4.857   6.039   1.651 -0.6994 -0.3938  0.7019
   64MOL    H4616552   5.171   6.263   1.599  3.3400 -0.6151 -0.3753
   64MOL    H4716553   5.056   6.214   1.719  0.3477  1.2410 -0.1763
   64MOL    H4816554   5.151   6.054   1.467 -1.5636 -0.1265 -0.7752
   64MOL    H4916555   4.849   5.948   1.388  1.0946  2.5128 -0.5121
   64MOL    H5016556   4.953   5.813   1.455  1.0948  0.3919  1.2019
   64MOL    H5116557   5.011   5.937   1.339  0.8587  0.2659  0.2613
   64MOL    H5216558   4.769   6.007   1.595 -1.2944  0.6620  1.0365
   64MOL    H5316559   4.845   6.141   1.688 -1.5813  0.7817 -2.7060
   64MOL    C5416560   4.884   5.952   1.784 -0.1478 -0.1499 -0.3770
   64MOL    C5516561   4.756   5.919   1.863  0.3959 -0.1407 -0.2572
   64MOL    C5616562   4.722   5.958   1.988 -0.1766  0.0287 -0.4725
   64MOL    C5716563   4.583   5.928   2.050 -0.4771 -1.0227 -0.3799
   64MOL    C5816564   4.817   6.043   2.083  0.1126 -0.4000  0.1875
   64MOL    H5916565   4.951   6.012   1.846 -0.3555 -1.0571  0.7521
   64MOL    H6016566   4.929   5.857   1.755  0.9495  0.1462  0.3404
   64MOL    H6116567   4.679   5.879   1.799 -0.0763  0.1793  0.1183
   64MOL    H6216568   4.544   6.024   2.084  0.2748 -1.6084  2.2440
   64MOL    H6316569   4.588   5.879   2.148 -0.7406  0.4970  0.4108
   64MOL    H6416570   4.513   5.875   1.985 -1.7519  0.0958  0.0620
   64MOL    H6516571   4.759   6.121   2.133  2.7242  1.7210  0.0270
   64MOL    H6616572   4.884   6.094   2.015  0.7879 -0.0572  1.0885
   64MOL    C6716573   4.920   5.958   2.169  1.3701 -0.4679  0.5476
   64MOL    C6816574   5.023   6.053   2.211  0.1720  0.1725  0.2668
   64MOL    C6916575   5.020   6.162   2.294  1.1744  0.2761  0.0598
   64MOL    C7016576   5.149   6.246   2.308 -0.7091  0.3037 -0.5294
   64MOL    C7116577   4.902   6.198   2.379  0.4620 -0.3545  1.3598
   64MOL    H7216578   4.960   5.873   2.115  1.7512  2.0339 -3.3111
   64MOL    H7316579   4.860   5.913   2.248  1.6614 -1.5088  0.1805
   64MOL    H7416580   5.114   6.041   2.155  0.1951 -0.1368  0.3709
   64MOL    H7516581   5.177   6.295   2.215 -0.8180 -0.0505 -0.7492
   64MOL    H7616582   5.231   6.180   2.336 -0.3493  1.5264  1.3946
   64MOL    H7716583   5.144   6.313   2.394  1.3461  0.8828 -0.8315
   64MOL    H7816584   4.924   6.177   2.484  1.8080  0.0681  1.1634
   64MOL    H7916585   4.834   6.115   2.360  1.0806 -0.6829  0.5396
   64MOL    C8016586   4.841   6.332   2.355 -0.3991  0.0880 -0.7650
   64MOL    C8116587   4.703   6.330   2.411  0.4384 -0.5522  0.1081
   64MOL    C8216588   4.583   6.361   2.354  0.1212 -0.0685 -0.8689
   64MOL    C8316589   4.574   6.403   2.212  0.1053 -0.0430  0.0196
   64MOL    C8416590   4.456   6.365   2.441  0.8872  0.6000 -0.3711
   64MOL    H8516591   4.833   6.353   2.248 -0.5441 -1.2840 -1.0338
   64MOL    H8616592   4.902   6.410   2.400 -1.2787  0.7439 -0.6931
   64MOL    H8716593   4.694   6.282   2.508  0.4592 -3.3245 -1.2250
   64MOL    H8816594   4.628   6.331   2.149  0.3415 -2.0435  2.4052
   64MOL    H8916595   4.621   6.501   2.213 -0.5912  0.2835  1.2751
   64MOL    H9016596   4.472   6.407   2.173 -0.1617 -0.0267  0.7290
   64MOL    H9116597   4.474   6.333   2.544  1.2851  0.3305 -0.5250
   64MOL    H9216598   4.376   6.301   2.404  1.9416 -0.6534 -0.5138
   64MOL    C9316599   4.399   6.508   2.442 -0.2714  0.3794 -0.6224
   64MOL    C9416600   4.271   6.518   2.525 -0.5503 -0.4805  0.4881
   64MOL    C9516601   4.214   6.629   2.573  0.9513 -0.5558 -0.5548
   64MOL    C9616602   4.077   6.630   2.640 -0.1753 -1.0163  0.4533
   64MOL    C9716603   4.265   6.776   2.549  0.1040 -0.1634  0.2698
   64MOL    H9816604   4.370   6.552   2.347  1.8597 -1.2809 -2.0878
   64MOL    H9916605   4.459   6.587   2.488  1.2754 -1.2977  0.3187
   64MOL   H10016606   4.224   6.425   2.553 -0.0329 -0.4861  1.3339
   64MOL   H10116607   4.069   6.663   2.744 -1.7209  1.0713 -0.3045
   64MOL   H10216608   4.009   6.691   2.581  0.6285 -2.0166 -1.5580
   64MOL   H10316609   4.031   6.532   2.635 -1.7601 -0.3143  0.8973
   64MOL   H10416610   4.184   6.845   2.524 -0.1305  0.0211  1.5021
   64MOL   H10516611   4.338   6.765   2.470 -0.6201  2.8118 -0.8483
   64MOL   C10616612   4.326   6.843   2.667 -0.8444 -0.1421  0.1167
   64MOL   C10716613   4.373   6.983   2.624 -0.4859 -0.3753  0.4790
   64MOL   C10816614   4.325   7.107   2.648  0.1966 -0.2235  0.6018
   64MOL   C10916615   4.212   7.133   2.746  0.3108  0.1018  0.4826
   64MOL   C11016616   4.386   7.237   2.592 -0.4568  0.0183 -0.7871
   64MOL   H11116617   4.412   6.783   2.696  1.3867  2.9942  0.3094
   64MOL   H11216618   4.262   6.841   2.755 -2.4454  0.3898 -1.0175
   64MOL   H11316619   4.457   6.981   2.556 -2.7469  1.5764 -2.4800
   64MOL   H11416620   4.247   7.196   2.828 -1.6322 -0.4236  1.7661
   64MOL   H11516621   4.140   7.197   2.695  1.3341 -0.3856 -1.5903
   64MOL   H11616622   4.162   7.042   2.779 -2.7109  2.4656  2.8471
   64MOL   H11716623   4.495   7.241   2.590 -0.4060 -0.2989  0.9884
   64MOL   H11816624   4.374   7.310   2.672  1.4759 -1.9089  1.3199
   64MOL   C11916625   4.312   7.284   2.456  0.4532 -0.8165 -0.0289
   64MOL   C12016626   4.321   7.436   2.424 -0.0753 -0.4784 -0.1211
   64MOL   C12116627   4.219   7.524   2.434  0.0071 -0.3141  0.1946
   64MOL   C12216628   4.234   7.668   2.385 -1.0426  0.5834  0.6941
   64MOL   C12316629   4.083   7.499   2.493  0.7238  0.2295 -0.3174
   64MOL   H12416630   4.205   7.266   2.463  0.2568  0.1712 -0.3820
   64MOL   H12516631   4.355   7.226   2.375  2.7372 -2.9357  2.5839
   64MOL   H12616632   4.412   7.481   2.389 -0.3003  0.0165 -0.0748
   64MOL   H12716633   4.223   7.735   2.471 -2.1096  1.2133  0.0814
   64MOL   H12816634   4.155   7.692   2.314 -0.7417  3.7857  1.3377
   64MOL   H12916635   4.332   7.681   2.339 -0.8359  1.2822  1.3100
   64MOL   H13016636   4.048   7.588   2.544  2.5260  1.5377 -1.3053
   64MOL   H13116637   4.083   7.430   2.577 -2.6965  0.2700 -0.2155
   64MOL   C13216638   3.984   7.446   2.386 -0.4917  0.0468  0.0718
   64MOL   C13316639   3.845   7.431   2.449  0.1155 -0.1691 -0.3220
   64MOL   C13416640   3.754   7.536   2.458  0.4184  0.8006 -0.5712
   64MOL   C13516641   3.627   7.526   2.540  0.1402 -0.0235 -0.2191
   64MOL   C13616642   3.780   7.674   2.398 -0.5741  0.2061  0.3511
   64MOL   H13716643   4.011   7.355   2.332 -0.6672  0.4253 -0.6603
   64MOL   H13816644   3.975   7.518   2.305 -0.0141 -0.5292 -0.4946
   64MOL   H13916645   3.830   7.337   2.498  1.5323  0.1385  0.7389
   64MOL   H14016646   3.632   7.590   2.628  1.2810 -1.5523  0.8526
   64MOL   H14116647   3.615   7.421   2.564 -0.9029  0.2616  0.5515
   64MOL   H14216648   3.538   7.565   2.489 -0.9544 -0.0855  1.5787
   64MOL   H14316649   3.886   7.696   2.388 -1.1066  1.6505 -2.5259
   64MOL   H14416650   3.751   7.740   2.480 -0.2587 -1.9093  2.2453
   64MOL   C14516651   3.701   7.703   2.266  0.2519 -0.1522  0.0615
   64MOL   C14616652   3.705   7.848   2.219 -0.8360  0.0501 -0.4751
   64MOL   C14716653   3.735   0.017   2.097 -0.3033  0.5701  0.6199
   64MOL   C14816654   3.719   0.163   2.058 -0.4972 -0.2659 -0.1899
   64MOL   C14916655   3.810   7.819   1.991  0.0134 -0.6880  0.0902
   64MOL   H15016656   3.597   7.680   2.287  0.6532 -0.7457  1.4421
   64MOL   H15116657   3.729   7.631   2.189 -0.0917  0.0938 -0.2946
   64MOL   H15216658   3.651   0.037   2.283  0.2483  1.8809 -1.4299
   64MOL   H15316659   3.818   0.207   2.049 -1.7345  3.2746  2.4724
   64MOL   H15416660   3.658   0.214   2.132  0.3885 -2.1896  1.9330
   64MOL   H15516661   3.669   0.157   1.961 -0.9955  0.0207  0.0463
   64MOL   H15616662   3.880   7.745   2.028 -0.1881 -1.7204 -1.5492
   64MOL   H15716663   3.866   0.011   1.931  0.7439 -2.3275 -1.2136
   64MOL   C15816664   3.712   7.747   1.900  0.5244 -0.3203 -0.1635
   64MOL   C15916665   3.794   7.639   1.831 -0.3309  0.5078  0.1253
   64MOL   C16016666   3.821   7.633   1.701 -0.3315 -0.1428  0.2938
   64MOL   C16116667   3.797   7.756   1.622  0.0383  0.1515  0.2011
   64MOL   C16216668   3.891   7.514   1.630  0.5043 -0.0879 -0.2140
   64MOL   H16316669   3.643   7.810   1.843 -1.7680 -1.9418  0.7253
   64MOL   H16416670   3.640   7.696   1.964 -1.6966  1.7766 -0.8880
   64MOL   H16516671   3.824   7.559   1.897  1.1432  0.8650 -0.1081
   64MOL   H16616672   3.811   7.851   1.674 -0.1561  1.0950 -1.4444
   64MOL   H16716673   3.696   7.748   1.584 -0.4248  0.2115  1.4049
   64MOL   H16816674   3.868   7.751   1.539  0.9550  3.9067  0.6860
   64MOL   H16916675   3.915   7.440   1.706  0.1034  2.8534  2.9264
   64MOL   H17016676   3.985   7.550   1.590  1.2414 -2.2701 -0.5046
   64MOL   C17116677   3.804   7.448   1.529  0.6262  0.2456 -0.1858
   64MOL   C17216678   3.858   7.314   1.491  0.6177 -0.2166  0.4258
   64MOL   C17316679   3.874   7.258   1.368  0.0779  0.3180 -0.6220
   64MOL   C17416680   3.841   7.327   1.230 -0.1762 -0.5879  0.8555
   64MOL   C17516681   3.927   7.117   1.340 -0.1603 -0.0171  0.5260
   64MOL   H17616682   3.798   7.515   1.443 -1.2343  0.6265  0.2365
   64MOL   H17716683   3.707   7.435   1.575 -0.4845  2.6560 -1.7561
   64MOL   H17816684   3.884   7.255   1.578 -0.1097  0.9413  1.4532
   64MOL   H17916685   3.806   7.429   1.247  1.8631  0.1758  0.6288
   64MOL   H18016686   3.783   7.270   1.157 -1.9778  0.5303  1.3875
   64MOL   H18116687   3.940   7.336   1.186 -0.5624 -1.1248 -0.1284
   64MOL   H18216688   3.987   7.111   1.250 -1.1947 -0.0695 -0.1667
   64MOL   H18316689   3.837   7.060   1.316  1.5543 -2.1636 -0.9625
   64MOL   C18416690   4.017   7.052   1.456 -0.0801 -0.0645 -0.4076
   64MOL   C18516691   4.061   6.903   1.439 -0.2329 -0.0569  0.1174
   64MOL   C18616692   4.136   6.839   1.528  0.8430 -0.2614  0.6152
   64MOL   C18716693   4.184   6.698   1.510 -0.4237  0.0140 -0.8064
   64MOL   C18816694   4.206   6.903   1.651  0.0894 -0.1241  0.6410
   64MOL   H18916695   3.973   7.059   1.556 -1.2948  2.6382 -1.0741
   64MOL   H19016696   4.100   7.121   1.473 -0.1966 -0.1863  0.7076
   64MOL   H19116697   4.027   6.855   1.348 -0.6069 -1.4034  0.9658
   64MOL   H19216698   4.183   6.646   1.606  0.0131  2.1311  0.3779
   64MOL   H19316699   4.285   6.694   1.469 -0.1332 -1.1275  0.0045
   64MOL   H19416700   4.126   6.642   1.437  0.3713 -1.0614 -0.6203
   64MOL   H19516701   4.169   6.847   1.737 -0.2891  0.5536  0.9192
   64MOL   H19616702   4.180   7.006   1.673  1.3054  0.1710  0.7096
   64MOL   C19716703   4.358   6.910   1.640 -0.0640 -0.1209 -0.0852
   64MOL   C19816704   4.387   7.008   1.530  0.0415 -0.3218  0.6228
   64MOL   C19916705   4.428   7.136   1.535 -0.6315  1.0479  0.1210
   64MOL   C20016706   4.456   7.207   1.408  0.1059  0.5063 -0.1103
   64MOL   C20116707   4.466   7.203   1.664  0.0943 -0.0262 -0.3981
   64MOL   H20216708   4.404   6.812   1.630 -1.1636 -0.5580 -1.0646
   64MOL   H20316709   4.404   6.946   1.732  0.9203  0.7877 -0.9349
   64MOL   H20416710   4.361   6.969   1.433  0.5961  1.7491 -0.3731
   64MOL   H20516711   4.396   7.297   1.418 -1.7172 -0.7967  1.1176
   64MOL   H20616712   4.432   7.151   1.318 -0.4936  0.3838  0.1285
   64MOL   H20716713   4.563   7.231   1.409  0.5081 -1.0333 -2.3354
   64MOL   H20816714   4.575   7.203   1.673  0.1654 -1.1678 -1.0841
   64MOL   H20916715   4.453   7.143   1.754  0.7148  0.0156 -0.2747
   64MOL   C21016716   4.399   7.340   1.681 -0.9471  0.2123 -0.0675
   64MOL   C21116717   4.443   7.411   1.816 -0.0339 -0.4878 -0.5894
   64MOL   C21216718   4.363   7.445   1.923  0.5459  0.0415 -0.4323
   64MOL   C21316719   4.418   7.508   2.050  0.1942  0.4332 -0.2558
   64MOL   C21416720   4.213   7.397   1.928  0.0424 -0.2208  0.0073
   64MOL   H21516721   4.293   7.317   1.685 -0.7699 -0.3986  3.8508
   64MOL   H21616722   4.427   7.416   1.608 -0.8991  0.0480 -0.2211
   64MOL   H21716723   4.548   7.430   1.833  0.0570 -2.1745  0.8328
   64MOL   H21816724   4.347   7.584   2.082 -1.0889 -1.3904  1.2995
   64MOL   H21916725   4.510   7.563   2.027  0.2927  0.5246  0.3490
   64MOL   H22016726   4.444   7.436   2.127 -0.2280  1.4347  0.8422
   64MOL   H22116727   4.178   7.426   1.829 -1.2819  0.1488  0.5646
   64MOL   H22216728   4.157   7.462   1.996 -1.6411  1.2273 -2.6727
   64MOL   C22316729   4.186   7.242   1.950 -0.4667  0.1626  0.4257
   64MOL   C22416730   4.148   7.190   2.083  0.1131  0.3292  0.1260
   64MOL   C22516731   4.160   7.065   2.131 -1.2789 -0.0856 -0.1398
   64MOL   C22616732   4.123   7.042   2.271  0.0699 -0.2919 -0.1051
   64MOL   C22716733   4.224   6.946   2.049  0.0960 -0.2130 -0.6410
   64MOL   H22816734   4.258   7.181   1.894  0.5484  0.3934  1.4607
   64MOL   H22916735   4.100   7.222   1.887  1.2616 -1.0287 -1.6439
   64MOL   H23016736   4.128   7.270   2.153  4.0163  2.2644 -0.8049
   64MOL   H23116737   4.098   7.129   2.332  1.5627  0.7173 -0.8955
   64MOL   H23216738   4.208   7.006   2.330 -0.6034 -4.2429 -1.3921
   64MOL   H23316739   4.045   6.966   2.281  1.7870 -2.0852 -0.0125
   64MOL   H23416740   4.247   6.976   1.947 -2.0460 -1.5552 -1.5509
   64MOL   H23516741   4.164   6.855   2.048  2.4427 -1.8404  0.7375
   64MOL   C23616742   4.361   6.905   2.110  0.4777  0.7921  0.0430
   64MOL   C23716743   4.461   6.885   1.994 -0.9299 -0.7220 -0.1991
   64MOL   C23816744   4.507   6.765   1.948 -0.5798 -0.3858 -0.3729
   64MOL   C23916745   4.598   6.738   1.835  0.1234  0.0956 -0.1076
   64MOL   C24016746   4.454   6.638   2.012 -0.0854  0.1339 -0.1265
   64MOL   H24116747   4.358   6.820   2.177  1.2766 -0.6226 -1.6650
   64MOL   H24216748   4.409   6.981   2.172  1.4251  1.1216 -1.0532
   64MOL   H24316749   4.498   6.972   1.942  0.0388 -1.7687 -1.3079
   64MOL   H24416750   4.531   6.713   1.752  0.3001 -2.8438  0.5788
   64MOL   H24516751   4.672   6.660   1.852  0.8276  0.1184 -2.7330
   64MOL   H24616752   4.648   6.831   1.808 -2.4139  1.8827  1.1338
   64MOL   H24716753   4.441   6.649   2.120 -1.2531 -2.5086  0.0325
   64MOL   H24816754   4.530   6.561   2.004 -1.1655 -1.0902  1.0504
   64MOL   C24916755   4.322   6.591   1.948 -0.7356  0.2332 -0.2844
   64MOL   C25016756   4.271   6.464   2.017  0.3019  0.3961 -0.3708
   64MOL   C25116757   4.294   6.340   1.972 -0.8615 -1.3250 -0.1530
   64MOL   C25216758   4.244   6.224   2.056  0.4873 -0.4319 -0.0578
   64MOL   C25316759   4.380   6.304   1.850  0.4040  1.1013 -0.0481
   64MOL   H25416760   4.325   6.576   1.840 -1.0978  0.4454 -0.3253
   64MOL   H25516761   4.246   6.667   1.966  0.9014  1.6337  0.8971
   64MOL   H25616762   4.220   6.485   2.110 -0.4604  1.5561 -1.0358
   64MOL   H25716763   4.340   6.174   2.063  0.6604 -0.1171 -0.1671
   64MOL   H25816764   4.174   6.154   2.011  1.2467 -0.5941 -1.0016
   64MOL   H25916765   4.208   6.258   2.153  1.1853  0.5130 -0.1172
   64MOL   H26016766   4.470   6.253   1.885  1.2029  1.8975 -0.9135
   64MOL   H26116767   4.410   6.385   1.784 -0.2157 -0.2346 -2.0206
   64MOL   H26216768   4.311   6.244   1.790 -0.1913 -1.3345  2.9365
   65MOL     C116769   6.800   1.199   3.001 -0.4966  0.5910  0.1931
   65MOL     C216770   6.940   1.255   3.029 -1.2582 -0.4791 -0.1723
   65MOL     C316771   7.054   1.204   2.973  0.5234 -0.1863  0.4152
   65MOL     C416772   7.197   1.266   2.989  0.4841 -0.1973 -0.5100
   65MOL     C516773   7.054   1.093   2.871 -0.2597 -0.4321  0.0679
   65MOL     H616774   6.743   1.182   3.093  1.4744 -0.4798  1.2469
   65MOL     H716775   6.744   1.270   2.940 -0.9407 -0.7704 -0.9985
   65MOL     H816776   6.942   1.351   3.078  0.5909 -1.0032  0.8101
   65MOL     H916777   7.219   1.312   3.085  0.5039 -2.7138  0.7302
   65MOL    H1016778   7.220   1.355   2.931  3.8264  0.2934  1.4344
   65MOL    H1116779   7.277   1.193   2.979  3.1706  2.2154  2.4073
   65MOL    H1216780   6.971   1.024   2.884 -1.0421  0.1978 -1.5153
   65MOL    H1316781   7.143   1.035   2.897 -0.3793 -0.7033 -0.1306
   65MOL    H1416782   6.800   1.106   2.945 -0.6854  0.3828  0.5388
   65MOL    C1516783   7.051   1.153   2.735 -0.5485  0.5826  0.3973
   65MOL    C1616784   7.051   1.038   2.628  0.1524 -0.3009  0.5591
   65MOL    C1716785   6.974   1.037   2.512 -0.5165 -0.3322 -0.1020
   65MOL    C1816786   6.981   0.925   2.421 -0.8531  0.3106  0.2739
   65MOL    C1916787   6.873   1.144   2.477 -0.1309 -0.1324 -0.9440
   65MOL    H2016788   7.141   1.211   2.719 -0.2754  0.2897  0.8681
   65MOL    H2116789   6.973   1.228   2.727 -0.7305  0.3716  0.1386
   65MOL    H2216790   7.109   0.950   2.650  0.1009  0.3225  3.3503
   65MOL    H2316791   6.882   0.887   2.397 -1.1805  1.0105  0.5179
   65MOL    H2416792   7.042   0.843   2.460 -1.2169 -0.1435 -0.1035
   65MOL    H2516793   7.017   0.961   2.325  1.1509 -0.4906  0.6832
   65MOL    H2616794   6.875   1.155   2.369 -0.9717  0.2044 -0.9247
   65MOL    H2716795   6.910   1.241   2.511  1.2689 -1.1258  0.4219
   65MOL    C2816796   6.739   1.101   2.528 -0.8014 -0.3748 -0.7280
   65MOL    C2916797   6.628   1.213   2.539 -0.0606  0.0110 -0.0346
   65MOL    C3016798   6.529   1.224   2.629 -0.4236  0.1524 -0.2646
   65MOL    C3116799   6.434   1.340   2.623 -0.3251  0.0899  0.7104
   65MOL    C3216800   6.499   1.109   2.725 -0.2535  0.6593  0.0031
   65MOL    H3316801   6.760   1.039   2.615  0.8842 -2.6723 -2.7160
   65MOL    H3416802   6.701   1.021   2.464  0.4033 -1.7717  0.2733
   65MOL    H3516803   6.626   1.292   2.465 -1.1056  1.4630  1.4918
   65MOL    H3616804   6.458   1.420   2.552  0.8446 -0.4484  0.5029
   65MOL    H3716805   6.439   1.391   2.719  0.2959  1.4796 -0.0455
   65MOL    H3816806   6.332   1.309   2.598  0.2142  1.5362 -3.7928
   65MOL    H3916807   6.480   1.144   2.826  0.9977  0.5213  0.2946
   65MOL    H4016808   6.592   1.053   2.731 -0.7815 -0.2612 -0.2746
   65MOL    C4116809   6.380   1.024   2.669 -0.1097 -0.4651 -0.2742
   65MOL    C4216810   6.337   0.910   2.769  0.1480 -0.2855 -0.4435
   65MOL    C4316811   6.382   0.787   2.765 -0.1903 -0.1884  0.5786
   65MOL    C4416812   6.321   0.685   2.860  0.7028  0.3159  0.4928
   65MOL    C4516813   6.483   0.735   2.665 -0.5311  0.0110 -0.7970
   65MOL    H4616814   6.410   0.994   2.569 -1.1992 -0.1030 -0.7202
   65MOL    H4716815   6.286   1.078   2.653 -0.1100 -0.4412 -0.1907
   65MOL    H4816816   6.261   0.943   2.839 -1.5621  1.0481 -2.8548
   65MOL    H4916817   6.393   0.620   2.911  0.3615  0.4963  1.2146
   65MOL    H5016818   6.264   0.616   2.798 -0.1978  0.2855  1.3519
   65MOL    H5116819   6.251   0.728   2.932 -1.1455 -0.1524 -1.0075
   65MOL    H5216820   6.451   0.767   2.566 -1.6349  0.7792 -0.2035
   65MOL    H5316821   6.469   0.627   2.666 -0.0944 -0.0415  0.8873
   65MOL    C5416822   6.631   0.752   2.701 -0.2263 -0.4602  0.1759
   65MOL    C5516823   6.731   0.682   2.602  0.2441 -0.2799 -0.1893
   65MOL    C5616824   6.825   0.588   2.621  0.6428  0.0032 -0.2314
   65MOL    C5716825   6.916   0.542   2.508  0.2562 -0.7459 -0.1027
   65MOL    C5816826   6.843   0.502   2.751  0.2351 -0.2984 -0.3345
   65MOL    H5916827   6.643   0.718   2.804  0.4198 -1.3886 -0.1975
   65MOL    H6016828   6.651   0.859   2.700  0.3550 -0.5717 -0.4969
   65MOL    H6116829   6.732   0.734   2.507  1.8096  0.6506  0.3261
   65MOL    H6216830   6.905   0.610   2.423  2.0335  1.0890  1.1087
   65MOL    H6316831   6.889   0.441   2.476 -3.0713 -0.3949  1.3271
   65MOL    H6416832   7.022   0.540   2.531  0.1774  0.0146  0.3362
   65MOL    H6516833   6.824   0.398   2.723 -1.7679 -0.2623  0.7456
   65MOL    H6616834   6.760   0.522   2.819  1.7206  1.2425  1.0466
   65MOL    C6716835   6.980   0.526   2.812  0.2909 -0.1708  0.2573
   65MOL    C6816836   7.000   0.453   2.944  0.6691  0.0340  0.9371
   65MOL    C6916837   7.040   0.503   3.060 -0.6416 -0.1222  0.4713
   65MOL    C7016838   7.065   0.411   3.180 -0.7304  0.4612  0.1358
   65MOL    C7116839   7.087   0.644   3.088  0.1717 -0.4045  0.3144
   65MOL    H7216840   6.986   0.634   2.821 -2.2261 -0.0035  0.2706
   65MOL    H7316841   7.055   0.488   2.742  0.5556 -1.6750  1.3437
   65MOL    H7416842   6.965   0.352   2.950 -0.7061  0.5690  2.2758
   65MOL    H7516843   7.020   0.314   3.161  1.6228 -0.7839  0.7741
   65MOL    H7616844   7.033   0.448   3.278 -1.2352 -0.9124  0.5009
   65MOL    H7716845   7.173   0.394   3.183 -0.7730  0.2848  1.0439
   65MOL    H7816846   7.059   0.676   3.188  1.7433 -1.6420  1.1716
   65MOL    H7916847   7.026   0.711   3.028 -1.8783 -1.3209  1.3139
   65MOL    C8016848   7.233   0.666   3.058  0.0548  0.4172 -0.4132
   65MOL    C8116849   7.291   0.800   3.090  0.9616 -0.1193 -0.3605
   65MOL    C8216850   7.356   0.824   3.205 -0.8553  0.2051  0.2255
   65MOL    C8316851   7.394   0.714   3.302  0.2324  0.0752  0.0930
   65MOL    C8416852   7.401   0.966   3.239  0.1497  0.7038 -0.3793
   65MOL    H8516853   7.252   0.650   2.952 -0.6161  1.6337 -0.7332
   65MOL    H8616854   7.293   0.583   3.095 -1.6464 -1.4755 -1.8171
   65MOL    H8716855   7.268   0.880   3.021 -0.2619  0.5463  0.8120
   65MOL    H8816856   7.309   0.650   3.327  1.4687 -0.4523  3.1305
   65MOL    H8916857   7.443   0.756   3.390  0.0376 -1.1929  0.8133
   65MOL    H9016858   7.461   0.639   3.260 -0.3830 -0.9255  0.8907
   65MOL    H9116859   7.406   1.032   3.153  1.9071  0.4322 -0.4990
   65MOL    H9216860   7.505   0.969   3.273 -0.3051 -1.6800  1.3054
   65MOL    C9316861   7.304   1.032   3.343 -0.0646  1.1903 -0.2759
   65MOL    C9416862   7.341   1.167   3.393  0.8319 -0.2845 -0.4508
   65MOL    C9516863   7.259   1.275   3.398  0.0907 -0.4079 -1.1541
   65MOL    C9616864   7.318   1.409   3.418 -0.5623 -0.5361  0.3165
   65MOL    C9716865   7.112   1.284   3.357  0.0791 -0.2167 -0.3672
   65MOL    H9816866   7.298   0.970   3.433 -0.4162 -2.4796 -2.7321
   65MOL    H9916867   7.204   1.029   3.298  0.2592 -0.8190 -0.8748
   65MOL   H10016868   7.446   1.173   3.416  0.6046 -0.3497  0.6639
   65MOL   H10116869   7.423   1.407   3.391 -0.3435 -0.6169  1.1446
   65MOL   H10216870   7.275   1.489   3.358  1.2727 -0.3595 -0.7752
   65MOL   H10316871   7.315   1.429   3.526 -1.5064 -1.4675  0.4645
   65MOL   H10416872   7.071   1.187   3.331 -2.0657 -0.1810  2.6896
   65MOL   H10516873   7.094   1.346   3.269 -1.8318  1.7974  1.3821
   65MOL   C10616874   7.015   1.332   3.463 -0.0415 -0.4080 -0.1723
   65MOL   C10716875   6.871   1.329   3.426  0.2759 -0.2279  0.8537
   65MOL   C10816876   6.784   1.240   3.485 -0.3006 -0.5173  0.4227
   65MOL   C10916877   6.816   1.132   3.589 -0.0881  0.1116  0.2222
   65MOL   C11016878   6.631   1.256   3.448  0.4279 -0.0565  0.0670
   65MOL   H11116879   7.037   1.437   3.484  1.2134 -0.8874  0.9837
   65MOL   H11216880   7.033   1.279   3.556 -3.3978  0.5453  1.1152
   65MOL   H11316881   6.836   1.406   3.359  1.6753 -1.3641 -1.2480
   65MOL   H11416882   6.820   1.174   3.690  0.8628 -1.2119  0.7345
   65MOL   H11516883   6.740   1.054   3.583 -0.9413  0.8381  1.3174
   65MOL   H11616884   6.912   1.086   3.570 -0.6550 -0.6913 -0.7308
   65MOL   H11716885   6.583   1.160   3.433 -0.6611  0.7058 -1.3831
   65MOL   H11816886   6.612   1.323   3.365 -2.1481  0.8946  1.3796
   65MOL   C11916887   6.561   1.337   3.559  0.2227  0.7880  0.9087
   65MOL   C12016888   6.407   1.350   3.546  0.2368  0.8760 -1.1559
   65MOL   C12116889   6.321   1.372   3.652 -0.2945 -0.1140  0.0481
   65MOL   C12216890   6.175   1.400   3.635  0.0235  0.5090  0.2239
   65MOL   C12316891   6.366   1.374   3.799  0.3345 -0.4215  0.0340
   65MOL   H12416892   6.576   1.445   3.557 -1.8405  1.0928 -2.1300
   65MOL   H12516893   6.598   1.303   3.656  3.5015 -3.1319 -1.5898
   65MOL   H12616894   6.376   1.357   3.443 -0.2192 -0.7178 -1.1441
   65MOL   H12716895   6.136   1.463   3.715 -1.3910  1.0817 -0.9123
   65MOL   H12816896   6.128   1.302   3.640  1.0156  0.0130  0.0756
   65MOL   H12916897   6.144   1.443   3.540  0.6523  1.8347  0.6086
   65MOL   H13016898   6.325   1.463   3.846  0.5192 -0.9119  1.1505
   65MOL   H13116899   6.475   1.384   3.799  0.2094  0.9825 -1.6847
   65MOL   C13216900   6.320   1.248   3.864 -0.0805  0.1896  0.2028
   65MOL   C13316901   6.386   1.121   3.811  0.3755 -0.6745 -0.8025
   65MOL   C13416902   6.482   1.051   3.869 -0.2948 -0.0294  0.4227
   65MOL   C13516903   6.545   0.933   3.793  0.1813  0.0651 -0.2702
   65MOL   C13616904   6.551   1.087   4.001 -0.1290 -0.4518  0.0542
   65MOL   H13716905   6.211   1.242   3.865 -0.0606 -0.2575  1.4616
   65MOL   H13816906   6.346   1.249   3.970 -0.8322 -0.2780  0.3943
   65MOL   H13916907   6.343   1.090   3.717 -2.0034  0.1921 -0.0415
   65MOL   H14016908   6.530   0.835   3.839 -0.8600  0.4477  0.2150
   65MOL   H14116909   6.654   0.940   3.786  0.1620 -0.5113 -1.2367
   65MOL   H14216910   6.516   0.931   3.688 -3.4110 -0.4073  0.6771
   65MOL   H14316911   6.564   0.995   4.059  0.6441 -1.0851 -1.1027
   65MOL   H14416912   6.503   1.160   4.066  0.0327  1.1963 -1.6480
   65MOL   C14516913   6.698   1.129   3.986 -0.6317 -0.2125  0.4329
   65MOL   C14616914   6.762   1.162   4.117 -0.5811 -0.0946  0.8107
   65MOL   C14716915   6.872   1.106   4.165 -0.4805 -0.8394  0.6771
   65MOL   C14816916   6.930   1.144   4.299 -0.9146  0.0107  0.7334
   65MOL   C14916917   6.959   1.001   4.094  0.4014 -0.3029 -1.4390
   65MOL   H15016918   6.701   1.223   3.932  3.2011  0.2143  1.2631
   65MOL   H15116919   6.748   1.048   3.933 -2.4409 -1.5048  0.6619
   65MOL   H15216920   6.728   1.244   4.179 -0.4387  1.4401 -1.1028
   65MOL   H15316921   6.959   1.054   4.354 -1.8082 -2.8946 -3.2650
   65MOL   H15416922   6.861   1.204   4.357 -1.9005  0.1511 -0.5730
   65MOL   H15516923   7.015   1.210   4.284  0.4519 -1.6161  1.1113
   65MOL   H15616924   6.900   0.951   4.018 -2.4545  0.1710  0.4009
   65MOL   H15716925   6.995   0.928   4.167 -1.8277 -0.2286 -0.2201
   65MOL   C15816926   7.076   1.067   4.025 -0.0077  0.4811 -0.6765
   65MOL   C15916927   7.171   0.969   3.948  0.4875  0.5087  0.7867
   65MOL   C16016928   7.223   0.980   3.823  0.2719 -0.2669 -0.1359
   65MOL   C16116929   7.200   1.097   3.729  0.3763 -0.1152 -0.5780
   65MOL   C16216930   7.320   0.876   3.769 -0.2810 -0.4076  0.6106
   65MOL   H16316931   7.146   1.112   4.096  1.9470 -0.5712 -1.9022
   65MOL   H16416932   7.054   1.150   3.957  0.5598  0.2215 -1.1838
   65MOL   H16516933   7.195   0.885   4.011  0.5106  0.0266  0.1384
   65MOL   H16616934   7.233   1.091   3.625  2.3608 -0.3908  0.0497
   65MOL   H16716935   7.250   1.182   3.775 -0.2306 -0.0432 -0.0374
   65MOL   H16816936   7.095   1.122   3.742  0.5295  0.9516 -1.3393
   65MOL   H16916937   7.289   0.838   3.672  0.8488 -0.9547  0.4564
   65MOL   H17016938   7.320   0.786   3.832  0.3266 -0.7402  0.1451
   65MOL   C17116939   7.462   0.924   3.773 -0.1793 -0.0578 -0.2995
   65MOL   C17216940   7.555   0.809   3.735 -0.5651 -0.0549  0.7469
   65MOL   C17316941   7.633   0.810   3.624  0.2343  0.1830 -0.2324
   65MOL   C17416942   7.634   0.924   3.529 -0.1450 -0.2198 -0.1962
   65MOL   C17516943   7.726   0.695   3.582  0.0096  0.2624 -0.1594
   65MOL   H17616944   7.492   0.950   3.874 -1.8470  0.7515  0.0094
   65MOL   H17716945   7.474   1.011   3.709  0.2203 -1.4667 -2.1945
   65MOL   H17816946   7.562   0.725   3.803 -1.0001 -2.6936 -2.3442
   65MOL   H17916947   7.544   0.984   3.520  0.4604  0.8208  0.5646
   65MOL   H18016948   7.641   0.892   3.425  1.4611 -1.5437  0.3008
   65MOL   H18116949   7.715   0.993   3.554 -0.9118 -0.2256  2.4065
   65MOL   H18216950   7.738   0.632   3.670  0.3261  2.8513  1.7316
   65MOL   H18316951   7.819   0.752   3.575  1.7199 -2.2457  1.1772
   65MOL   C18416952   7.695   0.607   3.458  0.3174  0.2938 -0.0914
   65MOL   C18516953   7.813   0.511   3.453 -0.3366 -0.2561  0.4100
   65MOL   C18616954   0.020   0.495   3.351  0.3609  0.9051 -1.3500
   65MOL   C18716955   0.140   0.397   3.369  0.1310  0.6522  0.1812
   65MOL   C18816956   0.012   0.560   3.213 -0.3859 -0.2761  0.2608
   65MOL   H18916957   7.679   0.679   3.378 -2.5258  1.7757  1.7094
   65MOL   H19016958   7.609   0.542   3.477  1.8876 -2.0636 -0.7551
   65MOL   H19116959   7.828   0.440   3.533 -0.7022 -0.4871  0.2780
   65MOL   H19216960   0.236   0.446   3.354  0.2109  0.1689 -0.9180
   65MOL   H19316961   0.143   0.309   3.306 -0.3844 -0.0572  1.1465
   65MOL   H19416962   0.149   0.364   3.472  0.1865  1.4307  0.4299
   65MOL   H19516963   7.796   0.605   3.184  0.3482 -0.1956 -2.1752
   65MOL   H19616964   0.023   0.481   3.138 -1.7942 -1.1378  0.9504
   65MOL   C19716965   0.121   0.665   3.191  0.0822  0.4170 -0.1644
   65MOL   C19816966   0.106   0.741   3.058  0.3318 -0.3664 -0.3453
   65MOL   C19916967   0.038   0.857   3.043 -0.3795 -0.5797 -0.6928
   65MOL   C20016968   0.035   0.937   2.911 -0.2413  0.5821  0.3255
   65MOL   C20116969   7.840   0.933   3.153 -0.0308 -0.0108  0.0726
   65MOL   H20216970   0.221   0.623   3.180 -0.1784 -0.1252 -0.4544
   65MOL   H20316971   0.128   0.732   3.277  1.1901  0.3218 -0.1677
   65MOL   H20416972   0.162   0.710   2.971  1.7315 -2.8674  1.3740
   65MOL   H20516973   0.074   1.038   2.924 -0.3277  0.6619 -0.0291
   65MOL   H20616974   7.815   0.945   2.867  0.0594 -0.5509 -0.5720
   65MOL   H20716975   0.105   0.887   2.844 -0.2363  0.5143  0.3810
   65MOL   H20816976   7.813   0.869   3.237  1.3558  1.8310  1.9842
   65MOL   H20916977   7.742   0.952   3.108  1.2296  0.3063 -2.6096
   65MOL   C21016978   0.031   1.070   3.192  0.3271 -0.6726 -0.3211
   65MOL   C21116979   7.825   1.160   3.280  0.5876  0.8790  1.0704
   65MOL   C21216980   7.846   1.191   3.409  0.6194  0.4035 -0.7677
   65MOL   C21316981   7.750   1.286   3.487  0.7360 -0.0469 -0.5718
   65MOL   C21416982   0.074   1.123   3.492 -1.3971 -0.5555 -0.1762
   65MOL   H21516983   0.052   1.134   3.106 -0.6448 -1.1799 -0.9400
   65MOL   H21616984   0.126   1.057   3.244  0.2705  0.2050  0.0012
   65MOL   H21716985   7.730   1.187   3.236  1.2681 -1.7279 -2.1782
   65MOL   H21816986   7.803   1.375   3.520 -1.2226  1.5799 -1.7521
   65MOL   H21916987   7.709   1.240   3.577 -0.0873  1.3742 -0.2165
   65MOL   H22016988   7.665   1.314   3.426  0.2321  0.8353  0.5257
   65MOL   H22116989   0.052   1.016   3.497 -2.3920 -0.2953  1.1189
   65MOL   H22216990   0.083   1.147   3.598 -0.5562  2.1952 -0.8175
   65MOL   C22316991   0.221   1.162   3.456  0.1145 -0.2264 -0.0711
   65MOL   C22416992   0.320   1.084   3.543 -0.4519 -0.5097  0.2031
   65MOL   C22516993   0.420   1.138   3.623  0.4686 -0.2975  0.0780
   65MOL   C22616994   0.511   1.046   3.709 -0.4545  0.2319 -0.1130
   65MOL   C22716995   0.431   1.285   3.655 -0.9879 -0.0655  1.1378
   65MOL   H22816996   0.236   1.270   3.460  2.1273 -0.3298 -3.1976
   65MOL   H22916997   0.256   1.153   3.354 -0.2989 -2.0263 -0.0724
   65MOL   H23016998   0.304   0.977   3.531  0.2141 -0.6189  0.2604
   65MOL   H23116999   0.508   1.065   3.817 -1.1381 -1.4849  0.1799
   65MOL   H23217000   0.608   1.081   3.674 -0.8029 -0.3771 -1.7195
   65MOL   H23317001   0.486   0.944   3.680 -2.6232  1.2029 -1.8181
   65MOL   H23417002   0.383   1.348   3.580  1.5258 -1.1670 -1.5074
   65MOL   H23517003   0.537   1.306   3.662 -0.4074 -2.6947  0.8614
   65MOL   C23617004   0.371   1.323   3.789  0.1129 -0.5865 -0.5723
   65MOL   C23717005   0.351   1.474   3.809  0.1968  0.1104 -0.1336
   65MOL   C23817006   0.240   1.545   3.802  0.3118 -0.1990 -0.1690
   65MOL   C23917007   0.236   1.695   3.828 -0.6717 -0.3337  0.5529
   65MOL   C24017008   0.104   1.482   3.768  0.6801 -0.1444  0.4382
   65MOL   H24117009   0.437   1.281   3.865  0.0924  0.3560 -0.0182
   65MOL   H24217010   0.277   1.271   3.808  0.3225  0.3423  3.4735
   65MOL   H24317011   0.445   1.520   3.834  0.4405 -0.9242  0.9127
   65MOL   H24417012   0.336   1.737   3.840 -0.8198  0.0585  0.4179
   65MOL   H24517013   0.191   1.715   3.925 -0.5712 -0.2442  0.5816
   65MOL   H24617014   0.168   1.756   3.769 -1.4149 -1.4447  0.2514
   65MOL   H24717015   0.120   1.394   3.707 -1.5050 -0.7154  0.6452
   65MOL   H24817016   0.047   1.555   3.709  0.9878  0.7305  1.2179
   65MOL   C24917017   0.024   1.443   3.894  0.0148 -0.2470  0.2728
   65MOL   C25017018   7.794   1.342   3.873  0.0361  0.2215  0.3768
   65MOL   C25117019   7.663   1.369   3.868 -0.0203 -0.8970  0.4339
   65MOL   C25217020   7.563   1.266   3.814 -1.3893 -0.3880 -0.2660
   65MOL   C25317021   7.607   1.513   3.877 -0.1985  0.3157  0.2647
   65MOL   H25417022   7.870   1.527   3.956 -0.0360  0.5932 -0.8759
   65MOL   H25517023   0.095   1.389   3.956 -1.4255 -1.7603  0.6376
   65MOL   H25617024   7.819   1.241   3.846  0.3824  0.1260  1.0267
   65MOL   H25717025   7.479   1.260   3.883 -1.4956  1.4916 -0.2055
   65MOL   H25817026   7.613   1.170   3.797  0.6466  0.5658  0.1297
   65MOL   H25917027   7.539   1.299   3.713 -0.1812  1.6237  0.0857
   65MOL   H26017028   7.685   1.589   3.886  0.2170 -0.1666  0.7987
   65MOL   H26117029   7.532   1.526   3.954 -1.6041 -1.7056 -0.7100
   65MOL   H26217030   7.561   1.541   3.782 -1.4306  0.2649  0.8364
   66MOL     C117031   0.541   0.660   3.898 -1.1723  0.3468  0.0519
   66MOL     C217032   0.392   0.669   3.871 -0.1611  0.0473 -0.1607
   66MOL     C317033   0.326   0.646   3.756 -0.4367  0.0485 -0.0616
   66MOL     C417034   0.184   0.685   3.737 -0.7923 -0.5452 -0.0094
   66MOL     C517035   0.392   0.593   3.629  0.8774  0.3146 -0.5063
   66MOL     H617036   0.590   0.575   3.852 -1.4765  2.0542 -3.5901
   66MOL     H717037   0.597   0.740   3.851  0.0833 -0.3217  0.4024
   66MOL     H817038   0.330   0.731   3.934  0.0517  1.0170 -0.9060
   66MOL     H917039   0.182   0.789   3.706 -0.4068 -0.7992 -0.8973
   66MOL    H1017040   0.121   0.678   3.826  2.8530  0.7973  2.7856
   66MOL    H1117041   0.126   0.635   3.660 -1.7098  0.2536  0.1509
   66MOL    H1217042   0.328   0.512   3.594 -2.6189  1.5227  2.7927
   66MOL    H1317043   0.485   0.545   3.660 -1.0084 -3.1623  0.0765
   66MOL    H1417044   0.563   0.659   4.005  1.9784 -2.9870 -0.5583
   66MOL    C1517045   0.408   0.695   3.515  0.0960 -0.5435 -0.4842
   66MOL    C1617046   0.473   0.643   3.386 -0.5257  0.4745  0.2871
   66MOL    C1717047   0.482   0.708   3.268  0.2480 -0.0868 -0.8362
   66MOL    C1817048   0.552   0.637   3.153 -0.2037 -0.1708 -0.2580
   66MOL    C1917049   0.419   0.833   3.238 -0.5849 -0.4746 -0.3603
   66MOL    H2017050   0.470   0.779   3.547 -0.9733  0.2663 -0.5134
   66MOL    H2117051   0.312   0.742   3.495  0.7351  0.9796 -0.0875
   66MOL    H2217052   0.525   0.550   3.408  0.2877  1.1576  1.3118
   66MOL    H2317053   0.592   0.540   3.182  0.5414  0.1496 -0.1855
   66MOL    H2417054   0.638   0.695   3.120  0.8684 -1.2439  0.6204
   66MOL    H2517055   0.485   0.622   3.069 -1.3569 -0.7829  0.7655
   66MOL    H2617056   0.355   0.866   3.320  1.6252 -0.6778  1.4924
   66MOL    H2717057   0.353   0.807   3.155  0.1394 -4.2496  0.1552
   66MOL    C2817058   0.514   0.953   3.198  0.8362  1.0897 -0.4906
   66MOL    C2917059   0.610   0.988   3.309  0.0925 -0.2954  0.3175
   66MOL    C3017060   0.748   0.981   3.305  0.2601  0.5502 -0.6481
   66MOL    C3117061   0.833   1.027   3.422 -0.7792  0.2549 -0.6114
   66MOL    C3217062   0.834   0.944   3.189 -0.1692 -0.1690 -0.0942
   66MOL    H3317063   0.459   1.032   3.146 -2.3103 -0.8890 -0.3729
   66MOL    H3417064   0.575   0.920   3.113  1.2935 -0.9959  0.6077
   66MOL    H3517065   0.559   1.037   3.390  0.3065 -2.1392  1.5822
   66MOL    H3617066   0.875   0.933   3.458 -1.9554  0.5706  1.6732
   66MOL    H3717067   0.777   1.085   3.496 -3.4823 -2.0638 -0.7258
   66MOL    H3817068   0.923   1.082   3.396 -0.8350  1.6334  2.0117
   66MOL    H3917069   0.774   0.893   3.114  1.6610 -1.1350 -0.9349
   66MOL    H4017070   0.909   0.870   3.216 -0.1130  0.9287  2.9976
   66MOL    C4117071   0.911   1.057   3.113  0.3700 -0.5549  0.3708
   66MOL    C4217072   0.985   1.022   2.992  0.2255  0.3052  0.0354
   66MOL    C4317073   1.103   1.066   2.939  0.2174  0.0039 -0.2474
   66MOL    C4417074   1.153   1.022   2.808 -0.0513 -0.2886  0.3779
   66MOL    C4517075   1.192   1.157   3.022 -0.2916  0.2854  0.0996
   66MOL    H4617076   0.981   1.111   3.176 -0.2484  1.3145 -0.5047
   66MOL    H4717077   0.840   1.136   3.090  0.0494 -0.5733  1.2739
   66MOL    H4817078   0.924   0.961   2.927 -1.6438  3.0346 -0.8970
   66MOL    H4917079   1.243   1.077   2.781 -1.1479  1.8216  0.8702
   66MOL    H5017080   1.079   1.026   2.729  1.9457  0.6964 -1.4782
   66MOL    H5117081   1.191   0.920   2.810  0.1103 -0.2613 -0.9493
   66MOL    H5217082   1.131   1.219   3.088  0.7818  0.4940  0.9171
   66MOL    H5317083   1.246   1.224   2.955  1.3093 -0.4679  0.5916
   66MOL    C5417084   1.298   1.077   3.103  0.1954  0.3881 -0.2866
   66MOL    C5517085   1.369   1.165   3.202 -0.4877  0.2674  0.5469
   66MOL    C5617086   1.426   1.126   3.319 -0.4619 -0.2691 -0.4436
   66MOL    C5717087   1.474   1.220   3.430  0.3106  0.0958 -0.2393
   66MOL    C5817088   1.454   0.978   3.342 -0.2322  0.3314 -0.0101
   66MOL    H5917089   1.363   1.012   3.044  2.9421  2.0579  0.7805
   66MOL    H6017090   1.249   0.998   3.161 -1.2046  0.8606 -0.8003
   66MOL    H6117091   1.368   1.269   3.173  1.5650  0.1955  0.1710
   66MOL    H6217092   1.438   1.188   3.528  1.3083  1.2047  0.4954
   66MOL    H6317093   1.428   1.317   3.409 -0.2569  0.2381  1.5400
   66MOL    H6417094   1.582   1.217   3.435  0.2868 -0.8178 -0.1506
   66MOL    H6517095   1.549   0.985   3.395 -0.7951  0.9968  0.9200
   66MOL    H6617096   1.470   0.919   3.251 -3.6446 -0.8964  0.1151
   66MOL    C6717097   1.355   0.904   3.426 -0.6302  0.2131 -0.8039
   66MOL    C6817098   1.411   0.776   3.483 -0.4352 -0.4788  0.2174
   66MOL    C6917099   1.472   0.743   3.597  0.0976  0.4388  0.2594
   66MOL    C7017100   1.535   0.604   3.613 -0.3559 -0.5096 -0.4985
   66MOL    C7117101   1.485   0.839   3.715  0.3869 -0.0642  0.5749
   66MOL    H7217102   1.283   0.873   3.350  0.2961  1.3878 -2.1904
   66MOL    H7317103   1.309   0.972   3.498 -0.6202 -0.8158  0.1857
   66MOL    H7417104   1.408   0.697   3.409  2.1488 -0.0086 -0.4347
   66MOL    H7517105   1.490   0.537   3.540  0.1565 -1.4274  0.0275
   66MOL    H7617106   1.518   0.572   3.716  2.2688 -1.8074 -0.4193
   66MOL    H7717107   1.641   0.626   3.602 -1.1717  3.2773 -1.5005
   66MOL    H7817108   1.489   0.785   3.810  0.5213 -2.7868 -0.9321
   66MOL    H7917109   1.404   0.911   3.707 -0.8596 -1.3538  1.3028
   66MOL    C8017110   1.622   0.915   3.697 -0.3417  0.3631 -0.0292
   66MOL    C8117111   1.649   1.024   3.796  0.2993  0.3683 -0.8511
   66MOL    C8217112   1.693   1.011   3.921  0.4345 -0.6559 -0.0111
   66MOL    C8317113   1.693   0.880   3.994 -0.0314 -0.5580  0.1313
   66MOL    C8417114   1.745   1.127   4.014 -0.5539  0.1069 -0.2174
   66MOL    H8517115   1.641   0.958   3.599 -0.1228  1.2471  0.4044
   66MOL    H8617116   1.697   0.837   3.711 -1.1796 -1.0065 -2.7754
   66MOL    H8717117   1.651   1.126   3.759  0.8219  0.6719 -0.0130
   66MOL    H8817118   1.713   0.799   3.924 -1.0554 -1.3526  0.7332
   66MOL    H8917119   1.598   0.875   4.048 -0.3044 -0.9461 -0.3783
   66MOL    H9017120   1.769   0.884   4.072 -0.1907 -0.1329  0.2646
   66MOL    H9117121   1.702   1.112   4.113  2.0618  1.3245  1.1489
   66MOL    H9217122   1.695   1.220   3.988 -0.3196  0.7490  1.5655
   66MOL    C9317123   1.898   1.127   4.025  0.4379 -0.1537  0.7484
   66MOL    C9417124   1.943   1.247   4.108 -0.3560  0.3647  0.0274
   66MOL    C9517125   2.037   1.334   4.077 -0.0005 -0.5843  0.1215
   66MOL    C9617126   2.076   1.443   4.173 -0.2107  0.0142 -0.3327
   66MOL    C9717127   2.107   1.335   3.939  0.7152 -0.8856 -0.3425
   66MOL    H9817128   1.930   1.132   3.921  0.6374  0.7380  0.8456
   66MOL    H9917129   1.937   1.036   4.069  0.8759 -0.3270  0.0008
   66MOL   H10017130   1.891   1.252   4.203 -1.5200  1.6027 -0.6372
   66MOL   H10117131   2.175   1.413   4.207  0.1712  1.1651 -0.4196
   66MOL   H10217132   2.064   1.542   4.130 -1.9557 -0.9410 -2.1896
   66MOL   H10317133   2.008   1.434   4.258 -0.8015  1.8402 -0.5840
   66MOL   H10417134   2.084   1.246   3.880 -0.2380  0.6441 -2.3434
   66MOL   H10517135   2.213   1.352   3.953  0.8516  1.2196 -3.4193
   66MOL   C10617136   2.061   1.457   3.851  0.6849 -0.1078  0.3027
   66MOL   C10717137   1.905   1.461   3.826  0.5303 -0.1588  0.1910
   66MOL   C10817138   1.841   1.421   3.719 -0.0201 -0.3537  0.3605
   66MOL   C10917139   1.902   1.361   3.596 -0.2318 -0.3081  0.2532
   66MOL   C11017140   1.684   1.430   3.709 -0.0584 -0.2224 -0.6126
   66MOL   H11117141   2.101   1.448   3.750  0.9972 -0.2342  0.4342
   66MOL   H11217142   2.086   1.555   3.892 -3.5720  1.2852 -0.2654
   66MOL   H11317143   1.852   1.514   3.905 -2.5512 -1.9984 -0.5543
   66MOL   H11417144   2.003   1.321   3.595 -0.7956 -1.7639 -1.7913
   66MOL   H11517145   1.849   1.273   3.561  0.7197 -0.7385 -0.1291
   66MOL   H11617146   1.883   1.432   3.516 -1.4415  0.3881  1.1496
   66MOL   H11717147   1.643   1.331   3.689  2.3638 -1.7611  1.6656
   66MOL   H11817148   1.662   1.472   3.611 -0.4353  2.2571  0.4964
   66MOL   C11917149   1.615   1.497   3.827  0.6035  0.3600 -0.2382
   66MOL   C12017150   1.468   1.498   3.796  0.9710 -0.5363  1.0620
   66MOL   C12117151   1.380   1.592   3.827 -0.2116 -0.2148 -0.3848
   66MOL   C12217152   1.233   1.575   3.787  0.0843 -0.0416 -0.7072
   66MOL   C12317153   1.418   1.715   3.909 -0.2895 -0.0824  0.2137
   66MOL   H12417154   1.653   1.599   3.841  0.4610  0.6272 -1.7531
   66MOL   H12517155   1.632   1.445   3.922 -0.6464 -0.9463 -0.7236
   66MOL   H12617156   1.437   1.421   3.728  1.9608 -1.1967  1.3504
   66MOL   H12717157   1.162   1.613   3.860 -0.6882  0.5112 -1.7284
   66MOL   H12817158   1.213   1.474   3.751 -2.5719  0.6997 -1.3889
   66MOL   H12917159   1.221   1.645   3.704 -0.7428 -0.5855 -1.0422
   66MOL   H13017160   1.503   1.690   3.973  1.2095  1.6248 -1.0807
   66MOL   H13117161   1.328   1.729   3.969 -0.7601 -0.1769 -0.4697
   66MOL   C13217162   1.445   1.841   3.822  0.3804  0.2217 -0.8281
   66MOL   C13317163   1.475   1.954   3.921  0.0199  0.0837 -1.0506
   66MOL   C13417164   1.597   1.997   3.969  0.1757  0.2340  0.4283
   66MOL   C13517165   1.605   2.106   4.078  0.3848 -0.1213  0.0620
   66MOL   C13617166   1.729   1.932   3.928 -0.6655 -0.3894  0.0539
   66MOL   H13717167   1.352   1.871   3.773  1.0242 -0.0008 -2.2184
   66MOL   H13817168   1.529   1.823   3.755 -0.3419 -0.6781 -1.4921
   66MOL   H13917169   1.390   1.991   3.977  1.0566 -0.1584  0.7121
   66MOL   H14017170   1.661   2.056   4.157 -0.4103  0.3813  0.9495
   66MOL   H14117171   1.509   2.141   4.116  1.7496  1.7713  1.9156
   66MOL   H14217172   1.662   2.192   4.042  2.0381 -0.9972  0.5334
   66MOL   H14317173   1.804   2.009   3.910  1.4065 -2.3282  0.2753
   66MOL   H14417174   1.721   1.892   3.827  1.0042 -0.9662  0.1439
   66MOL   C14517175   1.786   1.832   4.030  0.0648 -0.5979 -0.5730
   66MOL   C14617176   1.938   1.812   4.010 -1.1320 -0.0399 -0.7598
   66MOL   C14717177   2.033   1.810   4.107 -0.0225  0.1436  0.2325
   66MOL   C14817178   2.178   1.789   4.081 -0.5979  0.6963 -0.5078
   66MOL   C14917179   1.995   1.803   4.255  0.0349  0.4051 -0.1181
   66MOL   H15017180   1.738   1.739   4.002 -3.0243  0.8441 -0.2710
   66MOL   H15117181   1.759   1.854   4.133 -1.6560 -1.7999 -0.7654
   66MOL   H15217182   1.974   1.805   3.908  3.6544 -0.0232  0.8083
   66MOL   H15317183   2.227   1.694   4.103  0.6219  1.5806  0.7285
   66MOL   H15417184   2.243   1.863   4.128 -0.3990 -0.0610  0.4172
   66MOL   H15517185   2.197   1.803   3.974  1.7033 -1.1624 -0.3799
   66MOL   H15617186   2.062   1.732   4.304 -1.6011 -1.7136 -0.8420
   66MOL   H15717187   1.901   1.756   4.282  0.5917 -1.6459 -1.5538
   66MOL   C15817188   1.998   1.946   4.318 -0.0333  0.6588 -0.9405
   66MOL   C15917189   1.975   1.952   4.468 -0.0818  0.0782 -0.1582
   66MOL   C16017190   1.862   1.984   4.535 -0.2762 -0.1019  1.0352
   66MOL   C16117191   1.733   2.003   4.470  0.4285  0.5074 -0.1356
   66MOL   C16217192   1.856   1.975   4.686  0.0794  0.0122 -0.0686
   66MOL   H16317193   1.921   2.006   4.272  1.0385  0.6614 -2.7670
   66MOL   H16417194   2.090   1.999   4.296  0.6654  0.4280  1.2162
   66MOL   H16517195   2.062   1.920   4.523 -1.0076  0.1558  1.3976
   66MOL   H16617196   1.691   2.101   4.490  0.5321  0.5892 -0.3160
   66MOL   H16717197   1.669   1.926   4.512 -0.3241  1.9778  1.4544
   66MOL   H16817198   1.727   1.983   4.363 -1.4101 -1.4788  0.3085
   66MOL   H16917199   1.938   1.916   4.725  1.2443  0.9075 -1.1211
   66MOL   H17017200   1.763   1.921   4.705  1.7947 -2.4102  1.6703
   66MOL   C17117201   1.846   2.102   4.761  0.3507 -0.2336  0.1212
   66MOL   C17217202   1.976   2.182   4.760  0.3694 -0.1467  0.4085
   66MOL   C17317203   2.008   2.296   4.699 -0.2378  0.1282 -0.4484
   66MOL   C17417204   1.920   2.360   4.595  0.2355 -0.3455 -0.0444
   66MOL   C17517205   2.142   2.367   4.735 -0.0297  0.5579 -0.4599
   66MOL   H17617206   1.816   2.084   4.864 -0.3078  0.3085  0.0268
   66MOL   H17717207   1.765   2.165   4.724  0.1268 -0.8373 -0.4183
   66MOL   H17817208   2.051   2.142   4.826 -0.3356 -1.2199  0.5654
   66MOL   H17917209   1.886   2.453   4.640  0.4312  0.0272 -0.6691
   66MOL   H18017210   1.841   2.290   4.567 -0.3531 -0.3265  1.5166
   66MOL   H18117211   1.979   2.385   4.507 -1.2193  0.7418 -0.7429
   66MOL   H18217212   2.194   2.316   4.815 -1.1094  1.4845  0.8583
   66MOL   H18317213   2.110   2.467   4.763 -4.1550 -0.3031 -1.7027
   66MOL   C18417214   2.240   2.381   4.616  0.1728 -0.3008  0.4569
   66MOL   C18517215   2.286   2.245   4.568  0.2469 -0.6320  0.2204
   66MOL   C18617216   2.414   2.201   4.566 -0.1227  0.0819  0.2334
   66MOL   C18717217   2.449   2.059   4.507 -0.6502  0.4325  0.1289
   66MOL   C18817218   2.532   2.281   4.615 -0.1588 -0.0429 -0.0889
   66MOL   H18917219   2.316   2.450   4.653  0.2413  0.1767 -0.5471
   66MOL   H19017220   2.191   2.438   4.537  0.8898  2.6499  2.0724
   66MOL   H19117221   2.209   2.179   4.529 -0.5427  0.8786 -0.8207
   66MOL   H19217222   2.535   2.025   4.564 -1.4259  0.5178  1.3564
   66MOL   H19317223   2.481   2.052   4.403 -0.2730  0.3300  0.2528
   66MOL   H19417224   2.363   1.992   4.519  0.8496 -1.1288  2.3822
   66MOL   H19517225   2.606   2.208   4.650 -0.7315 -1.3238 -1.4860
   66MOL   H19617226   2.503   2.348   4.696  2.0703  1.2674 -0.3431
   66MOL   C19717227   2.606   2.359   4.505 -0.3576 -0.9073 -0.5810
   66MOL   C19817228   2.717   2.444   4.561 -0.3427  0.0402  0.5767
   66MOL   C19917229   2.846   2.452   4.518  0.1921  0.1486  0.2215
   66MOL   C20017230   2.945   2.533   4.601  0.2965 -0.2246 -0.1799
   66MOL   C20117231   2.911   2.376   4.405  0.0169  0.1234 -0.2304
   66MOL   H20217232   2.530   2.420   4.456 -0.0661  1.5768  1.8856
   66MOL   H20317233   2.644   2.293   4.428  2.6625 -1.6604  1.4606
   66MOL   H20417234   2.690   2.510   4.642 -0.6588  0.8462 -0.1778
   66MOL   H20517235   3.043   2.493   4.626  0.0384 -0.4237  0.5279
   66MOL   H20617236   2.903   2.556   4.699  0.3021 -0.4392 -0.1277
   66MOL   H20717237   2.967   2.629   4.553 -2.6929  0.2221 -0.7423
   66MOL   H20817238   2.838   2.326   4.342  1.0927  2.1902 -3.2258
   66MOL   H20917239   2.958   2.297   4.464  0.0832  0.8770  0.7364
   66MOL   C21017240   2.998   2.447   4.300  0.2431 -0.0951 -0.1641
   66MOL   C21117241   3.042   2.348   4.195  0.1806 -0.6656  0.5258
   66MOL   C21217242   3.133   2.251   4.207 -0.0671 -0.1409 -0.3284
   66MOL   C21317243   3.166   2.166   4.087 -0.7535 -0.3040  0.3949
   66MOL   C21417244   3.219   2.232   4.332  0.3975 -0.4864  0.7176
   66MOL   H21517245   3.074   2.492   4.363 -0.5364  1.2413 -0.1635
   66MOL   H21617246   2.945   2.528   4.250  0.7439  1.4614  1.7758
   66MOL   H21717247   2.989   2.361   4.102 -1.2462 -1.5201  1.2031
   66MOL   H21817248   3.176   2.058   4.103  0.5365 -0.3349 -0.5802
   66MOL   H21917249   3.268   2.192   4.060 -1.5190 -1.1622 -3.5889
   66MOL   H22017250   3.108   2.193   4.000 -1.0969  0.3350  0.8203
   66MOL   H22117251   3.190   2.308   4.405 -0.9939  0.2976 -0.6095
   66MOL   H22217252   3.322   2.255   4.303 -0.1276  0.9330 -0.1275
   66MOL   C22317253   3.216   2.092   4.398 -0.1057  0.1814 -0.7809
   66MOL   C22417254   3.082   2.042   4.442  1.5596 -0.2720  0.1845
   66MOL   C22517255   3.036   2.019   4.568  0.2190 -0.5814  0.0826
   66MOL   C22617256   2.902   1.956   4.596 -0.3111 -0.3556  0.2762
   66MOL   C22717257   3.118   2.038   4.690  0.0999 -0.0466  0.4578
   66MOL   H22817258   3.285   2.097   4.482  0.7576 -0.4842 -1.4381
   66MOL   H22917259   3.261   2.024   4.326 -0.6161 -0.1158 -0.8238
   66MOL   H23017260   3.010   2.034   4.362 -0.1579 -0.5623  1.7295
   66MOL   H23117261   2.927   1.850   4.600  1.6257  0.0912  0.3581
   66MOL   H23217262   2.831   1.984   4.519 -1.3447 -1.4492  0.8007
   66MOL   H23317263   2.858   1.990   4.690 -3.5051 -0.2329 -1.1865
   66MOL   H23417264   3.225   2.032   4.670 -0.0738  1.4315 -0.9970
   66MOL   H23517265   3.107   1.951   4.755  1.2992  0.6235  1.5833
   66MOL   C23617266   3.099   2.175   4.756 -0.0048  0.1844  0.9253
   66MOL   C23717267   3.179   2.178   4.880 -0.2675  0.0815  0.4017
   66MOL   C23817268   3.149   2.259   4.979  0.1104 -0.1982 -0.0522
   66MOL   C23917269   3.240   2.265   5.091 -0.2173 -0.6528 -0.6998
   66MOL   C24017270   3.040   2.365   4.983  1.1438 -0.0482  0.0033
   66MOL   H24117271   2.994   2.196   4.775 -0.1591  0.0868  0.2194
   66MOL   H24217272   3.131   2.251   4.684  0.0510  1.3468  2.1725
   66MOL   H24317273   3.263   2.112   4.885  0.1428  0.4529 -1.2318
   66MOL   H24417274   3.188   2.272   5.187  0.5917  0.8890 -0.3437
   66MOL   H24517275   3.291   2.362   5.092 -2.3670  0.5039  0.9833
   66MOL   H24617276   3.315   2.186   5.096 -2.1359 -2.4583 -0.2814
   66MOL   H24717277   2.978   2.336   5.067  1.1049 -0.4007 -0.1450
   66MOL   H24817278   2.996   2.355   4.884  3.2499 -0.0436 -0.9806
   66MOL   C24917279   3.093   2.503   5.009  0.0881 -0.1391 -0.4141
   66MOL   C25017280   2.982   2.604   5.020 -0.1499 -0.0649 -0.2619
   66MOL   C25117281   2.959   2.692   5.117 -1.1036 -0.4509 -0.3159
   66MOL   C25217282   2.843   2.791   5.109 -0.3473 -0.3235  0.1992
   66MOL   C25317283   3.037   2.694   5.247 -0.2127  0.0855  0.1085
   66MOL   H25417284   3.157   2.530   4.925  1.9928 -0.7159  0.8309
   66MOL   H25517285   3.147   2.504   5.104  3.1336 -2.7985 -2.0221
   66MOL   H25617286   2.920   2.600   4.932 -0.4320 -2.2106  0.0229
   66MOL   H25717287   2.882   2.890   5.133 -1.2086  0.6170 -2.0654
   66MOL   H25817288   2.773   2.776   5.191 -0.1265 -1.3359  0.2086
   66MOL   H25917289   2.799   2.798   5.009 -3.0683 -1.7938  1.2374
   66MOL   H26017290   3.006   2.777   5.310  0.5848  1.0207 -0.7013
   66MOL   H26117291   3.145   2.691   5.229 -0.2590  1.1063 -0.3338
   66MOL   H26217292   3.020   2.605   5.307  1.3824  0.4666  1.1770
   67MOL     C117293   6.016   4.173   1.530 -0.3374  0.6246 -0.4468
   67MOL     C217294   5.929   4.202   1.415 -0.0316 -0.0814 -0.4896
   67MOL     C317295   5.961   4.212   1.287 -0.2762 -0.6585  0.5047
   67MOL     C417296   5.856   4.248   1.177 -0.1958 -0.1674 -0.2539
   67MOL     C517297   6.105   4.191   1.230  0.0112  0.5488  0.0595
   67MOL     H617298   6.092   4.098   1.506 -0.8812  0.4037 -1.4941
   67MOL     H717299   6.059   4.265   1.570 -0.3784  0.5760 -0.2915
   67MOL     H817300   5.827   4.231   1.437  0.3854 -1.0940  3.1066
   67MOL     H917301   5.768   4.289   1.225  0.5370  3.2872 -1.7401
   67MOL    H1017302   5.833   4.153   1.128 -1.0726 -1.0199  1.7367
   67MOL    H1117303   5.891   4.326   1.110  1.4521 -1.2954 -0.7540
   67MOL    H1217304   6.095   4.100   1.171 -1.5848 -0.0952  1.2673
   67MOL    H1317305   6.171   4.159   1.311 -0.1588  1.6169  0.6288
   67MOL    H1417306   5.969   4.133   1.620 -0.5748  0.9318 -0.4324
   67MOL    C1517307   6.166   4.313   1.151  0.1303 -0.1844 -0.2745
   67MOL    C1617308   6.303   4.275   1.099  0.0009 -0.7578 -0.5153
   67MOL    C1717309   6.332   4.232   0.971 -0.1592 -0.0880 -0.4082
   67MOL    C1817310   6.473   4.209   0.936 -0.6973 -0.5359 -0.3073
   67MOL    C1917311   6.231   4.200   0.863 -0.1567 -0.1008 -0.0283
   67MOL    H2017312   6.175   4.403   1.213  2.1628  0.4686 -1.4727
   67MOL    H2117313   6.104   4.326   1.062 -1.1010 -1.9671  0.2959
   67MOL    H2217314   6.379   4.296   1.173 -1.0060  3.2217 -0.5043
   67MOL    H2317315   6.541   4.246   1.013 -0.2914 -0.1503 -0.8564
   67MOL    H2417316   6.492   4.273   0.851  0.6726 -1.9168 -1.0659
   67MOL    H2517317   6.491   4.105   0.907 -2.0327 -0.8898  0.0671
   67MOL    H2617318   6.134   4.191   0.914  0.5151 -2.6029  0.8608
   67MOL    H2717319   6.253   4.098   0.832 -3.7009 -1.8941  2.9576
   67MOL    C2817320   6.226   4.303   0.751  0.0731 -0.2223 -0.3994
   67MOL    C2917321   6.130   4.257   0.643 -0.2553  0.4088 -0.1466
   67MOL    C3017322   6.147   4.279   0.508 -1.0460 -0.4035 -0.5695
   67MOL    C3117323   6.044   4.236   0.399 -0.1222  0.0014  0.2479
   67MOL    C3217324   6.261   4.359   0.445 -0.4293 -0.0483 -0.2255
   67MOL    H3317325   6.330   4.306   0.716  0.2861 -0.1422  0.2451
   67MOL    H3417326   6.198   4.405   0.778 -1.4238 -0.7689  0.1346
   67MOL    H3517327   6.049   4.195   0.679 -0.8964  0.9306 -0.6720
   67MOL    H3617328   5.992   4.322   0.357 -1.1177  0.0972  1.6341
   67MOL    H3717329   5.969   4.169   0.441  0.1270  0.0031  0.6941
   67MOL    H3817330   6.095   4.184   0.318  0.9463 -0.0171  0.9271
   67MOL    H3917331   6.316   4.420   0.517  0.6203  0.6550 -1.5878
   67MOL    H4017332   6.214   4.435   0.382 -0.5806  0.8534  0.9584
   67MOL    C4117333   6.359   4.266   0.367 -0.3020 -0.1447 -0.1034
   67MOL    C4217334   6.477   4.215   0.454  0.2239  0.5471 -0.0046
   67MOL    C4317335   6.496   4.093   0.511 -0.0141 -0.1608  0.5478
   67MOL    C4417336   6.612   4.077   0.601  0.0050 -0.3690  1.2714
   67MOL    C4517337   6.423   3.963   0.481  0.3154 -0.0996 -0.0465
   67MOL    H4617338   6.405   4.317   0.283  1.1082  0.5007  1.0215
   67MOL    H4717339   6.312   4.178   0.323 -1.7798  0.0392  1.0545
   67MOL    H4817340   6.546   4.288   0.494 -0.7760  0.8169  1.2795
   67MOL    H4917341   6.579   4.031   0.694 -0.7133  0.2924  1.3430
   67MOL    H5017342   6.667   4.166   0.630  0.6935 -0.3968  0.1089
   67MOL    H5117343   6.675   4.006   0.547 -0.6357  0.0905 -0.1249
   67MOL    H5217344   6.329   3.977   0.427  0.0365 -0.9363  0.2145
   67MOL    H5317345   6.388   3.934   0.580  0.4878 -0.6064 -0.1360
   67MOL    C5417346   6.508   3.848   0.430  0.5418  0.2904 -0.0790
   67MOL    C5517347   6.416   3.735   0.409 -0.4846 -0.4256 -0.1629
   67MOL    C5617348   6.385   3.669   0.294 -0.3315  0.0252  0.3410
   67MOL    C5717349   6.273   3.565   0.283  0.5994  0.2773 -0.6780
   67MOL    C5817350   6.453   3.696   0.159  0.2489  0.1951  0.6011
   67MOL    H5917351   6.591   3.822   0.494  0.8819  1.3228 -0.0955
   67MOL    H6017352   6.558   3.880   0.338 -0.5145  0.5241 -0.5903
   67MOL    H6117353   6.367   3.702   0.499  1.8092  0.5057  1.4653
   67MOL    H6217354   6.203   3.604   0.209  2.9145  1.5052 -2.2794
   67MOL    H6317355   6.214   3.557   0.374 -1.5341  0.7817 -1.9664
   67MOL    H6417356   6.310   3.467   0.256 -2.1583 -0.9010 -0.3941
   67MOL    H6517357   6.471   3.802   0.140 -1.1139  0.9830  3.4122
   67MOL    H6617358   6.393   3.656   0.077 -0.3659  0.3314  0.9758
   67MOL    C6717359   6.582   3.613   0.156 -0.1091  0.3335  0.2175
   67MOL    C6817360   6.651   3.604   0.023  0.2708  0.6528 -0.1805
   67MOL    C6917361   6.744   3.517   7.873  0.2699 -0.3696  0.2003
   67MOL    C7017362   6.784   3.495   7.725 -0.0598 -0.3167 -0.5608
   67MOL    C7117363   6.805   3.423   0.096 -0.4483  0.2192 -0.5286
   67MOL    H7217364   6.556   3.509   0.174  0.8431 -0.2923 -1.8558
   67MOL    H7317365   6.648   3.647   0.236  0.3590 -1.1573  0.4708
   67MOL    H7417366   6.603   3.651   7.817  0.2238  0.6643 -0.1482
   67MOL    H7517367   6.746   3.588   7.681 -2.1746 -0.6791  0.4426
   67MOL    H7617368   6.739   3.409   7.676  1.2194 -1.7455  0.7240
   67MOL    H7717369   6.892   3.495   7.711  0.1125  1.5815  0.6638
   67MOL    H7817370   6.764   3.442   0.195  0.1303 -0.8340 -0.0798
   67MOL    H7917371   6.913   3.435   0.097 -0.5523  1.0487  0.4382
   67MOL    C8017372   6.776   3.278   0.071 -0.2037 -0.5590  0.0347
   67MOL    C8117373   6.829   3.193   0.188 -0.3442  0.3986 -0.3229
   67MOL    C8217374   6.935   3.112   0.184 -0.6165 -0.7002  0.2234
   67MOL    C8317375   7.036   3.114   0.075  0.2932 -0.2926  0.3609
   67MOL    C8417376   6.965   3.009   0.285 -0.7397 -0.0054  0.4908
   67MOL    H8517377   6.824   3.251   7.856  0.2355 -2.0159  0.6749
   67MOL    H8617378   6.669   3.259   0.065 -0.2119 -0.8785  1.0237
   67MOL    H8717379   6.767   3.187   0.276  1.0244  1.4416  0.7330
   67MOL    H8817380   6.995   3.104   7.854  0.5277  1.3173  0.0872
   67MOL    H8917381   7.110   3.034   0.084 -0.1675 -0.9513 -1.4246
   67MOL    H9017382   7.088   3.211   0.076 -1.7582  0.8283  0.3408
   67MOL    H9117383   6.886   3.014   0.360  0.0910  0.0226  1.3840
   67MOL    H9217384   7.048   3.038   0.350 -0.7296  0.4207  0.2860
   67MOL    C9317385   6.974   2.861   0.246  0.4151  0.7092  0.9525
   67MOL    C9417386   6.990   2.771   0.366 -0.4317  0.0556  0.2231
   67MOL    C9517387   6.890   2.694   0.408  0.0600 -0.3043 -0.3792
   67MOL    C9617388   6.902   2.595   0.522  0.0051 -0.0780 -0.0814
   67MOL    C9717389   6.746   2.711   0.352 -0.4572  0.3547 -0.2047
   67MOL    H9817390   7.072   2.853   0.200  0.6727 -2.8530  1.9642
   67MOL    H9917391   6.898   2.824   0.177  2.2055  0.2890 -0.8452
   67MOL   H10017392   7.085   2.773   0.417 -0.3129  2.7829 -0.0370
   67MOL   H10117393   6.999   2.615   0.569 -0.2135  0.9314 -0.0514
   67MOL   H10217394   6.835   2.607   0.607  1.9152  1.1457  1.3083
   67MOL   H10317395   6.894   2.491   0.490 -0.0632 -1.4464  4.0901
   67MOL   H10417396   6.719   2.804   0.303 -0.4784  1.9157  2.6985
   67MOL   H10517397   6.683   2.716   0.441 -3.6410 -0.4886 -2.3363
   67MOL   C10617398   6.713   2.582   0.271  0.2470 -0.1779  0.1303
   67MOL   C10717399   6.564   2.574   0.236  0.1613 -0.1670  0.2035
   67MOL   C10817400   6.476   2.475   0.274 -0.1807 -0.6958 -0.1708
   67MOL   C10917401   6.506   2.357   0.369  0.1993  0.3537  0.1519
   67MOL   C11017402   6.339   2.464   0.214 -0.0823 -0.5360 -0.1451
   67MOL   H11117403   6.749   2.496   0.326 -0.7242  0.8931  2.4986
   67MOL   H11217404   6.760   2.597   0.173 -0.7466  2.4503  0.0134
   67MOL   H11317405   6.528   2.647   0.166 -0.5779  0.9540  1.7125
   67MOL   H11417406   6.608   2.358   0.409  0.3018 -0.4240 -0.0850
   67MOL   H11517407   6.433   2.364   0.450 -1.3643  0.4149 -1.2460
   67MOL   H11617408   6.495   2.259   0.324  1.7959  0.3153 -0.1741
   67MOL   H11717409   6.273   2.452   0.299 -0.9374 -0.5385 -0.8027
   67MOL   H11817410   6.333   2.366   0.168 -0.3678 -1.4490  1.8311
   67MOL   C11917411   6.288   2.577   0.117  0.0979  0.4698 -0.7072
   67MOL   C12017412   6.138   2.554   0.082 -0.0915 -0.2449  0.3060
   67MOL   C12117413   6.033   2.629   0.111  0.2475  0.6806 -0.0724
   67MOL   C12217414   5.895   2.597   0.064  0.4593  0.1180  0.1049
   67MOL   C12317415   6.034   2.762   0.185 -0.6156  0.0242  0.0116
   67MOL   H12417416   6.345   2.571   0.024  0.3988  0.5538 -0.5291
   67MOL   H12517417   6.301   2.678   0.155  1.2084  0.2587 -0.5004
   67MOL   H12617418   6.114   2.467   0.023 -2.9769  0.3261  0.5817
   67MOL   H12717419   5.823   2.576   0.143  0.6909  2.6956  1.0119
   67MOL   H12817420   5.893   2.507   0.001 -0.1881  1.6082 -2.0762
   67MOL   H12917421   5.856   2.676   7.879 -0.8419 -0.9011 -0.3911
   67MOL   H13017422   6.126   2.771   0.243 -1.7117  0.3604  1.7320
   67MOL   H13117423   5.957   2.763   0.261 -1.4121  1.2952 -0.8008
   67MOL   C13217424   6.021   2.890   0.097  0.3592  0.3230 -0.1771
   67MOL   C13317425   6.048   3.016   0.173  0.2859 -0.1683 -0.3910
   67MOL   C13417426   5.955   3.107   0.210 -0.3050  0.1954 -0.1964
   67MOL   C13517427   5.984   3.236   0.291  0.8279 -0.3788 -0.4376
   67MOL   C13617428   5.812   3.106   0.166 -0.2280 -0.1936 -0.7165
   67MOL   H13717429   5.930   2.895   0.038  0.2877  0.3745 -0.0630
   67MOL   H13817430   6.103   2.899   0.026 -0.5317  1.4705 -1.0833
   67MOL   H13917431   6.153   3.026   0.197 -0.1315  1.8213  0.7021
   67MOL   H14017432   5.922   3.230   0.380 -0.3294 -0.8957 -1.2605
   67MOL   H14117433   5.979   3.321   0.223  2.8181  0.1445  0.0293
   67MOL   H14217434   6.088   3.222   0.321  1.7672  2.8040 -1.9398
   67MOL   H14317435   5.806   3.055   0.069 -0.7804 -0.8353 -0.3519
   67MOL   H14417436   5.779   3.208   0.147  0.7667  0.6255  1.7928
   67MOL   C14517437   5.722   3.042   0.268  0.1076  0.2183 -0.6761
   67MOL   C14617438   5.582   3.015   0.214 -0.2498  0.7494  0.2320
   67MOL   C14717439   5.463   3.011   0.275  0.5690 -0.2998 -0.2241
   67MOL   C14817440   5.339   2.977   0.193 -0.3537 -0.2454  0.2503
   67MOL   C14917441   5.443   3.048   0.421 -0.6085  1.0008  0.7858
   67MOL   H15017442   5.721   3.104   0.357  2.3934 -0.6319 -0.0305
   67MOL   H15117443   5.770   2.949   0.297 -0.0406  0.7342  1.2604
   67MOL   H15217444   5.571   2.988   0.110 -1.3980  1.3731  0.1853
   67MOL   H15317445   5.281   2.898   0.242  0.7466 -0.7933  0.6819
   67MOL   H15417446   5.353   2.932   0.095  0.1276 -1.6208  0.9338
   67MOL   H15517447   5.282   3.066   0.167  0.7685  0.5326  0.4218
   67MOL   H15617448   5.536   3.035   0.475 -0.9037  0.1028  1.0861
   67MOL   H15717449   5.376   2.971   0.459  1.7894 -0.5666  1.9532
   67MOL   C15817450   5.384   3.190   0.435  0.0593  0.2617  0.6160
   67MOL   C15917451   5.467   3.299   0.372  0.0015  0.0397  0.0838
   67MOL   C16017452   5.440   3.407   0.294  0.2534  0.6117  0.2423
   67MOL   C16117453   5.297   3.448   0.268  0.2915 -0.0588  0.5505
   67MOL   C16217454   5.551   3.490   0.234 -0.3996  0.1662 -0.0668
   67MOL   H16317455   5.391   3.219   0.539  1.0502  4.1762 -0.4746
   67MOL   H16417456   5.277   3.180   0.416 -0.1952 -0.1773  2.2622
   67MOL   H16517457   5.569   3.264   0.378 -0.0497 -0.3397 -1.0467
   67MOL   H16617458   5.266   3.454   0.164 -0.3824  0.4797  0.7821
   67MOL   H16717459   5.273   3.540   0.321 -0.2038  0.8619 -1.2465
   67MOL   H16817460   5.230   3.374   0.312 -1.4164  0.6005 -0.8970
   67MOL   H16917461   5.639   3.451   0.284  1.3017  2.2441 -1.3779
   67MOL   H17017462   5.536   3.594   0.265  3.3655  0.4454  1.1012
   67MOL   C17117463   5.566   3.480   0.082  0.3608  0.5444 -0.1780
   67MOL   C17217464   5.702   3.523   0.034  0.1187  0.0022 -0.3880
   67MOL   C17317465   5.764   3.467   7.809  0.9029 -0.6584  0.9701
   67MOL   C17417466   5.710   3.344   7.722  0.3056 -0.0067  0.5430
   67MOL   C17517467   5.902   3.520   7.762 -0.6918  0.1962  0.3286
   67MOL   H17617468   5.494   3.548   0.035  1.4785 -0.8594 -4.1162
   67MOL   H17717469   5.540   3.378   0.056  2.5698 -0.4791  1.5027
   67MOL   H17817470   5.747   3.605   0.087 -0.5396  0.8143 -1.0845
   67MOL   H17917471   5.712   3.386   7.622 -3.4347 -0.3506  0.2559
   67MOL   H18017472   5.606   3.317   7.739  0.0371  0.1791 -0.7744
   67MOL   H18117473   5.768   3.252   7.725  0.1269 -0.2844 -2.8252
   67MOL   H18217474   5.941   3.606   7.817  1.6338  0.0013 -0.9692
   67MOL   H18317475   5.888   3.564   7.664 -0.3996  0.8248  0.5653
   67MOL   C18417476   6.010   3.413   7.744 -0.5767  0.1513 -0.2890
   67MOL   C18517477   6.132   3.479   7.687  0.2825 -0.5111 -0.0459
   67MOL   C18617478   6.258   3.462   7.728  0.0340  0.2384  0.4454
   67MOL   C18717479   6.365   3.554   7.669 -0.1144  0.6803  0.2144
   67MOL   C18817480   6.303   3.378   7.846  0.4420  0.2252  0.4614
   67MOL   H18917481   5.977   3.336   7.674  0.5798 -1.2608  0.6823
   67MOL   H19017482   6.020   3.367   7.842 -0.7608 -0.7224 -0.6713
   67MOL   H19117483   6.097   3.542   7.607  1.7124 -0.0199 -0.2897
   67MOL   H19217484   6.466   3.513   7.672  0.0721  1.2479  2.1148
   67MOL   H19317485   6.380   3.646   7.726  1.9125  0.7191 -0.3369
   67MOL   H19417486   6.345   3.581   7.565 -1.8049 -0.7946  0.1497
   67MOL   H19517487   6.216   3.347   0.026  0.7496 -1.5883 -0.0024
   67MOL   H19617488   6.379   3.433   0.022  1.1853 -0.9375  0.6138
   67MOL   C19717489   6.365   3.251   7.794 -0.4529 -0.0825 -0.6677
   67MOL   C19817490   6.432   3.173   0.028  0.3743  0.1401  0.5926
   67MOL   C19917491   6.448   3.038   0.040  0.0844 -0.0948 -0.9730
   67MOL   C20017492   6.523   2.980   0.153  0.0650  0.1935 -0.4172
   67MOL   C20117493   6.403   2.933   7.819 -0.6271  0.6932 -0.0820
   67MOL   H20217494   6.439   3.270   7.716 -0.0850  2.5044  0.2686
   67MOL   H20317495   6.293   3.184   7.748  0.2464 -1.2315 -0.1291
   67MOL   H20417496   6.473   3.228   0.112  0.7935 -1.5807  1.5468
   67MOL   H20517497   6.491   2.879   0.181 -0.4110  0.7833  1.2366
   67MOL   H20617498   6.498   3.040   0.240  1.3905  0.3522 -0.1307
   67MOL   H20717499   6.630   2.994   0.140  0.1774  1.1218  1.3332
   67MOL   H20817500   6.310   2.961   7.768 -1.0145 -2.5167 -1.2818
   67MOL   H20917501   6.370   2.842   7.870  1.1117 -0.2582 -0.6150
   67MOL   C21017502   6.511   2.885   7.715 -0.1471 -0.1422  0.5147
   67MOL   C21117503   6.586   2.993   7.638  0.8964  0.1189 -0.5762
   67MOL   C21217504   6.714   2.978   7.599  0.2960 -0.4257 -0.5717
   67MOL   C21317505   6.785   3.098   7.541 -0.3511  0.1718 -0.1130
   67MOL   C21417506   6.792   2.843   7.607  0.4556 -0.2708 -0.2380
   67MOL   H21517507   6.454   2.821   7.647 -1.1608  1.3790 -0.1159
   67MOL   H21617508   6.578   2.815   7.763 -0.2550 -0.1291  0.6824
   67MOL   H21717509   6.530   3.086   7.635 -0.5686 -0.7235  0.2607
   67MOL   H21817510   6.866   3.125   7.608 -0.7002 -4.0283  2.1641
   67MOL   H21917511   6.719   3.181   7.515  0.1246  0.3701 -0.7113
   67MOL   H22017512   6.834   3.073   7.447  2.8487  0.5362  1.3939
   67MOL   H22117513   6.852   2.833   7.517  2.2956  2.3521  0.6440
   67MOL   H22217514   6.721   2.760   7.615  0.6544 -0.3334  1.0946
   67MOL   C22317515   6.878   2.840   7.734 -0.2117  1.0388 -0.2044
   67MOL   C22417516   6.939   2.701   7.762 -0.7960  0.4252  0.3483
   67MOL   C22517517   7.067   2.668   7.759  0.0493  0.1882  0.6418
   67MOL   C22617518   7.112   2.535   7.816 -0.8621  0.1526 -0.8227
   67MOL   C22717519   7.177   2.763   7.716  0.1246  0.1971  0.2864
   67MOL   H22817520   6.830   2.873   7.826  0.7911  0.8442  0.3927
   67MOL   H22917521   6.950   2.920   7.717  0.1547  1.2787  2.3653
   67MOL   H23017522   6.873   2.630   7.810 -0.4506  0.8075  1.3792
   67MOL   H23117523   7.039   2.458   7.792 -1.4470  0.3849  0.2084
   67MOL   H23217524   7.118   2.538   0.046  3.0657  0.8353 -0.9723
   67MOL   H23317525   7.205   2.501   7.771  0.3539  1.3363  0.7314
   67MOL   H23417526   7.136   2.861   7.691 -0.6979  0.1397  1.3796
   67MOL   H23517527   7.229   2.724   7.628 -0.5419  2.7072 -1.2753
   67MOL   C23617528   7.270   2.807   7.833 -0.2272 -0.0170  0.3539
   67MOL   C23717529   7.387   2.880   7.768 -0.1944 -0.1287  0.5530
   67MOL   C23817530   7.522   2.866   7.794  0.8102  0.1499 -0.0643
   67MOL   C23917531   7.625   2.952   7.729  1.0897  0.3961  0.8871
   67MOL   C24017532   7.577   2.768   0.022  0.4079  0.2429  0.1300
   67MOL   H24117533   7.312   2.714   7.873  0.3563 -0.7406 -1.8584
   67MOL   H24217534   7.231   2.872   0.032  1.1632 -1.3737  2.2426
   67MOL   H24317535   7.360   2.962   7.702 -1.6406 -0.9106  0.1554
   67MOL   H24417536   7.724   2.962   7.774  1.0306  0.7272  0.9489
   67MOL   H24517537   7.583   3.052   7.718  0.5873  0.2614  1.5279
   67MOL   H24617538   7.643   2.916   7.628  0.6523 -1.0744  1.3210
   67MOL   H24717539   7.503   2.734   0.094 -0.7610  0.9048 -0.7494
   67MOL   H24817540   7.630   2.841   0.083  0.8833 -0.8825  1.0743
   67MOL   C24917541   7.675   2.660   7.846  0.3132 -0.0210  0.2830
   67MOL   C25017542   7.747   2.573   0.066  0.0055  0.1926  0.9333
   67MOL   C25117543   0.001   2.553   0.062  0.3925 -0.3173  0.3861
   67MOL   C25217544   0.065   2.463   0.163 -0.6576 -0.4698 -0.1165
   67MOL   C25317545   0.085   2.602   7.829  0.3979 -0.0362  0.2845
   67MOL   H25417546   7.751   2.704   7.782 -0.3944 -0.6582 -1.0186
   67MOL   H25517547   7.618   2.591   7.784 -0.0006  0.1418  0.3890
   67MOL   H25617548   7.679   2.534   0.140 -0.9525 -1.9422 -1.0091
   67MOL   H25717549   0.004   2.477   0.252  0.3873  0.3163  0.4893
   67MOL   H25817550   0.170   2.487   0.184 -0.4288 -1.8246  0.3506
   67MOL   H25917551   0.068   2.359   0.131  0.4554 -0.0302 -1.4690
   67MOL   H26017552   0.184   2.561   7.850  0.6363 -0.1083 -0.9480
   67MOL   H26117553   0.105   2.708   7.840  0.9798 -0.3496  2.5997
   67MOL   H26217554   0.039   2.569   7.736  1.2776  0.2740 -0.2676
   68MOL     C117555   2.816   6.722   6.084 -0.4839  0.6320 -0.2268
   68MOL     C217556   2.728   6.766   5.965 -0.3028  0.3891 -0.0664
   68MOL     C317557   2.781   6.802   5.845  0.8585 -0.7049  0.3945
   68MOL     C417558   2.692   6.857   5.743 -0.3277  0.4046 -0.0103
   68MOL     C517559   2.926   6.800   5.801  0.3295  0.0590 -0.6717
   68MOL     H617560   2.911   6.774   6.076 -0.5150  0.6209 -0.7215
   68MOL     H717561   2.766   6.742   6.179  1.0840 -0.1632  0.7850
   68MOL     H817562   2.621   6.761   5.977 -0.6158 -2.0877 -3.3412
   68MOL     H917563   2.698   6.963   5.719 -0.6974  0.5027  0.3242
   68MOL    H1017564   2.585   6.855   5.767 -0.5106  0.4807 -0.7788
   68MOL    H1117565   2.708   6.802   5.650 -1.3577 -0.3629  0.2556
   68MOL    H1217566   2.935   6.764   5.699  1.5715  0.0032 -0.5478
   68MOL    H1317567   2.975   6.729   5.868  0.5222  0.2126 -0.6521
   68MOL    H1417568   2.821   6.614   6.073 -2.9997  0.4823 -0.2826
   68MOL    C1517569   2.976   6.942   5.823 -0.1252  1.0215 -0.5010
   68MOL    C1617570   3.115   6.953   5.770 -0.6377  0.5575 -0.1613
   68MOL    C1717571   3.149   6.991   5.643  0.2691  0.3178  0.0889
   68MOL    C1817572   3.291   6.998   5.603  0.1587 -0.0150 -0.3186
   68MOL    C1917573   3.044   7.027   5.535  0.7425  0.2819  0.2270
   68MOL    H2017574   2.975   6.964   5.929  0.3185 -0.2282 -0.2271
   68MOL    H2117575   2.913   7.011   5.767  0.8206  1.8399 -0.5697
   68MOL    H2217576   3.194   6.916   5.834 -0.8156  2.1521  1.0183
   68MOL    H2317577   3.326   6.921   5.534  0.2973 -2.2166  2.1426
   68MOL    H2417578   3.353   6.986   5.691 -2.2289  3.3154  1.9207
   68MOL    H2517579   3.310   7.098   5.563 -0.7752 -0.6379 -2.4022
   68MOL    H2617580   2.948   6.978   5.551  0.6530  0.7178  1.0698
   68MOL    H2717581   3.071   6.999   5.433 -0.6429 -2.0531  0.4461
   68MOL    C2817582   3.010   7.173   5.527 -0.3773 -0.1213  0.2319
   68MOL    C2917583   2.875   7.211   5.460  0.5428 -0.2909 -0.0758
   68MOL    C3017584   2.852   7.302   5.364  0.3906 -0.2387  0.1733
   68MOL    C3117585   2.715   7.325   5.310 -0.1160  0.0892 -0.0316
   68MOL    C3217586   2.969   7.383   5.297  0.1472 -0.6680  0.3447
   68MOL    H3317587   3.091   7.223   5.475 -1.6899  2.9821  1.0460
   68MOL    H3417588   3.009   7.209   5.630 -0.6778 -1.6849  0.7866
   68MOL    H3517589   2.806   7.141   5.505  2.4306 -1.7540  0.6143
   68MOL    H3617590   2.636   7.254   5.333  0.0816 -0.2835 -0.4887
   68MOL    H3717591   2.726   7.327   5.201  2.9262 -0.1514  0.2327
   68MOL    H3817592   2.665   7.413   5.351  3.1111  1.9120  0.1498
   68MOL    H3917593   2.973   7.362   5.190  0.2140  0.6497  0.0804
   68MOL    H4017594   3.071   7.356   5.322  0.0816 -0.7095  0.5669
   68MOL    C4117595   2.944   7.537   5.326  0.3379 -0.2895  0.6122
   68MOL    C4217596   2.963   7.573   5.469 -0.2928 -0.4727 -0.3379
   68MOL    C4317597   2.914   7.683   5.523  0.0579  0.0094  0.9247
   68MOL    C4417598   2.935   7.706   5.672 -0.3928 -0.1553 -0.9615
   68MOL    C4517599   2.823   7.781   5.464 -0.6515 -0.3555  0.0481
   68MOL    H4617600   2.842   7.568   5.303  0.7072 -0.0109 -0.7135
   68MOL    H4717601   3.026   7.580   5.267 -0.0435 -0.1423  0.1851
   68MOL    H4817602   3.016   7.504   5.533  0.1115  1.4833  1.4887
   68MOL    H4917603   2.853   7.691   5.742 -0.4037 -1.8211 -1.2906
   68MOL    H5017604   2.963   7.809   5.690 -1.1197 -0.4337  1.8851
   68MOL    H5117605   3.024   7.654   5.708 -0.6623  0.7069  0.9755
   68MOL    H5217606   2.738   7.815   5.523 -0.4457 -0.2564  0.2885
   68MOL    H5317607   2.763   7.729   5.389  1.9490 -2.3008 -0.7572
   68MOL    C5417608   2.892   0.022   5.393  0.4605 -0.7436  0.0323
   68MOL    C5517609   2.785   0.086   5.304 -0.0653 -0.1846 -0.8405
   68MOL    C5617610   2.702   0.189   5.330 -0.3799 -0.6071  0.7222
   68MOL    C5717611   2.576   0.217   5.244 -0.6207  0.0311 -0.7946
   68MOL    C5817612   2.733   0.283   5.442  0.5376 -0.2456  0.0626
   68MOL    H5917613   2.976   7.868   5.332  1.9374  0.3644  1.4382
   68MOL    H6017614   2.932   0.088   5.470  0.1826 -2.0211  1.2964
   68MOL    H6117615   2.763   0.030   5.214 -2.0224 -0.6553 -0.0904
   68MOL    H6217616   2.573   0.154   5.156  0.1342  0.4110 -1.0975
   68MOL    H6317617   2.577   0.324   5.223  1.9248  0.2642  0.2464
   68MOL    H6417618   2.483   0.207   5.300  0.8861  1.8509  2.2147
   68MOL    H6517619   2.762   0.235   5.535 -1.1315 -0.3126  0.5747
   68MOL    H6617620   2.643   0.333   5.478  1.0873 -0.7473  2.1741
   68MOL    C6717621   2.828   0.397   5.402  0.6057  0.5672 -0.0677
   68MOL    C6817622   2.808   0.517   5.500  0.3878  1.6148  0.3896
   68MOL    C6917623   2.888   0.566   5.590  0.0993  0.2468  0.1963
   68MOL    C7017624   2.840   0.683   5.669 -0.4975 -0.1541 -0.0673
   68MOL    C7117625   3.038   0.527   5.606  0.1842 -1.1121 -0.2928
   68MOL    H7217626   2.789   0.429   5.306  0.8002  2.6184  0.5257
   68MOL    H7317627   2.931   0.363   5.394  0.5292  0.4505 -0.6023
   68MOL    H7417628   2.712   0.563   5.483 -0.2537 -0.2566 -1.2920
   68MOL    H7517629   2.916   0.758   5.645 -0.7747 -0.4499 -1.9301
   68MOL    H7617630   2.837   0.653   5.774 -0.4917 -0.7423 -0.2374
   68MOL    H7717631   2.752   0.738   5.634  0.2320  0.0835 -1.5824
   68MOL    H7817632   3.083   0.617   5.647  1.8286 -0.7626 -2.7452
   68MOL    H7917633   3.081   0.513   5.507  0.7849 -2.2492  0.1203
   68MOL    C8017634   3.065   0.391   5.667  1.1084 -0.3067 -0.3518
   68MOL    C8117635   2.992   0.360   5.799 -0.6867  0.6975 -0.6280
   68MOL    C8217636   3.046   0.316   5.916 -0.5282 -0.1232 -0.4092
   68MOL    C8317637   3.188   0.276   5.926 -0.4213 -0.6361 -0.6105
   68MOL    C8417638   2.955   0.295   6.033  0.0674  0.8261 -0.2055
   68MOL    H8517639   3.173   0.381   5.664  1.3794  2.6055 -4.0483
   68MOL    H8617640   3.022   0.315   5.601  1.3740  0.4693 -1.4197
   68MOL    H8717641   2.887   0.386   5.799 -0.5113  1.4409  0.3599
   68MOL    H8817642   3.253   0.363   5.932 -1.2820 -0.1410  1.7852
   68MOL    H8917643   3.218   0.220   5.837  1.6317  0.0838 -0.3948
   68MOL    H9017644   3.203   0.214   6.014 -0.7799  2.3616  1.6355
   68MOL    H9117645   2.967   0.190   6.057 -1.3258  1.4554  3.4729
   68MOL    H9217646   2.853   0.292   5.994  0.6977  2.6395 -2.0807
   68MOL    C9317647   2.983   0.375   6.154  0.0272 -0.2008  0.0556
   68MOL    C9417648   2.883   0.339   6.260 -0.4434 -1.0259 -0.0230
   68MOL    C9517649   2.891   0.246   6.359  0.1222  0.4345  0.0432
   68MOL    C9617650   2.793   0.227   6.465 -0.0235  0.3096 -0.3192
   68MOL    C9717651   3.015   0.161   6.374 -0.1538 -0.1456 -0.4006
   68MOL    H9817652   2.963   0.474   6.114  3.1907 -0.2245 -1.7281
   68MOL    H9917653   3.088   0.374   6.184  0.0519  0.8755  0.0181
   68MOL   H10017654   2.800   0.408   6.259 -0.0833 -0.5767  0.3761
   68MOL   H10117655   2.818   0.283   6.555  0.9518  0.0906 -0.4394
   68MOL   H10217656   2.688   0.237   6.438 -0.2687 -0.8687  0.1471
   68MOL   H10317657   2.791   0.120   6.490 -2.2010  0.2138 -0.8094
   68MOL   H10417658   3.062   0.149   6.276 -0.1100 -0.3998 -0.3468
   68MOL   H10517659   2.980   0.063   6.405 -3.5123  0.3771 -2.2541
   68MOL   C10617660   3.112   0.203   6.480 -0.6313 -0.0446 -0.1545
   68MOL   C10717661   3.236   0.113   6.483 -0.5643 -0.0901 -0.4331
   68MOL   C10817662   3.357   0.143   6.430 -0.4687 -0.2852  0.2503
   68MOL   C10917663   3.391   0.273   6.353  0.2633  0.8436 -0.1820
   68MOL   C11017664   3.478   0.047   6.442  0.1653  0.4656 -0.4781
   68MOL   H11117665   3.070   0.218   6.580  1.6524  0.3514  0.7625
   68MOL   H11217666   3.150   0.301   6.453 -0.2566  0.1088  0.9215
   68MOL   H11317667   3.220   0.021   6.536 -1.5875  0.0546 -0.4754
   68MOL   H11417668   3.484   0.254   6.298 -0.4430 -2.6577 -0.2825
   68MOL   H11517669   3.315   0.337   6.307 -0.3267 -0.6355 -1.3172
   68MOL   H11617670   3.425   0.333   6.437 -2.3271  0.2786  1.3145
   68MOL   H11717671   3.510   0.013   6.344 -0.3171  1.2278 -0.8967
   68MOL   H11817672   3.430   7.846   6.499 -1.8826  2.1111  0.1630
   68MOL   C11917673   3.595   0.090   6.532  0.1516 -0.2171  0.4880
   68MOL   C12017674   3.667   7.852   6.594  0.1476 -0.0924  0.2534
   68MOL   C12117675   3.794   7.816   6.593 -0.2461 -0.1089 -0.4437
   68MOL   C12217676   3.835   7.694   6.672 -0.0926 -0.6442  0.6466
   68MOL   C12317677   3.902   0.023   6.527  0.3463 -0.0772  0.0023
   68MOL   H12417678   3.564   0.156   6.612  1.1766  1.6141 -0.5956
   68MOL   H12517679   3.662   0.160   6.481 -0.4100  1.2914  1.7859
   68MOL   H12617680   3.595   7.795   6.651  1.7227 -2.6343 -0.2357
   68MOL   H12717681   3.924   7.707   6.734  0.4633  0.7041 -0.4049
   68MOL   H12817682   3.865   7.616   6.602 -1.6351 -0.6095 -0.0616
   68MOL   H12917683   3.759   7.636   6.724  2.1458 -3.3979  0.9621
   68MOL   H13017684   3.866   0.068   6.435 -3.7431 -0.7483  1.1469
   68MOL   H13117685   3.981   7.836   6.492  2.6258  1.5149  1.9672
   68MOL   C13217686   3.965   0.122   6.631  0.0350  0.0934 -0.5987
   68MOL   C13317687   4.069   0.211   6.563 -0.6079 -0.6321  0.3620
   68MOL   C13417688   4.089   0.336   6.599  0.3589  0.2696  0.8117
   68MOL   C13517689   4.194   0.418   6.521 -0.3170  0.3937 -0.3894
   68MOL   C13617690   4.024   0.413   6.710  0.2297  0.6789 -0.3870
   68MOL   H13717691   4.021   0.064   6.704 -1.0147 -0.7997 -0.4885
   68MOL   H13817692   3.896   0.174   6.697 -0.1322  2.7756 -2.7902
   68MOL   H13917693   4.129   0.175   6.481  0.7732  1.2793  0.5100
   68MOL   H14017694   4.256   0.344   6.471 -1.9244  0.2772 -2.2809
   68MOL   H14117695   4.247   0.494   6.579  0.5361  0.3779 -1.1373
   68MOL   H14217696   4.140   0.474   6.444 -0.9891  0.8601  0.4069
   68MOL   H14317697   3.917   0.393   6.724  0.0299 -0.0576 -2.7778
   68MOL   H14417698   4.029   0.519   6.686 -0.7349  0.1452 -3.1355
   68MOL   C14517699   4.100   0.383   6.845  0.0611 -0.0062 -0.5699
   68MOL   C14617700   4.049   0.478   6.954 -0.2793  0.5579 -0.3049
   68MOL   C14717701   4.030   0.437   7.078  0.6721 -0.2639  0.3862
   68MOL   C14817702   3.983   0.528   7.184 -0.0806 -0.0416  0.7335
   68MOL   C14917703   4.066   0.294   7.135  0.0412  0.6410 -0.3330
   68MOL   H15017704   4.205   0.400   6.824  0.4093 -0.2223  0.9912
   68MOL   H15117705   4.087   0.278   6.871 -1.0804  0.4436  0.7518
   68MOL   H15217706   4.052   0.580   6.921  1.2649  0.2151 -1.2954
   68MOL   H15317707   3.952   0.626   7.150 -0.7648 -0.8393 -0.9944
   68MOL   H15417708   4.074   0.540   7.244 -0.8846 -1.4751  2.2914
   68MOL   H15517709   3.905   0.481   7.245  0.7663 -0.7096  1.3290
   68MOL   H15617710   4.102   0.311   7.237 -0.1516 -0.8606  0.0015
   68MOL   H15717711   4.149   0.245   7.086  0.8797  0.1784  1.5167
   68MOL   C15817712   3.950   0.196   7.124 -0.0147 -0.3138  0.1493
   68MOL   C15917713   3.956   0.071   7.212 -0.1426 -0.0909  0.3164
   68MOL   C16017714   3.994   7.829   7.159 -0.2594 -0.8663  0.5101
   68MOL   C16117715   4.026   7.807   7.015  0.2203  0.5444  0.4175
   68MOL   C16217716   4.007   7.712   7.256 -0.6447 -0.3881 -0.1415
   68MOL   H16317717   3.942   0.185   7.015 -2.8026 -1.2430  0.4075
   68MOL   H16417718   3.857   0.243   7.156 -0.2293 -2.2253  2.4290
   68MOL   H16517719   3.945   0.079   7.319  0.6837 -1.0336  0.4875
   68MOL   H16617720   4.103   7.878   6.987 -1.6631  1.6502 -2.0998
   68MOL   H16717721   3.945   7.823   6.944 -0.6619 -2.3318  0.6922
   68MOL   H16817722   4.058   7.703   7.006 -2.6591 -0.1301 -3.1207
   68MOL   H16917723   4.026   7.761   7.351  1.4216  0.0352 -0.7547
   68MOL   H17017724   4.089   7.641   7.243  0.5016  1.1756 -1.6443
   68MOL   C17117725   3.861   7.640   7.260 -0.1369  0.0119 -0.6770
   68MOL   C17217726   3.840   7.536   7.364  0.9794  0.3271 -0.0052
   68MOL   C17317727   3.745   7.539   7.459 -0.0620 -0.8224  0.0745
   68MOL   C17417728   3.636   7.644   7.463  0.5536  0.2036  0.0329
   68MOL   C17517729   3.725   7.428   7.564 -0.5551 -0.0745 -0.4434
   68MOL   H17617730   3.843   7.594   7.163  1.9392 -1.9227 -0.2138
   68MOL   H17717731   3.784   7.717   7.258  0.5463  0.7208 -0.0076
   68MOL   H17817732   3.906   7.451   7.365 -0.5825 -0.9038  1.7335
   68MOL   H17917733   3.668   7.746   7.486  1.9732 -0.1472 -0.3882
   68MOL   H18017734   3.566   7.620   7.543  2.2558 -0.5169  1.3473
   68MOL   H18117735   3.573   7.641   7.374  0.5758 -0.4709  0.0386
   68MOL   H18217736   3.716   7.479   7.660  3.1031  0.7871 -0.4780
   68MOL   H18317737   3.816   7.369   7.578 -0.5657  0.1966  0.8460
   68MOL   C18417738   3.608   7.333   7.548 -0.1296  0.1294 -0.6051
   68MOL   C18517739   3.602   7.223   7.645 -0.3529 -0.1451 -0.9668
   68MOL   C18617740   3.494   7.186   7.717  0.2083  0.1664  0.4323
   68MOL   C18717741   3.498   7.057   7.796  0.4309 -0.6089  0.4213
   68MOL   C18817742   3.362   7.260   7.729 -0.8610 -0.4125 -1.3923
   68MOL   H18917743   3.609   7.289   7.448 -0.0737  3.0520 -1.9672
   68MOL   H19017744   3.516   7.391   7.555  0.0643  0.2853  0.6989
   68MOL   H19117745   3.688   7.158   7.648  0.4388  0.9393  2.5727
   68MOL   H19217746   3.429   6.978   7.765 -0.6000  0.0387  1.0491
   68MOL   H19317747   3.450   7.083   0.011  1.7338  1.4391  0.5422
   68MOL   H19417748   3.598   7.020   7.820  1.3105  0.4768 -1.4587
   68MOL   H19517749   3.378   7.368   7.734 -1.4280 -0.4599  3.1105
   68MOL   H19617750   3.310   7.249   7.824 -1.4589  1.6987 -1.4466
   68MOL   C19717751   3.278   7.225   7.600 -0.3354  0.0391 -0.6137
   68MOL   C19817752   3.165   7.328   7.572  0.3573 -0.0019 -0.0127
   68MOL   C19917753   3.033   7.307   7.536 -0.0463 -1.0221  0.3317
   68MOL   C20017754   2.935   7.425   7.517  0.0972 -0.4404 -1.0112
   68MOL   C20117755   2.972   7.168   7.518  0.1884 -0.0786  0.0207
   68MOL   H20217756   3.241   7.122   7.604  0.6024 -0.2767  0.0870
   68MOL   H20317757   3.341   7.229   7.511  0.0452  0.4196 -0.3243
   68MOL   H20417758   3.198   7.431   7.581 -0.6467  0.1945  1.6521
   68MOL   H20517759   2.837   7.398   7.558  0.3061  0.2141 -0.0514
   68MOL   H20617760   2.936   7.449   7.411  3.7683  1.6519 -0.5913
   68MOL   H20717761   2.986   7.507   7.569  2.8141 -1.8257 -1.3894
   68MOL   H20817762   2.883   7.154   7.578  1.4775 -0.7500  1.8286
   68MOL   H20917763   3.034   7.094   7.568  0.7157  0.0633 -0.4152
   68MOL   C21017764   2.963   7.124   7.368  0.3428 -0.8560 -0.3333
   68MOL   C21117765   2.913   6.984   7.357  0.3871  0.6653  0.1606
   68MOL   C21217766   2.801   6.941   7.295 -0.5809  0.5993  0.0456
   68MOL   C21317767   2.773   6.786   7.279  0.1171  0.2528 -0.7809
   68MOL   C21417768   2.704   7.034   7.223 -0.1964  0.8128 -0.2891
   68MOL   H21517769   3.053   7.128   7.308  0.3966 -3.5032 -0.4906
   68MOL   H21617770   2.888   7.183   7.315 -0.9509 -1.9574  0.2363
   68MOL   H21717771   2.978   6.911   7.403 -0.0517 -0.3590 -0.8236
   68MOL   H21817772   2.856   6.725   7.314  0.0001  0.0770 -0.8059
   68MOL   H21917773   2.751   6.771   7.173  1.8622 -0.5218 -1.0548
   68MOL   H22017774   2.688   6.762   7.343  1.0927 -1.7678 -0.2122
   68MOL   H22117775   2.644   6.975   7.153  1.0860  0.4170 -1.0805
   68MOL   H22217776   2.750   7.117   7.169 -0.3324  1.4547  0.5740
   68MOL   C22317777   2.608   7.093   7.323 -0.6991  0.3019 -0.0776
   68MOL   C22417778   2.508   7.200   7.265  0.0048 -0.3209 -0.1847
   68MOL   C22517779   2.388   7.242   7.321  0.1068 -0.1572  1.0311
   68MOL   C22617780   2.298   7.333   7.240 -0.2256  0.2475  0.0958
   68MOL   C22717781   2.339   7.212   7.457 -0.1454 -0.7945 -0.0413
   68MOL   H22817782   2.666   7.150   7.396  1.7682  0.7163 -2.2708
   68MOL   H22917783   2.555   7.010   7.369  1.8606 -1.6200 -0.4544
   68MOL   H23017784   2.538   7.236   7.167  1.6244 -0.2164  0.3316
   68MOL   H23117785   2.319   7.321   7.134 -0.2052  2.2462 -0.1552
   68MOL   H23217786   2.310   7.439   7.264  1.2537  0.5520 -1.8573
   68MOL   H23317787   2.192   7.309   7.243 -0.3769  0.9535  0.5675
   68MOL   H23417788   2.332   7.308   7.509 -1.2930 -0.9391  0.0881
   68MOL   H23517789   2.405   7.147   7.514  0.4603 -0.0942  0.0692
   68MOL   C23617790   2.206   7.137   7.473  0.2722 -0.5348  0.7140
   68MOL   C23717791   2.159   7.108   7.611 -0.0793  0.4631  0.4711
   68MOL   C23817792   2.033   7.093   7.652 -0.3244 -0.1906 -0.0639
   68MOL   C23917793   1.999   7.091   7.801  0.3004 -0.7029  0.5170
   68MOL   C24017794   1.916   7.088   7.554 -0.0656 -0.2381 -0.4364
   68MOL   H24117795   2.209   7.046   7.413  1.6496 -0.0099 -0.0183
   68MOL   H24217796   2.124   7.189   7.424 -0.8422 -1.9801  1.0151
   68MOL   H24317797   2.229   7.122   7.692 -0.5346  0.8565  0.8062
   68MOL   H24417798   2.076   7.034   7.853 -1.2221 -3.5630 -0.2516
   68MOL   H24517799   1.926   7.012   7.816 -1.4431  0.6303 -0.7473
   68MOL   H24617800   1.963   7.189   7.834 -0.3490 -1.0827  0.9405
   68MOL   H24717801   1.930   7.144   7.462  3.3559  2.6690  1.7291
   68MOL   H24817802   1.826   7.123   7.605 -1.5188 -1.3393 -2.1694
   68MOL   C24917803   1.883   6.952   7.506 -0.3194 -0.2308 -0.5467
   68MOL   C25017804   1.744   6.943   7.444 -0.5293 -0.3644  0.7809
   68MOL   C25117805   1.708   6.933   7.315  0.3709 -0.2771  0.1992
   68MOL   C25217806   1.568   6.938   7.279 -0.3339 -0.7829  0.3959
   68MOL   C25317807   1.804   6.901   7.199  0.0963 -0.2211  0.1657
   68MOL   H25417808   1.894   6.890   7.595  2.4631 -1.7720 -1.9146
   68MOL   H25517809   1.960   6.915   7.439  0.4055 -0.8409  0.6082
   68MOL   H25617810   1.665   6.962   7.515 -1.7837 -3.0456  0.1329
   68MOL   H25717811   1.543   6.837   7.246  1.1415 -0.7552 -0.8247
   68MOL   H25817812   1.555   7.011   7.199  0.2985  0.7961  1.6976
   68MOL   H25917813   1.506   6.967   7.365 -0.1134  0.6115  0.1007
   68MOL   H26017814   1.906   6.889   7.237 -0.2059  0.7533  1.3140
   68MOL   H26117815   1.805   6.985   7.130  1.7591  0.4394  0.9513
   68MOL   H26217816   1.778   6.812   7.141 -0.7921  0.1124  0.0537
   69MOL     C117817   1.368   6.352   0.302  0.9311 -0.2319  0.1072
   69MOL     C217818   1.247   6.350   0.401 -0.1215  0.2321 -0.0358
   69MOL     C317819   1.216   6.242   0.473  0.3286 -1.0387 -0.1684
   69MOL     C417820   1.097   6.245   0.568 -0.1335  0.3985  0.1164
   69MOL     C517821   1.284   6.106   0.462  0.2186  0.2250 -0.5082
   69MOL     H617822   1.402   6.451   0.274  2.6714 -1.1427 -1.1238
   69MOL     H717823   1.463   6.308   0.333  1.8498  1.1500 -0.7118
   69MOL     H817824   1.199   6.446   0.408 -1.3359 -0.4207  0.6638
   69MOL     H917825   1.142   6.235   0.667 -0.8845  1.0606  0.5293
   69MOL    H1017826   1.022   6.170   0.544 -0.4433  1.2060 -1.4963
   69MOL    H1117827   1.052   6.344   0.562  1.5673  1.2362  0.9010
   69MOL    H1217828   1.289   6.057   0.560 -1.5459  2.1319  0.5882
   69MOL    H1317829   1.386   6.109   0.425  0.5565 -0.5098  0.3458
   69MOL    H1417830   1.345   6.302   0.208 -2.9766  1.0892  0.2734
   69MOL    C1517831   1.210   6.016   0.368  0.4586  0.5055  0.3638
   69MOL    C1617832   1.291   5.889   0.342  0.0492 -0.3330 -0.0106
   69MOL    C1717833   1.381   5.872   0.242 -0.0631  0.5777 -0.1598
   69MOL    C1817834   1.449   5.735   0.223  0.0164 -0.7095  0.4967
   69MOL    C1917835   1.424   5.978   0.144 -0.8643 -0.2032  0.4517
   69MOL    H2017836   1.205   6.072   0.274  0.5420 -0.8583 -0.4540
   69MOL    H2117837   1.108   6.001   0.405  0.8526  0.0337  1.2758
   69MOL    H2217838   1.273   5.808   0.411  1.3463 -0.7509 -0.1470
   69MOL    H2317839   1.437   5.672   0.311  0.6018 -0.1303  0.9987
   69MOL    H2417840   1.557   5.752   0.216 -0.1193 -0.2172 -0.3860
   69MOL    H2517841   1.415   5.689   0.130  1.2495  0.9630 -0.8027
   69MOL    H2617842   1.530   5.961   0.126 -1.4997 -0.2097 -3.9128
   69MOL    H2717843   1.425   6.080   0.183 -0.3710  0.7529 -1.9817
   69MOL    C2817844   1.350   5.959   0.011 -0.0529  0.5601 -0.4644
   69MOL    C2917845   1.442   5.998   7.775 -0.2389  1.3262  0.4230
   69MOL    C3017846   1.518   5.905   7.709  0.3945 -0.0623 -0.0021
   69MOL    C3117847   1.588   5.951   7.585 -1.2918 -0.3931  0.0628
   69MOL    C3217848   1.534   5.759   7.738 -0.3323  0.3928  0.1129
   69MOL    H3317849   1.259   6.019   0.006  0.7917  1.8318 -0.8250
   69MOL    H3417850   1.305   5.860   0.002 -1.2775  0.7396  3.1084
   69MOL    H3517851   1.435   6.098   7.735 -2.0643  0.4252 -1.5719
   69MOL    H3617852   1.690   5.953   7.623 -1.6772 -0.8506  1.1627
   69MOL    H3717853   1.550   6.051   7.568  2.2121  0.6427 -2.1343
   69MOL    H3817854   1.583   5.876   7.506  2.1057  0.3288 -0.9215
   69MOL    H3917855   1.526   5.705   7.643 -0.2152 -0.0883  0.3771
   69MOL    H4017856   1.463   5.724   7.813  0.9883 -0.7289  0.8622
   69MOL    C4117857   1.680   5.742   7.793  0.0065  0.1963  0.7874
   69MOL    C4217858   1.689   5.607   7.849  0.8804 -0.4545  0.5395
   69MOL    C4317859   1.731   5.491   7.784 -0.3366 -0.5576 -0.3689
   69MOL    C4417860   1.750   5.372   0.002  0.0330 -0.0768  0.0317
   69MOL    C4517861   1.761   5.482   7.632  0.3480  0.3765  0.4304
   69MOL    H4617862   1.708   5.820   7.863  0.1914  1.0884 -0.2658
   69MOL    H4717863   1.746   5.744   7.706  1.6909  1.1589  2.0626
   69MOL    H4817864   1.664   5.604   0.075 -0.0373  0.6178  0.3460
   69MOL    H4917865   1.840   5.379   0.063  1.1886 -2.1751 -1.3651
   69MOL    H5017866   1.762   5.283   7.819 -0.2800 -0.6824  0.8476
   69MOL    H5117867   1.660   5.353   0.060 -0.4455 -2.0343 -1.2940
   69MOL    H5217868   1.687   5.539   7.576 -1.5127  0.6650  3.0913
   69MOL    H5317869   1.732   5.386   7.589  0.1530  1.0330 -0.9298
   69MOL    C5417870   1.897   5.539   7.590 -0.1830  0.0078 -0.5519
   69MOL    C5517871   1.901   5.601   7.448 -0.3958  0.3108  0.3386
   69MOL    C5617872   1.968   5.544   7.348 -0.2721 -0.0996  0.5190
   69MOL    C5717873   1.988   5.624   7.220  0.0637 -0.3045 -0.0278
   69MOL    C5817874   2.051   5.414   7.346  0.2976 -0.7018 -0.4984
   69MOL    H5917875   1.972   5.463   7.608  0.0517  0.8672  2.2774
   69MOL    H6017876   1.915   5.631   7.646  0.3897 -0.2366 -0.3350
   69MOL    H6117877   1.865   5.702   7.434  0.7690  0.9729  1.9470
   69MOL    H6217878   2.090   5.655   7.197 -1.4343  3.6675 -1.6163
   69MOL    H6317879   1.927   5.714   7.224 -1.9523 -1.5525 -1.4651
   69MOL    H6417880   1.953   5.563   7.137  0.1379 -3.5059  2.1868
   69MOL    H6517881   2.110   5.395   7.436 -1.6590  2.9109  1.6650
   69MOL    H6617882   2.121   5.422   7.263  1.0072  1.0697  0.2498
   69MOL    C6717883   1.977   5.283   7.309  0.3285 -0.2942  0.5121
   69MOL    C6817884   2.073   5.168   7.311 -0.0668 -0.1238 -0.0819
   69MOL    C6917885   2.057   5.056   7.244 -0.2333 -0.8153  0.2571
   69MOL    C7017886   2.171   4.947   7.249  0.1910 -0.7229  0.1332
   69MOL    C7117887   1.926   5.011   7.179 -0.5717  0.2386 -0.1186
   69MOL    H7217888   1.944   5.282   7.205  0.4179  0.7912  0.4661
   69MOL    H7317889   1.891   5.262   7.372  0.6656 -1.7701  0.4833
   69MOL    H7417890   2.164   5.193   7.364 -0.1171  0.6997 -0.3749
   69MOL    H7517891   2.262   4.999   7.276 -0.5369 -0.7389  2.7427
   69MOL    H7617892   2.174   4.911   7.146  2.6697  0.5647 -0.2787
   69MOL    H7717893   2.147   4.865   7.317  0.1673 -0.4857  0.4073
   69MOL    H7817894   1.847   5.078   7.212  0.2346  0.1106  2.1650
   69MOL    H7917895   1.896   4.911   7.210  0.7767  0.3410  1.6026
   69MOL    C8017896   1.921   4.999   7.028  0.0471  0.1941  0.4719
   69MOL    C8117897   1.787   4.947   6.981 -0.4312  1.0346  0.7493
   69MOL    C8217898   1.706   5.008   6.895 -0.2931 -0.2131 -0.4595
   69MOL    C8317899   1.740   5.135   6.826  0.1501 -0.0799 -0.3781
   69MOL    C8417900   1.575   4.952   6.846 -0.4224 -0.2966  0.2855
   69MOL    H8517901   2.004   4.940   6.991  0.0810  0.4269  0.1778
   69MOL    H8617902   1.947   5.095   6.984  0.3719 -1.1489 -2.3198
   69MOL    H8717903   1.747   4.860   7.032 -1.5105  0.1733 -1.5197
   69MOL    H8817904   1.770   5.199   6.909  0.8566 -0.8591 -0.0233
   69MOL    H8917905   1.660   5.182   6.770  0.7600  2.1962  0.5869
   69MOL    H9017906   1.814   5.114   6.749 -0.6597 -0.7334 -0.9877
   69MOL    H9117907   1.579   4.965   6.738  4.1338  0.7431  0.5158
   69MOL    H9217908   1.490   5.013   6.878  0.7683  1.4209  0.2070
   69MOL    C9317909   1.552   4.806   6.899  0.5363 -0.0103 -0.0522
   69MOL    C9417910   1.424   4.744   6.835 -0.1309  0.6099  0.1181
   69MOL    C9517911   1.409   4.650   6.741  0.5529  0.0622 -1.0633
   69MOL    C9617912   1.271   4.613   6.683 -0.2906 -0.2629 -0.1134
   69MOL    C9717913   1.532   4.577   6.685  0.5283  0.0095 -0.0321
   69MOL    H9817914   1.530   4.803   7.006 -0.2071 -2.6428 -0.2431
   69MOL    H9917915   1.637   4.739   6.885  0.8722  0.5024 -0.4859
   69MOL   H10017916   1.328   4.772   6.875 -0.4505  1.9322 -1.5238
   69MOL   H10117917   1.207   4.532   6.719 -1.1813  1.1967  1.6767
   69MOL   H10217918   1.213   4.704   6.695  2.5966  1.9817 -2.5459
   69MOL   H10317919   1.285   4.607   6.575  2.5389  0.0245  0.2026
   69MOL   H10417920   1.609   4.653   6.700 -0.0388  0.3717  1.1153
   69MOL   H10517921   1.525   4.565   6.577 -4.9475 -1.4401  0.3532
   69MOL   C10617922   1.556   4.435   6.733  0.5312 -0.5306 -0.4687
   69MOL   C10717923   1.680   4.375   6.669  0.8741  0.6070 -0.4472
   69MOL   C10817924   1.688   4.290   6.564 -0.3362  0.1123  0.5225
   69MOL   C10917925   1.563   4.236   6.500  0.0294 -0.0550 -0.2140
   69MOL   C11017926   1.818   4.229   6.508  0.4225 -1.0120 -0.0393
   69MOL   H11117927   1.464   4.380   6.713  0.6018 -1.3461  1.3451
   69MOL   H11217928   1.568   4.418   6.840 -0.6799  1.1431 -0.0388
   69MOL   H11317929   1.772   4.414   6.710  2.1321 -1.3934 -1.3154
   69MOL   H11417930   1.581   4.217   6.394 -2.4120 -2.2332 -0.2944
   69MOL   H11517931   1.547   4.133   6.533 -0.4438 -0.4389 -1.6060
   69MOL   H11617932   1.479   4.304   6.506 -2.0667 -2.6413  0.7209
   69MOL   H11717933   1.894   4.275   6.571 -0.1596  0.4017 -0.3658
   69MOL   H11817934   1.835   4.269   6.409  2.1361  0.7861  0.9399
   69MOL   C11917935   1.850   4.078   6.503 -0.7583  0.0780  0.0322
   69MOL   C12017936   1.982   4.056   6.439  0.6560  0.1867 -0.4316
   69MOL   C12117937   2.054   3.954   6.482 -0.9494 -0.2254  0.1161
   69MOL   C12217938   2.164   3.907   6.393  0.4780 -0.2285 -1.1552
   69MOL   C12317939   2.035   3.860   6.604 -0.4623  0.7824  0.2230
   69MOL   H12417940   1.785   4.019   6.439 -0.9867 -0.0087  0.3435
   69MOL   H12517941   1.837   4.043   6.606  0.5039 -0.2558  0.0912
   69MOL   H12617942   2.006   4.121   6.356  1.9218  0.3326  0.0467
   69MOL   H12717943   2.251   3.867   6.445  0.0423  1.1047  0.6191
   69MOL   H12817944   2.223   3.973   6.329  1.6805 -1.9138 -1.8395
   69MOL   H12917945   2.128   3.831   6.324 -3.2401 -1.0654  1.6085
   69MOL   H13017946   1.971   3.902   6.681 -1.2702 -0.9587  0.5092
   69MOL   H13117947   2.130   3.864   6.658  0.5711 -0.1735 -1.4622
   69MOL   C13217948   1.992   3.717   6.571  0.2512 -0.2772 -0.0943
   69MOL   C13317949   1.993   3.626   6.690 -0.0447  0.4549  0.3016
   69MOL   C13417950   2.077   3.521   6.700  0.4550  0.5143 -0.6750
   69MOL   C13517951   2.084   3.423   6.816  0.1438 -0.2407  0.0203
   69MOL   C13617952   2.185   3.487   6.597 -0.0770  0.0791  0.1713
   69MOL   H13717953   2.073   3.684   6.505  1.6428 -0.4807  1.6776
   69MOL   H13817954   1.893   3.717   6.527  0.3522 -0.1183 -0.3292
   69MOL   H13917955   1.925   3.663   6.765 -4.2626  1.0267 -3.5821
   69MOL   H14017956   2.077   3.321   6.777 -0.8266  0.1011 -0.7396
   69MOL   H14117957   1.993   3.434   6.875  0.3180 -0.0070  0.2452
   69MOL   H14217958   2.175   3.436   6.874  2.0141 -5.1464 -1.5018
   69MOL   H14317959   2.257   3.418   6.641 -1.2278 -1.0198  0.3699
   69MOL   H14417960   2.247   3.571   6.566  1.0154 -0.9109 -0.3585
   69MOL   C14517961   2.126   3.412   6.468  0.8046  0.1505 -0.3852
   69MOL   C14617962   2.242   3.366   6.388  0.6429  0.0823  0.2221
   69MOL   C14717963   2.299   3.434   6.287  0.6780  0.1769 -0.0524
   69MOL   C14817964   2.419   3.374   6.224 -0.4045  0.4482 -0.1956
   69MOL   C14917965   2.266   3.576   6.232 -0.3101  0.3032 -0.3156
   69MOL   H15017966   2.061   3.478   6.411 -1.0950 -0.6536  0.7617
   69MOL   H15117967   2.068   3.322   6.492  0.1101 -0.0097 -2.5911
   69MOL   H15217968   2.276   3.265   6.408 -1.1332 -0.7001 -0.5600
   69MOL   H15317969   2.395   3.307   6.141 -0.1848 -1.1801  1.0255
   69MOL   H15417970   2.481   3.326   6.300 -0.7868  0.4813  0.1376
   69MOL   H15517971   2.475   3.450   6.170  0.3390 -1.1971 -1.8031
   69MOL   H15617972   2.351   3.642   6.252  0.6139 -0.9606  0.0437
   69MOL   H15717973   2.181   3.618   6.286  0.4051  1.0804  0.2121
   69MOL   C15817974   2.233   3.570   6.081  0.2416 -0.4988  0.3211
   69MOL   C15917975   2.213   3.714   6.037 -0.8130 -0.3556  0.1842
   69MOL   C16017976   2.094   3.779   6.010  0.1014 -0.3815 -0.7463
   69MOL   C16117977   1.951   3.705   6.009 -0.1424 -0.8503  0.9772
   69MOL   C16217978   2.085   3.933   5.991 -0.6741 -0.6164  0.0367
   69MOL   H16317979   2.148   3.503   6.065 -0.8078  0.3512  2.1472
   69MOL   H16417980   2.318   3.527   6.029 -0.4018 -0.5935 -0.6603
   69MOL   H16517981   2.302   3.775   6.036 -0.6444 -0.5754  1.1582
   69MOL   H16617982   1.885   3.778   6.055 -0.1907 -0.8224  0.8628
   69MOL   H16717983   1.961   3.619   6.076 -0.4361 -0.2407  1.8145
   69MOL   H16817984   1.923   3.668   5.910 -0.9208  0.2313  0.7874
   69MOL   H16917985   2.177   3.986   6.017 -0.9856  0.7112 -1.4979
   69MOL   H17017986   2.016   3.961   6.071  2.6371 -0.3737  2.9598
   69MOL   C17117987   2.030   3.973   5.856 -0.2454 -0.4210 -0.2831
   69MOL   C17217988   2.142   3.957   5.758 -0.6893  0.1822 -0.2747
   69MOL   C17317989   2.221   4.037   5.689 -0.3242  0.1157  0.2568
   69MOL   C17417990   2.226   4.185   5.712 -0.6096  0.0526  0.4447
   69MOL   C17517991   2.333   3.973   5.609  0.0082  0.1810 -0.0510
   69MOL   H17617992   1.992   4.075   5.850  1.2995  0.0746 -2.3065
   69MOL   H17717993   1.946   3.912   5.823 -1.3767  1.3476 -0.7009
   69MOL   H17817994   2.173   3.856   5.738  2.4344  1.0481 -0.0425
   69MOL   H17917995   2.296   4.203   5.793  1.9913  0.3733 -1.7986
   69MOL   H18017996   2.130   4.219   5.752  0.0997  0.9896  1.3742
   69MOL   H18117997   2.264   4.244   5.628 -0.8181 -0.1375  0.2142
   69MOL   H18217998   2.337   4.013   5.508 -3.3113 -2.0120 -1.1499
   69MOL   H18317999   2.319   3.865   5.598  0.0831  0.2745 -1.0926
   69MOL   C18418000   2.476   3.987   5.677 -0.2685  0.2631 -0.0140
   69MOL   C18518001   2.485   3.931   5.813 -0.4606  0.3823 -0.2449
   69MOL   C18618002   2.548   3.987   5.920 -0.4683 -0.1011  0.8025
   69MOL   C18718003   2.544   3.910   6.055  0.3049 -0.5606 -0.7054
   69MOL   C18818004   2.607   4.129   5.915  0.1550 -0.0330  0.0794
   69MOL   H18918005   2.477   4.095   5.694  0.0955  0.1682  0.5962
   69MOL   H19018006   2.560   3.962   5.613 -0.5418 -1.3784  0.2580
   69MOL   H19118007   2.449   3.829   5.816 -0.0399  0.2606  1.0225
   69MOL   H19218008   2.638   3.928   6.106  0.8621 -2.2385 -1.1045
   69MOL   H19318009   2.526   3.803   6.044 -2.5106 -0.1995 -0.1315
   69MOL   H19418010   2.468   3.952   6.120  0.2456 -1.0658 -0.4462
   69MOL   H19518011   2.619   4.170   5.815  0.2938 -0.7163 -0.1861
   69MOL   H19618012   2.714   4.112   5.927  0.1812 -0.5677 -0.8713
   69MOL   C19718013   2.544   4.231   6.008 -0.7268  0.2204  0.8655
   69MOL   C19818014   2.642   4.338   6.058  1.0570  0.4346 -0.8766
   69MOL   C19918015   2.668   4.455   6.007  0.2268  0.2950 -0.0082
   69MOL   C20018016   2.767   4.556   6.064  0.0029 -0.6630 -0.2019
   69MOL   C20118017   2.584   4.517   5.892 -0.1877 -0.3015 -0.3616
   69MOL   H20218018   2.496   4.177   6.090  0.5962 -0.8927  0.9301
   69MOL   H20318019   2.456   4.271   5.956 -0.2164 -0.7835 -0.8096
   69MOL   H20418020   2.709   4.307   6.137 -0.8296 -2.4519 -0.3478
   69MOL   H20518021   2.721   4.645   6.107  0.5215 -0.4369 -0.1156
   69MOL   H20618022   2.853   4.570   5.998  2.2400 -0.8428  2.5578
   69MOL   H20718023   2.806   4.521   6.159 -0.1350  2.2420  0.9919
   69MOL   H20818024   2.569   4.624   5.909  2.6110  0.4756 -2.4129
   69MOL   H20918025   2.488   4.465   5.890  0.2087 -1.1216  0.8900
   69MOL   C21018026   2.641   4.496   5.751 -0.1101  0.2562 -0.8460
   69MOL   C21118027   2.547   4.547   5.639  0.0169  0.1732 -0.5809
   69MOL   C21218028   2.517   4.486   5.520 -0.0182 -0.1112  0.5959
   69MOL   C21318029   2.422   4.551   5.420 -1.0752  0.3651  0.2695
   69MOL   C21418030   2.573   4.343   5.478 -0.5667 -0.5109 -0.1475
   69MOL   H21518031   2.670   4.395   5.724 -0.5615  1.1447 -5.0985
   69MOL   H21618032   2.729   4.559   5.738 -1.7124  2.0690 -3.5531
   69MOL   H21718033   2.508   4.644   5.667  0.2880  0.2574 -0.4916
   69MOL   H21818034   2.409   4.658   5.437  1.4528  0.8995 -0.9363
   69MOL   H21918035   2.325   4.509   5.446 -0.5727 -0.7838  0.3448
   69MOL   H22018036   2.451   4.553   5.315  2.4915 -0.2791  1.1581
   69MOL   H22118037   2.492   4.271   5.487 -2.9166  2.2974  2.5674
   69MOL   H22218038   2.644   4.303   5.550 -0.3879  0.3225  0.1468
   69MOL   C22318039   2.658   4.342   5.347  1.5157 -0.3784 -0.3945
   69MOL   C22418040   2.657   4.203   5.287  0.1920  0.2333 -0.0522
   69MOL   C22518041   2.755   4.108   5.306 -0.6190 -0.0074  0.0301
   69MOL   C22618042   2.752   3.976   5.234  0.3313  0.5568 -0.3728
   69MOL   C22718043   2.881   4.133   5.375  0.0250  0.1400 -0.2952
   69MOL   H22818044   2.756   4.388   5.357  0.5714  1.5463  0.3641
   69MOL   H22918045   2.620   4.406   5.267 -2.4587 -1.1618  0.7092
   69MOL   H23018046   2.569   4.180   5.229 -0.2880 -0.4254  0.9179
   69MOL   H23118047   2.834   3.970   5.162  2.1433  1.6756  1.5263
   69MOL   H23218048   2.664   3.965   5.170 -0.5418 -0.0082  0.8991
   69MOL   H23318049   2.765   3.888   5.297  1.7242  0.1311 -1.2446
   69MOL   H23418050   2.915   4.236   5.374  1.1261 -0.2167 -2.6703
   69MOL   H23518051   2.958   4.092   5.309 -0.8047 -0.6862 -0.7677
   69MOL   C23618052   2.885   4.074   5.522 -0.0548 -0.0557  0.1079
   69MOL   C23718053   3.021   4.088   5.578 -0.4218 -0.2710  0.1804
   69MOL   C23818054   3.068   4.198   5.642  0.3701 -0.3392  0.6733
   69MOL   C23918055   3.214   4.193   5.695  0.7439 -0.0182  0.6786
   69MOL   C24018056   2.994   4.330   5.663 -0.6104  0.7668 -0.0647
   69MOL   H24118057   2.864   3.968   5.519  0.7216 -0.2009 -0.3541
   69MOL   H24218058   2.814   4.129   5.584 -1.8673 -1.7601 -0.4255
   69MOL   H24318059   3.077   3.996   5.575 -1.4308 -0.8559 -1.7565
   69MOL   H24418060   3.279   4.275   5.666  1.3513 -0.4940  0.7068
   69MOL   H24518061   3.279   4.114   5.660  0.6083  0.8389 -1.6179
   69MOL   H24618062   3.205   4.186   5.803  1.9925  0.2862  0.8037
   69MOL   H24718063   2.969   4.341   5.769 -2.2441 -0.6040 -0.2792
   69MOL   H24818064   2.898   4.324   5.611 -0.5811  0.3193 -0.0713
   69MOL   C24918065   3.066   4.453   5.604 -0.1979 -0.5206  0.0432
   69MOL   C25018066   2.982   4.576   5.629 -0.4399 -0.0123  0.2282
   69MOL   C25118067   3.005   4.671   5.723  0.1547 -0.0903 -0.7129
   69MOL   C25218068   2.915   4.788   5.741 -0.6522  0.2612 -1.0597
   69MOL   C25318069   3.123   4.673   5.820  0.4062  0.3659 -0.2704
   69MOL   H25418070   3.101   4.439   5.501 -1.8915  1.5023 -0.8375
   69MOL   H25518071   3.158   4.471   5.659 -0.0892 -0.2736 -0.2170
   69MOL   H25618072   2.896   4.581   5.564 -1.0403 -1.4321  0.8906
   69MOL   H25718073   2.877   4.825   5.645  0.9721  1.1108 -1.3962
   69MOL   H25818074   2.954   4.869   5.803 -1.5403  0.6701 -1.0318
   69MOL   H25918075   2.824   4.749   5.786 -0.2095  1.9035  1.2890
   69MOL   H26018076   3.195   4.591   5.826  0.1101  0.1556  0.4004
   69MOL   H26118077   3.072   4.696   5.913 -0.4762 -1.9570 -0.1600
   69MOL   H26218078   3.192   4.746   5.778  0.6377  0.4992  0.3321
   70MOL     C118079   1.126   2.330   7.398 -0.1465 -0.0695 -0.4228
   70MOL     C218080   1.182   2.367   7.262  0.1474  0.6977 -0.6602
   70MOL     C318081   1.203   2.490   7.213 -0.1433  0.3321 -0.1596
   70MOL     C418082   1.266   2.501   7.077 -0.9038  0.1696  0.2132
   70MOL     C518083   1.187   2.615   7.295  0.0664 -0.0227  0.1975
   70MOL     H618084   1.047   2.255   7.390 -1.4189  0.8952  2.4918
   70MOL     H718085   1.200   2.288   7.466  0.4014  1.3579 -0.1256
   70MOL     H818086   1.219   2.283   7.207  0.3770 -1.3531  2.4737
   70MOL     H918087   1.209   2.435   7.011 -1.2520  0.1400  0.5351
   70MOL    H1018088   1.372   2.479   7.067 -1.1639 -0.5232 -1.2454
   70MOL    H1118089   1.255   2.605   7.046  1.9677  0.0571 -1.3612
   70MOL    H1218090   1.264   2.686   7.265 -0.1693  0.0296 -0.3058
   70MOL    H1318091   1.199   2.594   7.401  1.7837  2.7064  0.5679
   70MOL    H1418092   1.078   2.417   7.443  0.0395 -0.6691  0.9751
   70MOL    C1518093   1.054   2.687   7.278  0.8141 -0.0331  0.4863
   70MOL    C1618094   1.038   2.800   7.381  0.0437  0.4554 -0.0491
   70MOL    C1718095   0.927   2.834   7.451  0.0884  0.4581 -0.1270
   70MOL    C1818096   0.940   2.929   7.576  0.2680 -0.0809  0.3629
   70MOL    C1918097   0.788   2.786   7.427 -0.2519 -0.0697  0.3670
   70MOL    H2018098   0.971   2.616   7.279  1.3943 -0.7189  0.4828
   70MOL    H2118099   1.053   2.728   7.177  1.2039 -1.4547 -0.1081
   70MOL    H2218100   1.131   2.840   7.418  2.1376 -3.2501 -1.0029
   70MOL    H2318101   0.884   2.898   7.664  0.8115  0.6111  0.9659
   70MOL    H2418102   0.918   3.031   7.545  1.5676 -0.1686 -0.9108
   70MOL    H2518103   1.045   2.930   7.606  1.1286  0.3850 -2.5742
   70MOL    H2618104   0.756   2.738   7.520 -3.1690 -0.6545 -0.8825
   70MOL    H2718105   0.782   2.711   7.348 -0.5419 -1.3730  1.5961
   70MOL    C2818106   0.690   2.890   7.377 -0.2410 -0.4871  0.0488
   70MOL    C2918107   0.550   2.872   7.437  0.4633  0.4191  0.6065
   70MOL    C3018108   0.456   2.784   7.401 -0.3033  0.8606 -0.0756
   70MOL    C3118109   0.323   2.773   7.471  0.6362  0.6656 -0.5814
   70MOL    C3218110   0.486   2.667   7.305  0.0036  0.1899  0.1787
   70MOL    H3318111   0.682   2.899   7.269  0.8159  0.0359  0.0052
   70MOL    H3418112   0.739   2.983   7.404  2.8834 -2.1729  0.4284
   70MOL    H3518113   0.520   2.925   7.527  0.9600 -1.3241  1.8339
   70MOL    H3618114   0.245   2.796   7.398 -0.2932  0.2798  0.2789
   70MOL    H3718115   0.309   2.843   7.553  0.6742 -0.8435  0.7331
   70MOL    H3818116   0.307   2.679   7.524 -1.3832  1.6429  0.6158
   70MOL    H3918117   0.492   2.569   7.353  0.3896  1.1126  2.0883
   70MOL    H4018118   0.585   2.676   7.259  0.5439  2.3996  1.6962
   70MOL    C4118119   0.383   2.650   7.189 -0.1894 -0.0968 -0.7561
   70MOL    C4218120   0.374   2.760   7.088 -0.8328 -0.2316  0.3405
   70MOL    C4318121   0.312   2.746   6.963 -0.1071 -0.1075  0.1207
   70MOL    C4418122   0.313   2.855   6.854  0.1599  0.8827 -0.6690
   70MOL    C4518123   0.253   2.614   6.910  0.2633  0.4777 -0.8625
   70MOL    H4618124   0.285   2.648   7.237 -1.5851  1.8552 -3.3986
   70MOL    H4718125   0.406   2.554   7.142  1.3457 -0.7140  1.1867
   70MOL    H4818126   0.417   2.851   7.128 -0.0806 -0.5836  0.3392
   70MOL    H4918127   0.364   2.946   6.886  1.5029 -0.8851  2.5687
   70MOL    H5018128   0.210   2.882   6.831 -0.5491 -0.6081  0.6498
   70MOL    H5118129   0.355   2.821   6.759 -2.9555  2.6315 -2.7097
   70MOL    H5218130   0.166   2.633   6.848 -0.0769 -0.3496 -0.6482
   70MOL    H5318131   0.218   2.552   6.992 -0.1962  0.3757 -1.1363
   70MOL    C5418132   0.350   2.531   6.830  0.1863 -0.2571 -0.3481
   70MOL    C5518133   0.271   2.425   6.757  0.3112  0.4182  0.1235
   70MOL    C5618134   0.257   2.404   6.625 -0.1204  0.5631  0.2106
   70MOL    C5718135   0.155   2.302   6.574  0.3183 -0.6082 -0.7926
   70MOL    C5818136   0.308   2.497   6.520 -0.0790  0.1580  0.3264
   70MOL    H5918137   0.425   2.500   6.903  0.7107  0.9249 -0.3593
   70MOL    H6018138   0.393   2.599   6.757 -1.9337  0.1132 -1.2890
   70MOL    H6118139   0.230   2.353   6.825 -2.3449  0.5284 -1.3151
   70MOL    H6218140   0.131   2.226   6.649 -1.9092 -0.7685 -1.6464
   70MOL    H6318141   0.184   2.243   6.487 -1.1200 -1.7147 -0.5372
   70MOL    H6418142   0.059   2.346   6.549 -0.4655 -1.1332  1.1763
   70MOL    H6518143   0.351   2.435   6.441  1.3057 -0.3550  1.4475
   70MOL    H6618144   0.383   2.572   6.548 -0.2624  1.7602 -3.2930
   70MOL    C6718145   0.195   2.579   6.456  0.2068 -0.0764 -0.2969
   70MOL    C6818146   0.255   2.661   6.339  0.0977 -0.1705  0.3745
   70MOL    C6918147   0.238   2.796   6.319 -0.3271  0.3418  0.0074
   70MOL    C7018148   0.307   2.855   6.197 -0.1006  0.0334 -0.1839
   70MOL    C7118149   0.182   2.894   6.415  0.4492 -0.1415  0.1957
   70MOL    H7218150   0.151   2.645   6.531 -0.0469 -2.0567  1.3346
   70MOL    H7318151   0.119   2.512   6.415 -0.3959  1.3945 -1.6512
   70MOL    H7418152   0.310   2.609   6.262  0.6406  0.0551  0.6117
   70MOL    H7518153   0.392   2.920   6.215 -1.6050  1.6928  1.1028
   70MOL    H7618154   0.234   2.913   6.140  0.9715  0.1870 -1.4300
   70MOL    H7718155   0.351   2.779   6.132 -1.9443 -0.0171 -1.4225
   70MOL    H7818156   0.257   2.971   6.433  0.4759 -0.1670  0.1932
   70MOL    H7918157   0.170   2.851   6.515 -0.7287 -0.1924  0.0381
   70MOL    C8018158   0.049   2.952   6.374 -0.5886 -0.2828  0.3114
   70MOL    C8118159   7.814   2.841   6.368  0.0423  0.7259 -0.4620
   70MOL    C8218160   7.750   2.792   6.261 -0.3414  0.0887  0.2484
   70MOL    C8318161   7.789   2.818   6.120 -0.3305  0.2539  0.8392
   70MOL    C8418162   7.621   2.712   6.277 -0.7640  0.2221 -0.1899
   70MOL    H8518163   0.057   2.999   6.276  1.3315 -0.9819  0.1228
   70MOL    H8618164   0.012   3.030   6.440 -3.3695 -2.3494  1.3182
   70MOL    H8718165   7.765   2.813   6.460 -1.6675  1.4214 -1.1385
   70MOL    H8818166   7.721   2.781   6.043  0.3116 -1.3403  1.0006
   70MOL    H8918167   0.012   2.782   6.104 -0.1940  2.5995 -4.8461
   70MOL    H9018168   7.798   2.926   6.117 -2.3218  0.4278  0.9711
   70MOL    H9118169   7.613   2.677   6.380  2.2448 -2.1343 -0.7173
   70MOL    H9218170   7.604   2.619   6.224  1.2347 -0.4728  0.3494
   70MOL    C9318171   7.495   2.797   6.245  0.6099  0.5722  0.3193
   70MOL    C9418172   7.365   2.719   6.270 -0.9886  0.1530 -0.0051
   70MOL    C9518173   7.271   2.671   6.181 -0.4422 -0.1902  0.2260
   70MOL    C9618174   7.143   2.609   6.226 -0.1033  0.1836 -0.1139
   70MOL    C9718175   7.282   2.685   6.034 -0.6927  0.2940 -0.4227
   70MOL    H9818176   7.498   2.832   6.142 -1.0638  0.8043  0.3366
   70MOL    H9918177   7.490   2.883   6.312 -1.9350 -0.1410  1.0960
   70MOL   H10018178   7.354   2.705   6.376 -1.6816  3.0373  0.3328
   70MOL   H10118179   7.063   2.673   6.188 -0.0154  1.2321  1.4625
   70MOL   H10218180   7.129   2.508   6.187  0.8344 -0.1811  0.4695
   70MOL   H10318181   7.141   2.600   6.334  0.8192  0.5886 -0.0613
   70MOL   H10418182   7.283   2.584   5.993 -0.2262  1.4620 -3.4869
   70MOL   H10518183   7.380   2.722   6.003 -0.1269  0.1238  1.1516
   70MOL   C10618184   7.174   2.776   5.966 -0.0974 -0.7004  0.0067
   70MOL   C10718185   7.209   2.810   5.822 -0.7894 -0.4742  0.9202
   70MOL   C10818186   7.162   2.915   5.748  0.2495 -0.5446 -0.6983
   70MOL   C10918187   7.060   3.021   5.799  0.1002 -0.7740  0.2985
   70MOL   C11018188   7.189   2.950   5.603 -0.1557 -0.2593 -1.2678
   70MOL   H11118189   7.171   2.871   6.019 -0.4079 -0.2647 -0.8007
   70MOL   H11218190   7.085   2.715   5.955  0.1499 -0.5591 -3.1668
   70MOL   H11318191   7.274   2.737   5.777 -1.2596 -0.1669 -0.2864
   70MOL   H11418192   6.991   3.046   5.719 -0.7687  1.7924  1.7930
   70MOL   H11518193   7.018   2.985   5.894  0.0040 -0.2783  0.4451
   70MOL   H11618194   7.111   3.112   5.832  1.8392 -2.0293  1.1960
   70MOL   H11718195   7.218   3.055   5.595 -1.1715  0.1991  0.8622
   70MOL   H11818196   7.093   2.936   5.552  0.1959  0.7191 -2.2383
   70MOL   C11918197   7.291   2.860   5.526  0.5913 -0.6359  0.2843
   70MOL   C12018198   7.335   2.919   5.387  0.1374  0.4239  0.1843
   70MOL   C12118199   7.364   2.844   5.281  0.1484 -0.0598  0.7746
   70MOL   C12218200   7.407   2.896   5.143 -0.9724  0.3790 -0.0107
   70MOL   C12318201   7.361   2.696   5.285  0.3070  0.0291 -0.7163
   70MOL   H12418202   7.245   2.761   5.514 -0.7942 -0.0187  0.4254
   70MOL   H12518203   7.377   2.831   5.586 -1.2795 -0.1244  3.3716
   70MOL   H12618204   7.351   3.025   5.378 -0.3477  0.5607  0.9006
   70MOL   H12718205   7.502   2.845   5.126 -0.7984  0.2144  1.4507
   70MOL   H12818206   7.419   3.003   5.159 -0.0930  0.2908 -0.0807
   70MOL   H12918207   7.331   2.890   5.064 -1.0047 -0.1932  0.0620
   70MOL   H13018208   7.382   2.664   5.387  0.0141  0.4506 -0.5225
   70MOL   H13118209   7.446   2.664   5.226  0.6466  2.3634 -1.5591
   70MOL   C13218210   7.227   2.640   5.231 -0.4891 -0.1537  0.2624
   70MOL   C13318211   7.249   2.492   5.198 -0.1756 -0.2933 -0.4718
   70MOL   C13418212   7.264   2.444   5.073 -0.6268 -0.0017 -0.0659
   70MOL   C13518213   7.259   2.293   5.042 -0.0224  0.2007  0.4017
   70MOL   C13618214   7.279   2.524   4.951 -0.4662 -0.0609 -0.4879
   70MOL   H13718215   7.197   2.704   5.148 -0.3422 -0.5261 -0.0778
   70MOL   H13818216   7.143   2.644   5.301 -0.7948  2.7362 -0.1902
   70MOL   H13918217   7.241   2.421   5.279 -1.7615  0.2552 -0.1306
   70MOL   H14018218   7.349   2.270   4.986 -0.9155  1.0193 -1.3947
   70MOL   H14118219   7.176   2.274   4.974  0.4957 -1.1762  0.1264
   70MOL   H14218220   7.252   2.229   5.130  1.5851 -1.1465 -0.4304
   70MOL   H14318221   7.217   2.612   4.971 -2.2285 -0.8385 -2.3764
   70MOL   H14418222   7.243   2.463   4.868 -2.1519  1.3065 -0.7895
   70MOL   C14518223   7.428   2.554   4.922  0.0261  0.0850 -0.2142
   70MOL   C14618224   7.442   2.652   4.809  0.2539 -0.2828  0.0196
   70MOL   C14718225   7.427   2.630   4.680 -0.4800 -0.0218 -0.5115
   70MOL   C14818226   7.425   2.749   4.581  0.5082  0.4267  0.4488
   70MOL   C14918227   7.413   2.493   4.612  0.2416  0.4685 -0.0584
   70MOL   H15018228   7.479   2.458   4.911 -1.9595 -0.9564 -0.5398
   70MOL   H15118229   7.477   2.606   5.004  0.2552  0.6339 -0.6969
   70MOL   H15218230   7.433   2.754   4.843 -2.2403 -0.1236 -0.9790
   70MOL   H15318231   7.329   2.772   4.535  0.8129 -1.3758 -1.1136
   70MOL   H15418232   7.494   2.723   4.501 -1.5672  1.5251 -1.7909
   70MOL   H15518233   7.468   2.843   4.617  1.8730 -0.0126 -0.0263
   70MOL   H15618234   7.443   2.421   4.688  0.6455  3.1174  2.3659
   70MOL   H15718235   7.480   2.479   4.527 -1.1184 -2.4883 -0.7241
   70MOL   C15818236   7.265   2.465   4.573 -1.0568  0.0412 -0.5046
   70MOL   C15918237   7.249   2.326   4.510  0.0238  0.5599  0.5269
   70MOL   C16018238   7.203   2.209   4.563 -0.2389 -0.3574  0.1485
   70MOL   C16118239   7.162   2.192   4.704  0.4392  0.4789  0.4594
   70MOL   C16218240   7.193   2.082   4.486  0.4232  0.4085 -0.2162
   70MOL   H16318241   7.213   2.549   4.526  2.4425  1.2389 -2.4362
   70MOL   H16418242   7.202   2.463   4.662 -0.6651 -0.3787 -0.2337
   70MOL   H16518243   7.265   2.321   4.403  0.1361 -0.2383  0.5765
   70MOL   H16618244   7.229   2.133   4.766 -1.6451 -1.0304  1.3386
   70MOL   H16718245   7.057   2.163   4.710  0.6259 -0.9502 -2.3730
   70MOL   H16818246   7.170   2.289   4.753 -0.0463 -0.2260  1.9775
   70MOL   H16918247   7.224   2.011   4.562 -3.5746 -1.3063 -0.0611
   70MOL   H17018248   7.256   2.092   4.398 -0.1908 -0.7468 -0.7929
   70MOL   C17118249   7.049   2.055   4.433  0.0134  0.1081  0.1273
   70MOL   C17218250   6.949   1.996   4.530  0.2191  0.2288  0.1915
   70MOL   C17318251   6.839   2.058   4.583  0.6729 -0.1775 -0.3515
   70MOL   C17418252   6.797   2.202   4.547 -0.3100 -0.1103 -0.0583
   70MOL   C17518253   6.749   1.985   4.678  0.3504  0.1784 -0.3403
   70MOL   H17618254   7.055   1.982   4.352  1.9002  0.3216  0.0529
   70MOL   H17718255   7.016   2.148   4.387  1.9445 -0.2602 -2.1290
   70MOL   H17818256   6.968   1.895   4.562  0.5298 -0.2550 -1.4826
   70MOL   H17918257   6.712   2.233   4.607 -0.7202  1.8942 -1.6206
   70MOL   H18018258   6.792   2.219   4.439 -0.0727  0.8065  0.0743
   70MOL   H18118259   6.871   2.263   4.598 -0.2474  1.3561 -1.8380
   70MOL   H18218260   6.718   2.054   4.756 -2.0425 -1.4378  0.2032
   70MOL   H18318261   6.804   1.906   4.728 -0.6782 -1.6926 -2.0786
   70MOL   C18418262   6.626   1.915   4.611 -0.3501 -0.1932  0.3321
   70MOL   C18518263   6.550   1.996   4.504  0.2845 -0.3432  0.6973
   70MOL   C18618264   6.428   2.062   4.515  0.7324 -0.3854  0.7522
   70MOL   C18718265   6.372   2.142   4.403 -0.3844  0.2381  0.4162
   70MOL   C18818266   6.338   2.052   4.641  0.2050 -0.5855 -0.5700
   70MOL   H18918267   6.565   1.896   4.700  0.8216  0.2182  1.2387
   70MOL   H19018268   6.651   1.820   4.564  0.1744 -0.5405  1.3000
   70MOL   H19118269   6.619   2.011   4.422 -1.1279 -0.8187 -0.5942
   70MOL   H19218270   6.440   2.190   4.331 -2.4726  3.5629  0.5260
   70MOL   H19318271   6.316   2.227   4.442 -2.7279 -1.5640  1.0852
   70MOL   H19418272   6.294   2.091   4.346 -2.1945  0.3835  2.7234
   70MOL   H19518273   6.369   1.964   4.698  1.5776 -1.0840 -2.0251
   70MOL   H19618274   6.232   2.039   4.620 -0.5116  0.8041  1.9997
   70MOL   C19718275   6.369   2.177   4.733 -0.4090 -0.5504  0.2406
   70MOL   C19818276   6.286   2.176   4.861  0.1868  0.5354 -0.4445
   70MOL   C19918277   6.328   2.228   4.976 -0.0628 -0.1500  0.9907
   70MOL   C20018278   6.243   2.225   5.101 -0.3661 -0.1456  0.0956
   70MOL   C20118279   6.461   2.295   5.006 -0.0731 -0.4614 -0.2200
   70MOL   H20218280   6.344   2.266   4.675  0.7798  0.4797  1.2874
   70MOL   H20318281   6.471   2.181   4.772 -1.6838 -0.8201  3.8121
   70MOL   H20418282   6.197   2.115   4.853  0.6718 -0.1754 -0.4968
   70MOL   H20518283   6.264   2.151   5.179 -0.6492  0.6970  0.9875
   70MOL   H20618284   6.140   2.208   5.070  0.0390 -0.2216 -1.2064
   70MOL   H20718285   6.237   2.325   5.145 -1.5136  0.5582 -1.6124
   70MOL   H20818286   6.445   2.388   5.061  1.4943 -0.1082 -0.3232
   70MOL   H20918287   6.519   2.328   4.919  2.9267 -1.1406  1.4528
   70MOL   C21018288   6.556   2.202   5.088  0.8462 -0.6153 -0.7033
   70MOL   C21118289   6.660   2.285   5.154 -1.1832  0.1544 -0.3541
   70MOL   C21218290   6.792   2.298   5.133 -0.0985 -0.6400  0.3099
   70MOL   C21318291   6.873   2.393   5.224  0.7052  0.5090 -0.4803
   70MOL   C21418292   6.866   2.218   5.032 -0.0530 -0.8307 -0.0379
   70MOL   H21518293   6.588   2.117   5.028 -0.4834 -1.6158 -0.0362
   70MOL   H21618294   6.497   2.167   5.172 -1.2032 -0.3316 -1.9723
   70MOL   H21718295   6.623   2.349   5.232  0.9018 -0.1511  0.9420
   70MOL   H21818296   6.929   2.467   5.168  2.4643  0.8830  1.7052
   70MOL   H21918297   6.938   2.332   5.286 -1.8653 -1.9593 -0.1184
   70MOL   H22018298   6.800   2.446   5.286  1.1985  0.2818  0.3029
   70MOL   H22118299   6.948   2.281   4.996 -1.2008  0.1268 -1.0236
   70MOL   H22218300   6.808   2.215   4.940  0.6444  1.8517 -0.6069
   70MOL   C22318301   6.920   2.082   5.076  0.4067 -0.0982  0.1636
   70MOL   C22418302   7.009   2.018   4.972 -0.7216 -0.2350 -0.3518
   70MOL   C22518303   7.028   1.887   4.949 -0.2244 -0.0362  0.0641
   70MOL   C22618304   7.128   1.839   4.837 -0.3239 -0.0312 -0.2104
   70MOL   C22718305   6.961   1.770   5.024 -0.8222  0.0182 -0.5663
   70MOL   H22818306   6.846   2.014   5.119 -0.7767  1.5225  0.7046
   70MOL   H22918307   6.986   2.097   5.162  2.1122 -1.5318 -0.8543
   70MOL   H23018308   7.069   2.084   4.912 -0.0230  1.7436  2.4707
   70MOL   H23118309   7.197   1.763   4.873 -1.3374  0.6195  3.3725
   70MOL   H23218310   7.194   1.917   4.799 -1.1407 -0.6370 -2.9284
   70MOL   H23318311   7.067   1.815   4.750  0.0327  1.8606 -1.0098
   70MOL   H23418312   6.950   1.804   5.127  1.1099 -0.2937 -0.2466
   70MOL   H23518313   7.033   1.688   5.027 -2.0740 -1.0491  0.9035
   70MOL   C23618314   6.836   1.720   4.971  0.2552  0.3186 -1.0207
   70MOL   C23718315   6.790   1.612   5.062  0.4900 -0.1938 -0.2175
   70MOL   C23818316   6.773   1.479   5.040 -0.2229 -0.4105  0.7251
   70MOL   C23918317   6.719   1.391   5.150 -0.6324  0.6141 -0.4075
   70MOL   C24018318   6.786   1.410   4.908 -0.5857  0.0854 -0.0756
   70MOL   H24118319   6.840   1.688   4.866 -2.6498  0.5184 -1.2300
   70MOL   H24218320   6.762   1.799   4.976 -0.2669 -0.3349  2.1550
   70MOL   H24318321   6.784   1.649   5.164 -0.2084 -1.3052  0.1516
   70MOL   H24418322   6.721   1.435   5.249 -2.1822  1.6005 -0.8067
   70MOL   H24518323   6.778   1.299   5.145  1.6040  1.9848  0.4964
   70MOL   H24618324   6.616   1.357   5.134  0.2597 -3.0615  1.0523
   70MOL   H24718325   6.816   1.475   4.825 -0.0192 -3.4050 -2.7455
   70MOL   H24818326   6.692   1.362   4.881  0.9181 -2.1719 -1.4941
   70MOL   C24918327   6.888   1.298   4.912 -0.1674  0.4489  0.5310
   70MOL   C25018328   7.018   1.338   4.975  0.7265 -0.1325  0.9950
   70MOL   C25118329   7.088   1.285   5.079 -0.1035  0.3741  0.4706
   70MOL   C25218330   7.216   1.352   5.130  0.1346 -0.6495  0.1998
   70MOL   C25318331   7.045   1.160   5.157  0.2039  0.7585  0.3286
   70MOL   H25418332   6.905   1.262   4.810 -0.5802 -0.2361  0.7032
   70MOL   H25518333   6.858   1.212   4.972  0.0896 -0.8172 -1.1219
   70MOL   H25618334   7.057   1.431   4.936 -0.7524  0.2441  0.4068
   70MOL   H25718335   7.221   1.367   5.237 -1.3711  1.3109  0.0175
   70MOL   H25818336   7.228   1.451   5.086 -1.0276 -0.0791  1.1487
   70MOL   H25918337   7.298   1.286   5.100  0.9851  1.1648 -1.6004
   70MOL   H26018338   7.089   1.068   5.118  0.0005  0.1425  1.5297
   70MOL   H26118339   6.938   1.141   5.152  0.2623  0.5087  0.0645
   70MOL   H26218340   7.069   1.163   5.264  0.2625 -0.9689  0.3861
   71MOL     C118341   7.354   1.713   4.592 -0.0285  0.8558 -0.1246
   71MOL     C218342   7.222   1.669   4.531 -0.0386 -0.2767 -0.4553
   71MOL     C318343   7.136   1.576   4.576 -0.5439 -0.1203 -0.0300
   71MOL     C418344   7.004   1.547   4.499  0.0231 -0.1490 -0.1930
   71MOL     C518345   7.158   1.472   4.686  0.1863  0.2430  0.0332
   71MOL     H618346   7.435   1.684   4.525  2.5903 -0.0844  3.2963
   71MOL     H718347   7.353   1.820   4.613 -1.8911  0.5666  1.4520
   71MOL     H818348   7.191   1.737   4.453 -0.3730  1.7449  1.3949
   71MOL     H918349   6.931   1.496   4.562  2.1360 -0.1672  2.3087
   71MOL    H1018350   7.037   1.486   4.415 -1.0134 -1.0957  0.0834
   71MOL    H1118351   6.955   1.639   4.465 -1.1189 -0.2390  1.1430
   71MOL    H1218352   7.058   1.431   4.700  0.1578  0.5925  0.8819
   71MOL    H1318353   7.199   1.509   4.780 -0.5888  0.9897  0.0836
   71MOL    H1418354   7.375   1.665   4.688  1.0080  0.2647 -0.6432
   71MOL    C1518355   7.252   1.364   4.623 -0.0606  0.6877 -0.9541
   71MOL    C1618356   7.264   1.224   4.700 -0.0753  0.6340  0.0368
   71MOL    C1718357   7.326   1.110   4.656 -0.3757  0.4651  0.2376
   71MOL    C1818358   7.314   0.980   4.740 -0.3937  1.0233  0.0244
   71MOL    C1918359   7.393   1.109   4.518 -0.1694 -0.3309  0.2938
   71MOL    H2018360   7.355   1.400   4.616  0.3519 -0.2640  0.0879
   71MOL    H2118361   7.215   1.343   4.523 -1.9258 -2.1044  0.2750
   71MOL    H2218362   7.220   1.219   4.798  1.1548 -1.0078  0.5185
   71MOL    H2318363   7.271   1.005   4.837 -0.7610  0.8269 -0.0855
   71MOL    H2418364   7.417   0.949   4.760 -0.5338  0.5278 -0.0122
   71MOL    H2518365   7.258   0.904   4.686  1.5302 -1.6560  1.6754
   71MOL    H2618366   7.366   1.203   4.470 -2.5122 -0.5469  1.1616
   71MOL    H2718367   7.344   1.033   4.457  1.4245  0.6165 -2.2223
   71MOL    C2818368   7.541   1.090   4.518  0.4093  0.3682  0.2090
   71MOL    C2918369   7.613   1.220   4.544  0.8958 -0.0368  0.0102
   71MOL    C3018370   7.685   1.288   4.457  0.1461  0.1213  0.5798
   71MOL    C3118371   7.745   1.421   4.483 -0.8646 -0.0751  0.3922
   71MOL    C3218372   7.724   1.240   4.319 -0.2618  0.0108 -0.1859
   71MOL    H3318373   7.557   1.052   4.417 -0.8989  1.8526 -0.5769
   71MOL    H3418374   7.579   1.009   4.581 -2.1691 -0.3787  0.8538
   71MOL    H3518375   7.590   1.258   4.643 -0.8837 -0.7279 -0.1164
   71MOL    H3618376   7.674   1.486   4.431 -1.0864  0.6095  1.5350
   71MOL    H3718377   7.844   1.426   4.438 -0.3442 -1.1187  1.3948
   71MOL    H3818378   7.750   1.436   4.591 -0.1934  3.1459 -0.0201
   71MOL    H3918379   7.771   1.325   4.269 -0.1752  1.5464  2.3949
   71MOL    H4018380   7.640   1.203   4.260  0.5959  1.6688 -2.5467
   71MOL    C4118381   7.832   1.133   4.333 -0.9829 -0.0168 -0.1971
   71MOL    C4218382   0.041   1.139   4.210  1.4562 -0.0579  0.1065
   71MOL    C4318383   0.091   1.036   4.142 -0.6615  0.3374 -0.2364
   71MOL    C4418384   0.170   1.059   4.015  0.7490 -0.7215 -0.3524
   71MOL    C4518385   0.065   0.890   4.182  0.1550  0.2054 -0.6069
   71MOL    H4618386   7.798   1.032   4.356  0.5918 -0.6205 -0.4811
   71MOL    H4718387   0.020   1.152   4.417  2.4177  0.1823 -2.8272
   71MOL    H4818388   0.056   1.236   4.165  0.2238  0.2534  0.3576
   71MOL    H4918389   0.269   1.014   4.022  0.9149 -0.4093 -0.6860
   71MOL    H5018390   0.197   1.164   4.004  0.2914 -0.4842  0.7159
   71MOL    H5118391   0.124   1.007   3.931 -0.2061 -0.8026  0.2040
   71MOL    H5218392   0.038   0.863   4.285  0.6522  0.8853 -0.2986
   71MOL    H5318393   0.152   0.826   4.168 -0.6803 -0.8040 -1.3562
   71MOL    C5418394   7.843   0.822   4.089 -0.0514 -0.0441 -0.2960
   71MOL    C5518395   7.704   0.876   4.118  0.3337 -0.3135  0.0745
   71MOL    C5618396   7.601   0.814   4.171  0.1966  0.4782 -0.3859
   71MOL    C5718397   7.471   0.879   4.195 -0.3770 -0.6841  0.0731
   71MOL    C5818398   7.611   0.679   4.236  0.0762  0.8681  0.1648
   71MOL    H5918399   7.842   0.713   4.093 -0.5421 -0.0128  0.4174
   71MOL    H6018400   7.861   0.851   3.985  1.5018  0.5582  0.1230
   71MOL    H6118401   7.692   0.980   4.091  0.1782 -0.0409  1.1954
   71MOL    H6218402   7.432   0.853   4.294 -1.8458 -0.5547 -0.4590
   71MOL    H6318403   7.400   0.845   4.120 -2.2895 -0.7987  1.8698
   71MOL    H6418404   7.488   0.987   4.194 -0.8832 -0.5804  1.2944
   71MOL    H6518405   7.573   0.683   4.338  0.6758  1.0360  0.3818
   71MOL    H6618406   7.709   0.640   4.262 -1.2351 -2.8578 -0.1312
   71MOL    C6718407   7.532   0.578   4.151  0.1231  0.0334 -0.1016
   71MOL    C6818408   7.514   0.456   4.236  0.4754 -0.3857 -0.6061
   71MOL    C6918409   7.491   0.334   4.185  0.7195 -0.3508 -0.0090
   71MOL    C7018410   7.475   0.219   4.285  0.1747  0.2501 -0.2045
   71MOL    C7118411   7.497   0.300   4.038  0.5200  0.1728  0.1928
   71MOL    H7218412   7.587   0.565   4.058 -1.4634  0.9206 -1.1973
   71MOL    H7318413   7.429   0.611   4.131  0.3717  0.0360 -1.4420
   71MOL    H7418414   7.507   0.475   4.342 -0.2395  0.6450 -0.8334
   71MOL    H7518415   7.461   0.246   4.389  1.2878  1.0268 -0.2461
   71MOL    H7618416   7.558   0.148   4.280 -0.3960 -0.4744  0.4201
   71MOL    H7718417   7.389   0.159   4.255  0.9971 -1.4673  0.8178
   71MOL    H7818418   7.575   0.232   4.004 -1.2081 -0.2186 -3.1606
   71MOL    H7918419   7.506   0.395   3.986 -1.1500  0.1136 -0.2296
   71MOL    C8018420   7.365   0.227   3.982  0.2284  0.0821 -0.4090
   71MOL    C8118421   7.369   0.193   3.833 -0.3191 -0.2340  0.9035
   71MOL    C8218422   7.324   0.268   3.734 -0.6597 -0.0696  0.2194
   71MOL    C8318423   7.245   0.399   3.747  0.5226  0.3287 -0.1486
   71MOL    C8418424   7.335   0.221   3.586  0.0131  0.2868  0.1421
   71MOL    H8518425   7.273   0.281   4.004  0.4973  1.3051 -2.2501
   71MOL    H8618426   7.359   0.129   4.031  1.1186  0.6847  0.9167
   71MOL    H8718427   7.414   0.099   3.803  0.0264 -0.2884  1.5666
   71MOL    H8818428   7.145   0.397   3.705  0.4863  0.3131 -0.0642
   71MOL    H8918429   7.290   0.476   3.685  1.0768 -0.5194 -0.8047
   71MOL    H9018430   7.243   0.443   3.847  0.7184 -0.0373  0.0212
   71MOL    H9118431   7.426   0.162   3.585 -0.3483 -0.2759 -0.2949
   71MOL    H9218432   7.357   0.316   3.537 -0.9728  0.4553  0.0163
   71MOL    C9318433   7.204   0.160   3.529 -0.0523  0.3147  0.4782
   71MOL    C9418434   7.198   0.139   3.377 -0.1065 -0.3330 -0.5453
   71MOL    C9518435   7.150   0.039   3.308 -0.2237  0.2081 -0.1187
   71MOL    C9618436   7.176   0.038   3.158 -0.0257 -0.2171  0.1867
   71MOL    C9718437   7.086   7.789   3.360 -0.3720  0.0174  1.1453
   71MOL    H9818438   7.120   0.219   3.564 -0.0885 -1.4729  3.6155
   71MOL    H9918439   7.185   0.061   3.570 -1.0796  0.5203  0.5030
   71MOL   H10018440   7.255   0.217   3.329  0.3517 -0.4737 -0.2370
   71MOL   H10118441   7.247   7.842   3.125 -0.9365 -1.5449  1.2056
   71MOL   H10218442   7.078   0.025   3.113 -0.2438 -1.9979  1.1240
   71MOL   H10318443   7.222   0.131   3.124  1.0212 -0.1396  1.7451
   71MOL   H10418444   7.091   7.791   3.469  1.6692 -0.8668  1.1000
   71MOL   H10518445   7.152   7.708   3.326  1.6877  1.4999  1.5059
   71MOL   C10618446   6.938   7.765   3.330  0.0223  0.3551  0.0594
   71MOL   C10718447   6.880   7.656   3.413 -0.3491 -0.6263 -0.1450
   71MOL   C10818448   6.751   7.619   3.412  0.1033 -0.0933 -0.5129
   71MOL   C10918449   6.638   7.693   3.340  0.4104 -0.0519  0.3129
   71MOL   C11018450   6.705   7.496   3.476  0.2164 -0.5043 -0.0779
   71MOL   H11118451   6.924   7.737   3.226  2.1805  2.0156 -0.7230
   71MOL   H11218452   6.886   7.861   3.339 -0.4363  0.2350 -1.2240
   71MOL   H11318453   6.947   7.579   3.450  0.1632 -0.3071 -0.3959
   71MOL   H11418454   6.541   7.703   3.390 -0.1311  0.2978 -0.7835
   71MOL   H11518455   6.666   7.797   3.323 -0.9438 -0.1183 -2.8102
   71MOL   H11618456   6.604   7.642   3.249 -2.3239 -1.5835  2.0977
   71MOL   H11718457   6.603   7.510   3.511 -0.3353 -0.5971 -1.5971
   71MOL   H11818458   6.771   7.468   3.558  1.0340  1.3823 -0.0645
   71MOL   C11918459   6.706   7.383   3.378  0.4123 -0.8349  0.0972
   71MOL   C12018460   6.633   7.265   3.436 -0.3489  0.2767 -0.0983
   71MOL   C12118461   6.681   7.152   3.487  0.7273 -0.4028  0.8101
   71MOL   C12218462   6.584   7.046   3.550  0.0930 -0.5265 -0.7398
   71MOL   C12318463   6.826   7.125   3.493 -0.3928  0.5380  0.2272
   71MOL   H12418464   6.804   7.348   3.343 -0.7682 -1.3662 -2.8489
   71MOL   H12518465   6.644   7.411   3.293 -0.9958 -1.7784  0.7981
   71MOL   H12618466   6.526   7.274   3.442 -0.5393 -0.9424 -1.3622
   71MOL   H12718467   6.580   6.943   3.515  0.6984 -1.1149  0.8572
   71MOL   H12818468   6.484   7.090   3.546  0.8113  1.1335 -1.1423
   71MOL   H12918469   6.602   7.031   3.657 -0.8665 -0.4916 -0.5672
   71MOL   H13018470   6.839   7.055   3.576 -1.1433 -0.9888 -0.9127
   71MOL   H13118471   6.875   7.221   3.507 -0.1628  0.4904 -0.2405
   71MOL   C13218472   6.874   7.044   3.371  0.4598  0.5094  0.4807
   71MOL   C13318473   7.028   7.026   3.358 -0.4071  0.1015  0.2528
   71MOL   C13418474   7.105   7.096   3.269  0.1512  0.1365 -0.2339
   71MOL   C13518475   7.257   7.082   3.271 -0.3570 -0.2598  0.2205
   71MOL   C13618476   7.042   7.190   3.173 -0.5173  0.0247  0.0183
   71MOL   H13718477   6.817   7.078   3.285  0.6362 -0.8313 -0.1754
   71MOL   H13818478   6.847   6.939   3.381  1.3092  0.1380 -1.0405
   71MOL   H13918479   7.062   6.969   3.443 -0.4184 -1.1965 -0.5923
   71MOL   H14018480   7.305   7.060   3.176  3.4687  1.2974  1.6913
   71MOL   H14118481   7.292   6.997   3.329 -0.2745 -0.9163 -0.7904
   71MOL   H14218482   7.304   7.175   3.305 -0.4303 -1.0479  2.5490
   71MOL   H14318483   6.942   7.157   3.143 -1.0055  2.0550 -0.6197
   71MOL   H14418484   7.100   7.168   3.083  0.8042 -2.8345  1.4854
   71MOL   C14518485   7.060   7.338   3.212 -0.3657 -0.3941 -0.3247
   71MOL   C14618486   6.977   7.428   3.125 -0.1287 -0.8728 -0.3792
   71MOL   C14718487   7.026   7.517   3.036 -0.0779  0.2114 -0.0513
   71MOL   C14818488   6.925   7.596   2.948 -0.3317  0.9694 -0.0531
   71MOL   C14918489   7.174   7.535   3.009 -0.6963  0.0371  0.4597
   71MOL   H15018490   7.167   7.355   3.210 -0.0229 -2.4023  0.0164
   71MOL   H15118491   7.040   7.346   3.319 -2.9510 -0.0060 -0.8045
   71MOL   H15218492   6.870   7.431   3.142 -0.0887  2.6605 -0.1960
   71MOL   H15318493   6.946   7.702   2.961  2.3635  0.3477  0.8253
   71MOL   H15418494   6.819   7.586   2.975 -0.2348 -0.4898 -0.1380
   71MOL   H15518495   6.943   7.564   2.846 -0.4624  0.3432  0.1169
   71MOL   H15618496   7.228   7.526   3.103  1.6414  1.2856 -0.7275
   71MOL   H15718497   7.193   7.640   2.988 -1.0000 -0.0312 -0.1697
   71MOL   C15818498   7.234   7.452   2.891 -0.4107  0.4480 -0.1942
   71MOL   C15918499   7.384   7.440   2.891  0.2283  0.2275 -0.1624
   71MOL   C16018500   7.462   7.478   2.786  0.0931 -0.5213  0.2318
   71MOL   C16118501   7.412   7.537   2.661  0.7274 -0.1955 -0.5207
   71MOL   C16218502   7.609   7.459   2.798 -0.6169 -0.8284  0.1204
   71MOL   H16318503   7.197   7.501   2.801  2.2227  2.9310  0.0071
   71MOL   H16418504   7.196   7.351   2.886  0.3191  0.0627  1.7399
   71MOL   H16518505   7.417   7.403   2.987 -1.3053  0.5089  0.4737
   71MOL   H16618506   7.499   7.543   2.595 -2.7096  0.3065 -5.3151
   71MOL   H16718507   7.364   7.633   2.679  1.7833  0.3537 -0.5641
   71MOL   H16818508   7.336   7.477   2.611  2.2065 -1.5691 -1.1967
   71MOL   H16918509   7.648   7.445   2.899  0.5864  0.4410 -0.1527
   71MOL   H17018510   7.650   7.551   2.757 -0.9875 -0.9938 -0.6267
   71MOL   C17118511   7.654   7.337   2.703  0.2424  0.0267  0.6563
   71MOL   C17218512   7.802   7.308   2.714  0.1868  0.3208 -0.2485
   71MOL   C17318513   7.864   7.221   2.793  0.1366 -0.6036  0.4065
   71MOL   C17418514   7.794   7.146   2.907  0.2144 -0.2161 -0.1260
   71MOL   C17518515   0.132   7.171   2.769 -0.0094 -0.1415  0.0190
   71MOL   H17618516   7.627   7.356   2.599 -1.1569 -1.4522  0.7374
   71MOL   H17718517   7.592   7.250   2.725 -0.5348  0.5329  0.4972
   71MOL   H17818518   7.861   7.364   2.643  1.2404 -0.3545  0.0836
   71MOL   H17918519   7.854   7.142   2.998  1.0238  2.5287 -0.4816
   71MOL   H18018520   7.789   7.045   2.867  0.3110 -1.1572  2.1696
   71MOL   H18118521   7.696   7.188   2.929  0.1534  0.6849 -1.9792
   71MOL   H18218522   0.152   7.204   2.667  0.1226  0.1297  0.1355
   71MOL   H18318523   0.136   7.062   2.770 -1.1662 -0.2031 -0.6932
   71MOL   C18418524   0.245   7.227   2.860 -0.3200  0.4935  0.1861
   71MOL   C18518525   0.380   7.155   2.845  0.1271 -0.0859  0.2941
   71MOL   C18618526   0.448   7.065   2.923  0.3361  0.4403 -0.0928
   71MOL   C18718527   0.588   7.006   2.896  0.1054 -0.7231  0.0870
   71MOL   C18818528   0.388   7.016   3.053  0.1601  0.0401 -0.1995
   71MOL   H18918529   0.209   7.202   2.960 -0.0729 -2.2246 -0.3577
   71MOL   H19018530   0.244   7.336   2.854 -2.7564  0.5974  1.5863
   71MOL   H19118531   0.431   7.182   2.754 -1.1149 -0.9222 -0.6729
   71MOL   H19218532   0.621   7.040   2.797 -1.4770 -0.0081 -0.2062
   71MOL   H19318533   0.586   6.898   2.894  1.3745 -0.7756  0.7540
   71MOL   H19418534   0.651   7.038   2.979  1.4178  0.2783 -1.2462
   71MOL   H19518535   0.410   6.912   3.078 -1.3246  0.2382  2.0688
   71MOL   H19618536   0.280   7.017   3.045  0.2212  0.3725 -1.0968
   71MOL   C19718537   0.431   7.109   3.174  0.1000  0.0670 -0.6869
   71MOL   C19818538   0.463   7.023   3.295 -0.4751 -0.3774  0.8219
   71MOL   C19918539   0.385   7.005   3.407  0.3486  0.3523  0.1699
   71MOL   C20018540   0.420   6.908   3.515  0.1658  0.3379 -0.2514
   71MOL   C20118541   0.256   7.084   3.425  0.0586 -0.2975  0.2604
   71MOL   H20218542   0.373   7.200   3.187 -0.2277  0.2136 -2.8802
   71MOL   H20318543   0.530   7.148   3.149 -0.4033 -0.2286 -3.3016
   71MOL   H20418544   0.551   6.959   3.297  1.3713  1.6992 -4.7464
   71MOL   H20518545   0.402   6.945   3.616 -2.0077 -0.2287 -0.4174
   71MOL   H20618546   0.526   6.882   3.514  0.3875  1.1941  0.4429
   71MOL   H20718547   0.357   6.819   3.514  2.4315 -1.3065 -0.8634
   71MOL   H20818548   0.186   7.005   3.454  0.0028  0.8412  3.4220
   71MOL   H20918549   0.218   7.112   3.327  3.1768 -0.5400 -1.0866
   71MOL   C21018550   0.261   7.208   3.512 -0.0123  0.0143 -0.8141
   71MOL   C21118551   0.117   7.251   3.544 -0.7037 -0.0123 -0.3571
   71MOL   C21218552   0.065   7.375   3.545 -0.2619  0.6302  0.1807
   71MOL   C21318553   7.792   7.397   3.553 -0.7872 -0.8792 -0.8093
   71MOL   C21418554   0.152   7.500   3.541  0.0166 -0.2744  0.2912
   71MOL   H21518555   0.321   7.274   3.450  1.1875 -1.1151 -0.8700
   71MOL   H21618556   0.311   7.188   3.607 -1.7167  0.4287  0.1988
   71MOL   H21718557   0.051   7.165   3.550 -0.7501  0.1011  0.8317
   71MOL   H21818558   7.763   7.450   3.644 -0.2961  0.1410 -1.2396
   71MOL   H21918559   7.738   7.304   3.533 -0.2816 -1.3027 -0.2237
   71MOL   H22018560   7.758   7.454   3.467 -3.8320 -2.1053 -0.5078
   71MOL   H22118561   0.129   7.564   3.456  0.8253 -0.2997  0.0480
   71MOL   H22218562   0.257   7.471   3.536 -0.1091 -0.8944  1.1434
   71MOL   C22318563   0.128   7.586   3.663 -0.0426 -0.4518  0.2055
   71MOL   C22418564   0.232   7.701   3.651 -0.2867  0.3720 -0.3877
   71MOL   C22518565   0.209   7.826   3.613 -0.8049 -0.1666  0.1910
   71MOL   C22618566   0.325   0.036   3.589 -0.4442  0.1568  0.1936
   71MOL   C22718567   0.070   0.001   3.568  0.3663 -0.9278 -0.1655
   71MOL   H22818568   0.141   7.546   3.763  1.8049 -1.3708 -0.3812
   71MOL   H22918569   0.029   7.630   3.669  0.9220  1.7362  1.0018
   71MOL   H23018570   0.332   7.670   3.674 -0.8512 -1.0600  0.2106
   71MOL   H23118571   0.330   0.132   3.641  0.7231  1.0979 -1.5931
   71MOL   H23218572   0.338   0.054   3.482 -1.5065  0.5551  0.1216
   71MOL   H23318573   0.419   7.869   3.619 -0.0423 -0.2087 -1.5713
   71MOL   H23418574   0.057   0.093   3.626  1.7852 -0.7095 -0.1649
   71MOL   H23518575   7.867   7.813   3.595  0.7180 -1.4620 -0.4208
   71MOL   C23618576   0.057   0.019   3.412 -0.2281  0.2533  0.0246
   71MOL   C23718577   7.811   0.091   3.359  0.7441  0.3946  0.3540
   71MOL   C23818578   7.693   0.035   3.319  0.4448 -0.4007 -0.2995
   71MOL   C23918579   7.580   0.114   3.279  0.8813 -0.1161 -0.0441
   71MOL   C24018580   7.668   7.772   3.334  0.2484 -0.3085  0.0010
   71MOL   H24118581   0.065   7.806   3.355 -1.6276  0.7905 -1.0757
   71MOL   H24218582   0.143   0.077   3.378 -0.8023  0.4165 -1.1723
   71MOL   H24318583   7.824   0.197   3.343 -1.0076  0.6037  0.2934
   71MOL   H24418584   7.554   0.090   3.176 -0.6409 -0.7605  0.4886
   71MOL   H24518585   7.613   0.218   3.276 -0.9027  0.5538  2.1524
   71MOL   H24618586   7.494   0.106   3.345  0.6107  2.2066 -0.0707
   71MOL   H24718587   7.573   7.753   3.384  0.3120  1.5232  0.8564
   71MOL   H24818588   7.736   7.723   3.403  0.5266 -1.4358 -1.0365
   71MOL   C24918589   7.691   7.691   3.208 -0.6422  0.3172  0.0981
   71MOL   C25018590   7.603   7.568   3.198 -0.3011 -0.4939 -0.0413
   71MOL   C25118591   7.647   7.442   3.192  0.6267  0.5311 -0.4895
   71MOL   C25218592   7.546   7.323   3.194  0.8109  0.6486 -0.3818
   71MOL   C25318593   7.794   7.403   3.166  0.5050 -0.0074 -0.4538
   71MOL   H25418594   7.797   7.668   3.202 -0.1018  1.9139  2.9896
   71MOL   H25518595   7.684   7.758   3.122  2.7591  0.3051 -0.2699
   71MOL   H25618596   7.499   7.579   3.225 -0.4224  1.1491 -1.0733
   71MOL   H25718597   7.441   7.350   3.178  0.4917 -0.1796  0.2811
   71MOL   H25818598   7.561   7.252   3.276  0.0131 -0.0861 -0.8652
   71MOL   H25918599   7.582   7.257   3.116 -1.7384 -1.9660  0.5727
   71MOL   H26018600   7.843   7.458   3.085 -1.4081  1.3945 -0.6801
   71MOL   H26118601   7.788   7.306   3.116  0.2277  0.9095 -2.2482
   71MOL   H26218602   7.858   7.396   3.254 -1.8411  0.6896  1.3354
   72MOL     C118603   3.926   1.460   2.101  0.7848 -0.2836 -0.2208
   72MOL     C218604   3.794   1.488   2.040 -0.1775 -0.5976  0.1297
   72MOL     C318605   3.743   1.606   2.003  0.4000  0.2120 -0.1367
   72MOL     C418606   3.608   1.627   1.939  0.3826  0.4978 -0.3499
   72MOL     C518607   3.830   1.733   2.009  0.6449 -0.0803 -0.2642
   72MOL     H618608   3.971   1.379   2.044  3.2120 -0.7059  2.1911
   72MOL     H718609   3.999   1.540   2.088 -0.1980  0.7979  0.8196
   72MOL     H818610   3.723   1.409   2.022 -1.1634  0.1292  0.7281
   72MOL     H918611   3.559   1.716   1.977  0.6514  0.0547  1.0803
   72MOL    H1018612   3.558   1.534   1.969 -0.7595  0.4444 -2.3497
   72MOL    H1118613   3.609   1.625   1.830  1.5511  0.6415 -0.3512
   72MOL    H1218614   3.890   1.733   2.100  2.2617 -1.9736 -1.3071
   72MOL    H1318615   3.774   1.827   2.012  1.2656  0.2475  1.4019
   72MOL    H1418616   3.911   1.438   2.207  0.4796  1.5120  0.1260
   72MOL    C1518617   3.915   1.738   1.880  0.5302  0.0602  0.5463
   72MOL    C1618618   3.968   1.879   1.845 -0.1932 -0.1788  0.2374
   72MOL    C1718619   4.072   1.944   1.900  0.5973  0.7604 -0.7826
   72MOL    C1818620   4.111   2.087   1.857 -0.3031  0.4742  0.2644
   72MOL    C1918621   4.166   1.893   2.017  1.0764 -0.3241  0.8452
   72MOL    H2018622   3.856   1.714   1.792 -0.5788  1.1379  0.9891
   72MOL    H2118623   3.999   1.670   1.894 -0.4472 -1.3364 -0.2209
   72MOL    H2218624   3.908   1.936   1.776  1.6787  0.9460 -0.4851
   72MOL    H2318625   4.040   2.113   1.778  1.7552  3.8115 -0.6012
   72MOL    H2418626   4.211   2.097   1.813 -0.0628 -0.5909  0.5611
   72MOL    H2518627   4.094   2.161   1.935  0.4764  2.6070 -1.5102
   72MOL    H2618628   4.101   1.832   2.079  0.4639  0.6323  1.1495
   72MOL    H2718629   4.203   1.966   2.089  2.2323  0.2942 -0.3424
   72MOL    C2818630   4.288   1.816   1.957  0.5454  0.0043 -0.2988
   72MOL    C2918631   4.403   1.795   2.050 -0.1221  0.2241  0.4590
   72MOL    C3018632   4.476   1.679   2.071  0.0030 -0.2753 -0.4244
   72MOL    C3118633   4.611   1.693   2.146  0.8169 -0.2758 -0.5399
   72MOL    C3218634   4.437   1.541   2.009 -0.2673  0.0869 -0.3332
   72MOL    H3318635   4.336   1.879   1.883  0.3994 -0.7373 -1.0315
   72MOL    H3418636   4.250   1.720   1.920  0.2250 -0.7205  1.8353
   72MOL    H3518637   4.444   1.879   2.103  0.3843  0.1108  0.2544
   72MOL    H3618638   4.623   1.604   2.208  2.3210 -0.0408 -0.4712
   72MOL    H3718639   4.614   1.789   2.197  1.2240 -1.4684  1.7516
   72MOL    H3818640   4.697   1.696   2.078  1.6542 -1.4016  0.4530
   72MOL    H3918641   4.522   1.473   2.000 -0.0688  0.4383 -1.1655
   72MOL    H4018642   4.398   1.567   1.911  1.9603 -1.3116 -1.6225
   72MOL    C4118643   4.334   1.483   2.108 -0.6851 -0.4091 -0.0105
   72MOL    C4218644   4.293   1.343   2.063 -0.0972  0.2087  0.5354
   72MOL    C4318645   4.274   1.237   2.144  0.1976  0.1032 -0.3808
   72MOL    C4418646   4.237   1.104   2.091  0.3037  0.1350  0.0658
   72MOL    C4518647   4.290   1.244   2.294  0.4121  0.4778 -0.4669
   72MOL    H4618648   4.241   1.537   2.125 -2.5865 -3.6876  0.3847
   72MOL    H4718649   4.384   1.477   2.205  1.3469 -0.2690 -1.0158
   72MOL    H4818650   4.276   1.332   1.956 -0.7960  1.2015  0.5371
   72MOL    H4918651   4.138   1.094   2.136  0.1174  2.2001  0.1868
   72MOL    H5018652   4.315   1.034   2.122 -0.4934 -0.6817  0.2259
   72MOL    H5118653   4.230   1.106   1.982 -1.3750 -1.6936  0.1154
   72MOL    H5218654   4.387   1.286   2.319  0.5640  0.5473 -1.1579
   72MOL    H5318655   4.285   1.143   2.335  0.2546  0.8894  0.5553
   72MOL    C5418656   4.175   1.321   2.359 -0.8659 -0.7244  0.7261
   72MOL    C5518657   4.169   1.287   2.505  0.4019  0.7988 -0.3550
   72MOL    C5618658   4.194   1.365   2.606  0.1303 -0.4392  0.1693
   72MOL    C5718659   4.182   1.315   2.744  0.2083  0.2405  0.0323
   72MOL    C5818660   4.238   1.513   2.589 -0.4683  0.1146  0.5938
   72MOL    H5918661   4.076   1.296   2.322 -1.4374 -0.8014  2.2712
   72MOL    H6018662   4.192   1.429   2.351 -0.3558 -0.8035  0.7372
   72MOL    H6118663   4.137   1.184   2.518  0.2849  1.0303  1.3283
   72MOL    H6218664   4.124   1.373   2.816  1.6406 -3.1754  4.1654
   72MOL    H6318665   4.281   1.305   2.788  0.5357 -0.0478 -0.7666
   72MOL    H6418666   4.140   1.214   2.745  1.0576 -0.1188 -0.5928
   72MOL    H6518667   4.194   1.574   2.668 -2.9293 -1.0798  0.1824
   72MOL    H6618668   4.203   1.552   2.493  0.7021 -2.1066 -0.7891
   72MOL    C6718669   4.387   1.526   2.610 -0.1228 -0.0833  0.0298
   72MOL    C6818670   4.453   1.658   2.552 -0.2773  0.0121  0.2596
   72MOL    C6918671   4.567   1.718   2.595  0.5999  0.1443  0.6576
   72MOL    C7018672   4.620   1.849   2.529 -0.4336 -0.2482 -0.4958
   72MOL    C7118673   4.645   1.669   2.713  0.2681 -0.1903  0.9106
   72MOL    H7218674   4.446   1.452   2.556 -0.0451  0.6598 -0.9171
   72MOL    H7318675   4.399   1.504   2.716 -1.5361  0.3228  0.2848
   72MOL    H7418676   4.401   1.700   2.467 -2.1298 -0.6844  1.0274
   72MOL    H7518677   4.718   1.833   2.485  0.9313  0.1448  2.3020
   72MOL    H7618678   4.610   1.923   2.609 -1.3799 -0.1878 -0.6608
   72MOL    H7718679   4.556   1.883   2.447  1.3287 -1.2097 -2.3041
   72MOL    H7818680   4.588   1.593   2.766  1.0854 -1.5678 -0.1315
   72MOL    H7918681   4.646   1.750   2.786 -0.5503  1.0761 -0.4713
   72MOL    C8018682   4.784   1.618   2.681  0.0141  0.2318 -0.4649
   72MOL    C8118683   4.847   1.569   2.809 -0.4787 -0.3606  0.4218
   72MOL    C8218684   4.976   1.580   2.847 -0.5140  0.4616  0.1183
   72MOL    C8318685   5.091   1.649   2.776 -0.2814  0.1182 -0.3947
   72MOL    C8418686   5.026   1.528   2.977 -0.4598 -0.2582 -0.0408
   72MOL    H8518687   4.843   1.697   2.633  1.2671 -0.6143 -0.3449
   72MOL    H8618688   4.779   1.536   2.609  0.2193  0.7564 -1.0829
   72MOL    H8718689   4.773   1.517   2.869 -0.3163  0.4034  1.2883
   72MOL    H8818690   5.137   1.718   2.847 -1.1011 -1.2982  1.5682
   72MOL    H8918691   5.052   1.704   2.691  0.2144 -1.3861 -1.6230
   72MOL    H9018692   5.169   1.583   2.738  0.9505  2.8341 -2.7732
   72MOL    H9118693   4.951   1.543   3.054  1.1714 -0.5096  1.6136
   72MOL    H9218694   5.127   1.561   3.001 -0.0109 -1.5517 -0.1002
   72MOL    C9318695   5.057   1.380   2.954 -0.1018 -0.0056 -0.2402
   72MOL    C9418696   5.072   1.308   3.084 -0.0448  0.1865 -0.3819
   72MOL    C9518697   5.001   1.205   3.128 -1.0948  0.9490 -0.4178
   72MOL    C9618698   5.039   1.145   3.258 -0.1055 -0.0761  0.2164
   72MOL    C9718699   4.906   1.123   3.043 -0.4096  0.1491  0.8599
   72MOL    H9818700   5.158   1.388   2.914 -0.3457  1.8682 -0.5118
   72MOL    H9918701   4.983   1.330   2.892  0.4047 -0.8753 -0.1603
   72MOL   H10018702   5.138   1.363   3.149 -1.4048 -1.1186  2.1915
   72MOL   H10118703   4.949   1.106   3.306 -0.1584 -1.2382 -0.8043
   72MOL   H10218704   5.105   1.060   3.241  1.7549  1.6865 -1.7094
   72MOL   H10318705   5.086   1.216   3.326 -0.4242 -0.3713  0.7502
   72MOL   H10418706   4.905   1.020   3.078  1.7746 -0.2579 -0.2113
   72MOL   H10518707   4.939   1.097   2.942 -1.6428  2.7663 -0.2723
   72MOL   C10618708   4.764   1.180   3.043 -0.8369  0.3215 -0.4139
   72MOL   C10718709   4.665   1.094   2.980 -0.2944 -0.3851 -0.2978
   72MOL   C10818710   4.579   1.126   2.882 -0.0315 -0.1413 -0.0891
   72MOL   C10918711   4.567   1.274   2.828 -0.0945 -0.8225 -0.1222
   72MOL   C11018712   4.473   1.031   2.841  1.0405 -0.1064  0.2330
   72MOL   H11118713   4.784   1.278   3.000  0.5121 -0.0348 -0.6391
   72MOL   H11218714   4.732   1.206   3.144 -0.9350  0.3845 -0.4608
   72MOL   H11318715   4.659   0.993   3.018  3.8178 -0.2556  0.9739
   72MOL   H11418716   4.667   1.305   2.798 -0.2692 -0.0863  0.0577
   72MOL   H11518717   4.508   1.267   2.737  2.3654  0.6564 -1.8709
   72MOL   H11618718   4.515   1.346   2.891  1.3550 -0.1544  0.3372
   72MOL   H11718719   4.520   0.932   2.839  2.4820  0.5168  1.7605
   72MOL   H11818720   4.444   1.058   2.740  0.6130  0.7970  0.5931
   72MOL   C11918721   4.358   1.021   2.945  0.1218 -0.1943  1.0102
   72MOL   C12018722   4.235   0.950   2.892 -0.7358  0.1083  0.4289
   72MOL   C12118723   4.156   0.870   2.964 -0.1287  0.3755 -0.0804
   72MOL   C12218724   4.045   0.796   2.899  0.4429 -0.1787  0.4634
   72MOL   C12318725   4.173   0.841   3.113  0.2864  0.3325 -0.2259
   72MOL   H12418726   4.324   1.123   2.959  1.6761  0.3470  0.8246
   72MOL   H12518727   4.386   0.968   3.036  0.4782 -0.6499  0.6370
   72MOL   H12618728   4.216   0.967   2.788  1.9632  0.2705 -0.0841
   72MOL   H12718729   4.059   0.688   2.894 -0.3433 -0.2374 -0.4817
   72MOL   H12818730   4.027   0.836   2.800  1.4223 -1.0931 -0.0972
   72MOL   H12918731   3.966   0.817   2.971  0.3302  0.0350  0.2766
   72MOL   H13018732   4.076   0.855   3.160  0.2249  0.0558 -0.2676
   72MOL   H13118733   4.245   0.906   3.164  0.1428 -1.0383  1.7735
   72MOL   C13218734   4.225   0.696   3.130  0.1822  0.3259  0.3850
   72MOL   C13318735   4.272   0.673   3.270 -0.3539  0.1393 -0.0851
   72MOL   C13418736   4.390   0.704   3.322 -0.5439 -0.0169  0.9955
   72MOL   C13518737   4.423   0.669   3.467 -1.0980  0.5673 -0.4003
   72MOL   C13618738   4.492   0.780   3.238  0.5477  0.3534  0.5528
   72MOL   H13718739   4.310   0.679   3.064  0.6312 -0.6528  1.1981
   72MOL   H13818740   4.154   0.620   3.096  1.8112 -0.3322 -1.6526
   72MOL   H13918741   4.207   0.625   3.341 -1.7304 -0.0359 -1.4509
   72MOL   H14018742   4.523   0.633   3.490 -0.0986  1.6319 -2.9650
   72MOL   H14118743   4.357   0.589   3.501 -0.8465  0.6554  0.3105
   72MOL   H14218744   4.400   0.749   3.539 -2.9324  0.0893 -0.4198
   72MOL   H14318745   4.518   0.869   3.296  0.5505 -0.5711  1.9857
   72MOL   H14418746   4.461   0.800   3.135  1.9464 -0.1059  0.0330
   72MOL   C14518747   4.619   0.688   3.219 -0.2595 -0.7427 -0.1300
   72MOL   C14618748   4.714   0.735   3.114  0.0798  0.6113  0.1560
   72MOL   C14718749   4.739   0.680   2.996  0.0156 -0.2655 -0.3267
   72MOL   C14818750   4.837   0.743   2.896  0.1695 -0.4184 -0.0433
   72MOL   C14918751   4.657   0.565   2.942 -1.0803 -0.0061 -0.4623
   72MOL   H15018752   4.572   0.595   3.186  0.2787 -1.5979  1.4844
   72MOL   H15118753   4.665   0.651   3.310  0.5954  0.3296 -0.1122
   72MOL   H15218754   4.771   0.819   3.150  0.9537 -0.2621  0.8145
   72MOL   H15318755   4.892   0.829   2.935 -2.2749  2.2263 -2.1720
   72MOL   H15418756   4.787   0.773   2.804 -1.1423 -1.0067  0.4655
   72MOL   H15518757   4.903   0.666   2.858  1.2083 -0.3207  1.5196
   72MOL   H15618758   4.637   0.577   2.835 -2.1575 -2.2114 -0.5400
   72MOL   H15718759   4.556   0.567   2.982 -0.8845 -2.0373  0.2265
   72MOL   C15818760   4.730   0.433   2.953  0.2689 -0.1892 -0.0374
   72MOL   C15918761   4.699   0.328   2.849 -0.4174 -0.4042  0.0591
   72MOL   C16018762   4.642   0.204   2.864 -0.0051 -0.6218 -0.6024
   72MOL   C16118763   4.596   0.152   3.001  0.3879  0.3013  0.7515
   72MOL   C16218764   4.614   0.119   2.747 -0.5447 -0.2697 -0.3350
   72MOL   H16318765   4.719   0.387   3.051 -1.2999 -0.8793 -0.5313
   72MOL   H16418766   4.839   0.435   2.950  0.2527  1.4638 -0.2416
   72MOL   H16518767   4.730   0.360   2.751  0.2663  0.0544  0.4190
   72MOL   H16618768   4.679   0.096   3.045  0.5969 -1.1073 -1.3557
   72MOL   H16718769   4.515   0.079   2.996  0.6436 -0.0176  1.1673
   72MOL   H16818770   4.556   0.230   3.067 -0.4073 -0.5178  1.2536
   72MOL   H16918771   4.623   0.161   2.648  0.0830  0.2820 -0.0477
   72MOL   H17018772   4.509   0.088   2.754 -0.3086 -1.4687 -1.8704
   72MOL   C17118773   4.682   7.868   2.753  0.0363  0.8492 -0.1387
   72MOL   C17218774   4.636   7.765   2.644  0.0408  0.6033  0.2871
   72MOL   C17318775   4.717   7.727   2.540  0.0709  0.4472  0.3303
   72MOL   C17418776   4.860   7.776   2.515 -0.0921 -1.3070  1.1128
   72MOL   C17518777   4.666   7.624   2.443 -0.6036  0.5057 -0.5972
   72MOL   H17618778   4.662   7.825   2.851  0.9389  0.5258 -0.0889
   72MOL   H17718779   4.791   7.879   2.753  0.0590  0.6048 -0.5247
   72MOL   H17818780   4.536   7.726   2.656  0.6966 -2.2681 -2.7578
   72MOL   H17918781   4.941   7.710   2.546  1.7648  0.2393 -0.2957
   72MOL   H18018782   4.879   7.865   2.575 -1.1779 -1.5872  1.8827
   72MOL   H18118783   4.871   7.796   2.408  0.4400 -0.0572  1.3935
   72MOL   H18218784   4.662   7.672   2.345 -0.5202  1.6326 -0.0671
   72MOL   H18318785   4.566   7.600   2.479 -0.2159  1.1450  0.9676
   72MOL   C18418786   4.748   7.502   2.433  0.5011  0.0363  0.4644
   72MOL   C18518787   4.668   7.395   2.354  0.8902  0.4230  0.3421
   72MOL   C18618788   4.707   7.343   2.237  0.7413 -0.1202 -0.0070
   72MOL   C18718789   4.629   7.242   2.157  0.3629  0.5994  0.3780
   72MOL   C18818790   4.839   7.372   2.173 -0.8134 -0.1799  0.0820
   72MOL   H18918791   4.778   7.471   2.533  0.3051 -1.8490 -0.0438
   72MOL   H19018792   4.845   7.527   2.389  1.2978  0.4863  2.4267
   72MOL   H19118793   4.571   7.367   2.392  1.5556  0.5783  2.2220
   72MOL   H19218794   4.523   7.248   2.180  0.3277  1.2587  0.0622
   72MOL   H19318795   4.658   7.145   2.198 -2.7431  0.0806  1.4972
   72MOL   H19418796   4.642   7.242   2.049  0.8519  0.9953  0.4311
   72MOL   H19518797   4.863   7.286   2.110 -0.7774 -0.1363  0.0346
   72MOL   H19618798   4.922   7.393   2.242 -0.8021 -0.1597  0.0619
   72MOL   C19718799   4.818   7.500   2.083 -0.5391 -0.2094 -0.1662
   72MOL   C19818800   4.952   7.538   2.014  0.4417 -0.9910 -0.5722
   72MOL   C19918801   5.000   7.509   1.894  0.6878  0.0808 -0.1386
   72MOL   C20018802   5.135   7.548   1.846  0.1536 -0.4868  0.2786
   72MOL   C20118803   4.921   7.426   1.789 -0.0609 -0.3262 -0.4849
   72MOL   H20218804   4.796   7.591   2.139  1.4461  1.9123 -2.6654
   72MOL   H20318805   4.732   7.488   2.016 -0.3297  0.0645 -0.4898
   72MOL   H20418806   5.024   7.587   2.079  1.6431 -4.3088  0.7487
   72MOL   H20518807   5.192   7.468   1.799 -0.4438 -1.0505  0.4922
   72MOL   H20618808   5.188   7.593   1.930 -0.7006 -1.4276  1.3589
   72MOL   H20718809   5.132   7.637   1.784 -0.7097 -0.4513  0.3680
   72MOL   H20818810   4.923   7.477   1.693  1.6340 -2.0254 -1.3851
   72MOL   H20918811   4.815   7.424   1.815 -0.0677 -0.6736 -0.5393
   72MOL   C21018812   4.960   7.278   1.770 -0.1904  0.1993 -1.0546
   72MOL   C21118813   4.875   7.214   1.659  0.4328 -0.3042 -0.2178
   72MOL   C21218814   4.895   7.088   1.613 -0.5375 -0.1631 -0.5940
   72MOL   C21318815   4.823   7.038   1.493  0.6724  0.2432  0.2487
   72MOL   C21418816   5.010   7.006   1.655  0.6293  0.3281  0.1438
   72MOL   H21518817   4.948   7.235   1.870  1.3468 -0.1804 -1.0353
   72MOL   H21618818   5.067   7.267   1.753 -0.2042 -0.5155 -0.6773
   72MOL   H21718819   4.797   7.272   1.612  0.4295 -0.8214 -0.8689
   72MOL   H21818820   4.882   7.031   1.402  0.8934 -0.7656  0.4596
   72MOL   H21918821   4.733   7.097   1.475  0.8294 -0.4274 -3.0035
   72MOL   H22018822   4.783   6.939   1.514 -1.9815  1.2613  0.2333
   72MOL   H22118823   5.089   7.065   1.701 -0.3556  1.2860  0.6501
   72MOL   H22218824   5.068   6.966   1.572  0.7148  4.0330 -1.7299
   72MOL   C22318825   4.970   6.893   1.748 -0.3913 -0.4626 -0.6399
   72MOL   C22418826   5.088   6.814   1.798 -0.3956 -0.3827 -0.1132
   72MOL   C22518827   5.098   6.682   1.826  0.2711 -0.0576  0.0841
   72MOL   C22618828   5.223   6.607   1.859  0.0077 -0.4401  0.1065
   72MOL   C22718829   4.978   6.587   1.806 -0.0458 -0.9325 -0.7617
   72MOL   H22818830   4.911   6.825   1.686  0.9447  0.7866 -3.3365
   72MOL   H22918831   4.908   6.936   1.827 -1.7093 -1.0919 -1.3156
   72MOL   H23018832   5.179   6.868   1.822 -2.1099  2.0395  1.1579
   72MOL   H23118833   5.209   6.546   1.948 -2.0144  0.8640  0.6999
   72MOL   H23218834   5.308   6.668   1.890  1.4228 -2.8256  1.0844
   72MOL   H23318835   5.250   6.539   1.778  0.9261 -2.5649  2.1307
   72MOL   H23418836   4.889   6.646   1.828 -0.2313 -0.8793 -1.6306
   72MOL   H23518837   4.987   6.512   1.885 -0.7302  1.3356  1.5236
   72MOL   C23618838   4.976   6.529   1.668  0.4782 -0.2409  0.0566
   72MOL   C23718839   4.844   6.451   1.650 -0.5303  0.3080  0.0649
   72MOL   C23818840   4.731   6.491   1.582 -0.3228  0.2203  0.0186
   72MOL   C23918841   4.614   6.400   1.560  0.3021 -0.0856 -0.1259
   72MOL   C24018842   4.711   6.629   1.516 -0.3779  0.2481 -0.1423
   72MOL   H24118843   5.068   6.474   1.647  0.0972 -0.3582 -1.3722
   72MOL   H24218844   4.975   6.608   1.592  0.8255 -0.9059 -0.6505
   72MOL   H24318845   4.829   6.355   1.697 -0.8887  0.9005  1.1805
   72MOL   H24418846   4.597   6.406   1.452  3.0224  0.9261 -0.5251
   72MOL   H24518847   4.517   6.432   1.599  0.6742  1.2830 -0.3266
   72MOL   H24618848   4.635   6.299   1.597  0.1059 -0.2233 -0.3862
   72MOL   H24718849   4.767   6.709   1.566 -0.6290  0.9620 -0.9960
   72MOL   H24818850   4.604   6.645   1.530 -0.1851  0.8845  0.6812
   72MOL   C24918851   4.756   6.638   1.369  0.1932  0.0636  0.0480
   72MOL   C25018852   4.693   6.755   1.302 -0.0228 -0.3473 -0.0402
   72MOL   C25118853   4.745   6.841   1.213  0.0044 -0.6284  0.5018
   72MOL   C25218854   4.677   6.965   1.163 -0.1708 -0.9290  0.3054
   72MOL   C25318855   4.890   6.829   1.166 -0.2206 -0.3797 -0.6302
   72MOL   H25418856   4.712   6.556   1.313 -1.2838  1.9436 -1.6455
   72MOL   H25518857   4.862   6.638   1.343  0.3870 -0.4812  0.8279
   72MOL   H25618858   4.587   6.763   1.324 -0.6861 -2.6145 -2.1225
   72MOL   H25718859   4.720   7.058   1.199 -3.3162  0.3560  0.9124
   72MOL   H25818860   4.573   6.966   1.197  0.1702 -1.8369  1.4009
   72MOL   H25918861   4.672   6.982   1.056  1.0339 -1.2464  0.1957
   72MOL   H26018862   4.910   6.875   1.070  0.4333 -2.4594 -1.5149
   72MOL   H26118863   4.901   6.722   1.147 -1.9638 -0.8872  0.9929
   72MOL   H26218864   4.964   6.861   1.239 -1.1836 -0.5659  0.4509
   73MOL     C118865   1.255   6.898   4.119 -0.2153  0.6758 -0.6477
   73MOL     C218866   1.374   6.820   4.171 -0.8417  0.5257 -0.6120
   73MOL     C318867   1.387   6.687   4.180  0.7162  0.0341 -0.2995
   73MOL     C418868   1.490   6.628   4.276  0.3043  0.3261  0.5325
   73MOL     C518869   1.291   6.588   4.111  0.3066  0.0127  0.3241
   73MOL     H618870   1.276   7.001   4.091 -0.2438  0.8213 -0.1292
   73MOL     H718871   1.213   6.845   4.034 -0.1630 -0.7793  0.2218
   73MOL     H818872   1.442   6.876   4.232 -2.0894  0.8774  0.4924
   73MOL     H918873   1.443   6.597   4.370  3.9226 -0.5292  2.1203
   73MOL    H1018874   1.570   6.698   4.300  1.3887 -0.5927 -0.3652
   73MOL    H1118875   1.544   6.546   4.229  0.0755  0.7211 -0.4178
   73MOL    H1218876   1.351   6.543   4.033 -0.3797  1.8744 -1.3381
   73MOL    H1318877   1.212   6.630   4.049 -0.1194 -0.7344  0.3563
   73MOL    H1418878   1.174   6.901   4.192 -0.0799 -0.9549 -0.4232
   73MOL    C1518879   1.232   6.485   4.213  0.2188  0.1235 -0.3249
   73MOL    C1618880   1.151   6.382   4.145  0.5959  0.6938  0.2170
   73MOL    C1718881   1.165   6.247   4.149 -0.2524 -0.1649 -0.1782
   73MOL    C1818882   1.066   6.148   4.079 -0.2735 -0.6460 -0.4514
   73MOL    C1918883   1.282   6.177   4.215  0.4904  0.0286 -0.5610
   73MOL    H2018884   1.173   6.526   4.295 -2.3869 -0.7100 -1.7145
   73MOL    H2118885   1.315   6.436   4.265 -0.5276  0.0614  0.8396
   73MOL    H2218886   1.068   6.420   4.087 -2.2117 -3.3759  1.3227
   73MOL    H2318887   1.037   6.070   4.149 -0.3627  0.0024  0.2503
   73MOL    H2418888   1.122   6.092   4.004 -0.5341 -0.7809 -0.5419
   73MOL    H2518889   0.983   6.202   4.034  0.0780  0.2930 -0.0040
   73MOL    H2618890   1.256   6.076   4.248  1.2200 -0.0320 -0.1530
   73MOL    H2718891   1.312   6.228   4.306  1.9678 -2.2564  0.2836
   73MOL    C2818892   1.397   6.154   4.121 -0.7111 -0.5859 -0.4464
   73MOL    C2918893   1.529   6.110   4.177  0.0477 -0.1537  0.9707
   73MOL    C3018894   1.620   6.026   4.126  0.1890  0.5120 -0.0796
   73MOL    C3118895   1.767   6.011   4.176  0.0516  0.2129  0.3782
   73MOL    C3218896   1.600   5.935   4.005  0.8900 -0.1634 -0.2937
   73MOL    H3318897   1.419   6.248   4.071 -3.2167 -0.2904 -1.0992
   73MOL    H3418898   1.360   6.083   4.047 -2.7149  0.1101 -0.1686
   73MOL    H3518899   1.558   6.164   4.266  0.9408 -0.1398  0.6731
   73MOL    H3618900   1.844   6.037   4.103  0.4673  0.9420  1.0686
   73MOL    H3718901   1.789   5.911   4.212 -3.4948  0.0365  2.1948
   73MOL    H3818902   1.784   6.074   4.263  0.1392 -0.3176  0.7401
   73MOL    H3918903   1.685   5.956   3.941  0.7970  0.1757 -0.3061
   73MOL    H4018904   1.516   5.980   3.953 -0.2727 -2.5766 -0.5705
   73MOL    C4118905   1.595   5.789   4.042 -0.2231  0.0745  0.0011
   73MOL    C4218906   1.493   5.756   4.153  0.5026 -0.4262 -0.4112
   73MOL    C4318907   1.367   5.708   4.144 -1.0677 -0.2216 -0.1546
   73MOL    C4418908   1.281   5.697   4.271  0.3415  0.4425 -0.1207
   73MOL    C4518909   1.294   5.671   4.017  0.6602 -0.3291  0.0094
   73MOL    H4618910   1.691   5.757   4.081 -1.1633 -0.5039  1.9111
   73MOL    H4718911   1.578   5.739   3.947  0.6878  0.7775 -0.5395
   73MOL    H4818912   1.537   5.776   4.250 -0.5811 -2.2991  0.4774
   73MOL    H4918913   1.228   5.602   4.282  1.1402 -0.0599 -0.5774
   73MOL    H5018914   1.209   5.779   4.267 -2.0283 -1.5895 -1.3074
   73MOL    H5118915   1.337   5.719   4.361  1.0118 -0.1774 -0.3873
   73MOL    H5218916   1.226   5.588   4.039 -2.3961  2.0583  0.0347
   73MOL    H5318917   1.356   5.639   3.933 -0.7107 -1.1442 -0.7177
   73MOL    C5418918   1.198   5.786   3.971  0.4650 -0.0923 -0.3022
   73MOL    C5518919   1.141   5.750   3.833  0.3035  0.4433  0.6373
   73MOL    C5618920   1.049   5.822   3.760 -0.4471 -0.5128  0.2103
   73MOL    C5718921   1.017   5.788   3.620  0.0583 -0.1326 -0.0139
   73MOL    C5818922   0.969   5.946   3.816 -0.1228 -0.1877  0.7107
   73MOL    H5918923   1.243   5.884   3.958  0.8170 -0.0380  1.2709
   73MOL    H6018924   1.115   5.784   4.041  1.6807 -1.6059  1.1278
   73MOL    H6118925   1.197   5.671   3.784 -0.3929  0.2534  0.1518
   73MOL    H6218926   0.912   5.757   3.614  0.0852 -0.5232  1.4214
   73MOL    H6318927   1.070   5.703   3.577  0.9681  0.3297  0.1893
   73MOL    H6418928   1.032   5.877   3.560 -1.4470  0.4280  0.4265
   73MOL    H6518929   1.028   6.035   3.795 -0.6152  0.3559  1.5946
   73MOL    H6618930   0.979   5.940   3.925 -0.3387  1.0892  0.8112
   73MOL    C6718931   0.819   5.953   3.784 -0.3958  0.0955 -1.0414
   73MOL    C6818932   0.754   6.067   3.868 -0.2993  0.2437  0.0008
   73MOL    C6918933   0.682   6.166   3.817 -0.3544  0.2835 -0.2956
   73MOL    C7018934   0.610   6.263   3.911  0.2397  0.0915 -0.3599
   73MOL    C7118935   0.653   6.185   3.671  0.1725  0.1588  0.1138
   73MOL    H7218936   0.760   5.865   3.811 -0.6303 -0.1042 -2.1819
   73MOL    H7318937   0.796   5.952   3.678 -0.0102 -0.8734 -1.1249
   73MOL    H7418938   0.769   6.067   3.975 -3.2011 -0.5058  0.4432
   73MOL    H7518939   0.655   6.251   4.009  1.8431  1.5362 -0.8915
   73MOL    H7618940   0.502   6.244   3.908  0.4249 -1.4591  1.7239
   73MOL    H7718941   0.634   6.364   3.878 -1.5318  0.6685  0.0492
   73MOL    H7818942   0.729   6.139   3.608  1.1784 -0.2981  1.6408
   73MOL    H7918943   0.658   6.292   3.647 -1.9281  0.1137 -0.6517
   73MOL    C8018944   0.511   6.133   3.632 -0.0688  0.1547  0.5699
   73MOL    C8118945   0.508   5.979   3.636  0.4184 -0.0531 -0.1300
   73MOL    C8218946   0.421   5.898   3.695 -0.2061  0.1614 -0.1265
   73MOL    C8318947   0.315   5.950   3.795 -0.0721 -0.2062  0.1696
   73MOL    C8418948   0.440   5.750   3.687  0.2125  0.5234  0.2525
   73MOL    H8518949   0.487   6.161   3.529 -2.2398 -1.5482  0.5759
   73MOL    H8618950   0.432   6.172   3.696 -1.0400 -1.6096  0.4805
   73MOL    H8718951   0.588   5.928   3.584 -1.3337 -0.4082 -2.5833
   73MOL    H8818952   0.235   5.878   3.817  0.5758 -0.7634  0.7012
   73MOL    H8918953   0.280   6.044   3.753 -0.3313 -0.2652  0.2505
   73MOL    H9018954   0.364   5.966   3.891  0.2765  0.6579 -0.1581
   73MOL    H9118955   0.541   5.732   3.651  0.8782 -0.3660  2.4587
   73MOL    H9218956   0.377   5.718   3.604 -1.6610  0.1573  1.7770
   73MOL    C9318957   0.445   5.683   3.819 -0.1798 -0.0400  0.6785
   73MOL    C9418958   0.464   5.531   3.820  0.2586 -0.0793  0.5597
   73MOL    C9518959   0.366   5.437   3.808 -0.4087 -0.5891 -0.6676
   73MOL    C9618960   0.403   5.294   3.790  0.0748 -0.0517  0.2179
   73MOL    C9718961   0.218   5.474   3.802  0.8454  0.1955 -0.3402
   73MOL    H9818962   0.345   5.695   3.861 -0.8220 -2.5931 -0.0480
   73MOL    H9918963   0.504   5.728   3.899 -0.6593  2.0036 -0.0925
   73MOL   H10018964   0.566   5.501   3.802 -0.4257 -1.2038 -1.5889
   73MOL   H10118965   0.403   5.256   3.688  0.2160 -3.3588  1.3845
   73MOL   H10218966   0.506   5.281   3.826 -0.7432 -2.2556  1.8564
   73MOL   H10318967   0.339   5.235   3.854  1.0261 -2.8591 -1.3106
   73MOL   H10418968   0.169   5.409   3.730 -1.0984  2.1334 -0.8086
   73MOL   H10518969   0.194   5.573   3.762 -0.7478 -0.1691 -0.3089
   73MOL   C10618970   0.153   5.442   3.944  0.3014 -0.5245  0.3509
   73MOL   C10718971   0.197   5.528   4.057  0.2563 -0.5291  0.4175
   73MOL   C10818972   0.252   5.487   4.177  0.1177  0.9071 -0.2994
   73MOL   C10918973   0.278   5.339   4.206 -0.5575 -0.4400 -0.3956
   73MOL   C11018974   0.287   5.588   4.291 -0.4996  0.2432  0.4283
   73MOL   H11118975   0.154   5.336   3.973 -1.4819 -1.0172 -1.2788
   73MOL   H11218976   0.046   5.460   3.937 -0.0224 -2.3502  0.3665
   73MOL   H11318977   0.183   5.633   4.038  1.8334 -0.2276  0.8772
   73MOL   H11418978   0.367   5.309   4.150  1.9062  0.8746  2.6687
   73MOL   H11518979   0.289   5.319   4.313 -0.4790 -1.5762 -0.6087
   73MOL   H11618980   0.203   5.268   4.170 -1.5242  1.0492 -1.3345
   73MOL   H11718981   0.232   5.553   4.378  0.9105  0.0356  1.2475
   73MOL   H11818982   0.251   5.687   4.262 -0.0210  0.6370  1.1693
   73MOL   C11918983   0.439   5.592   4.313  0.3163 -0.6217  0.1336
   73MOL   C12018984   0.514   5.683   4.219  0.2157 -0.6879 -0.3518
   73MOL   C12118985   0.572   5.802   4.253 -0.1419  0.0201 -0.1363
   73MOL   C12218986   0.637   5.894   4.149 -0.1292  0.2050  0.2132
   73MOL   C12318987   0.570   5.867   4.391  0.4840  0.5379 -0.1655
   73MOL   H12418988   0.492   5.497   4.320  1.8013  0.3660  3.0712
   73MOL   H12518989   0.454   5.638   4.411 -0.3087  1.1869 -0.6080
   73MOL   H12618990   0.517   5.642   4.120 -1.5760 -0.2717 -0.5969
   73MOL   H12718991   0.743   5.896   4.176 -0.1813 -1.2503  0.5497
   73MOL   H12818992   0.591   5.992   4.152  0.8047  0.6173  1.5710
   73MOL   H12918993   0.634   5.862   4.045 -1.1480 -1.4567  0.7325
   73MOL   H13018994   0.485   5.833   4.451  1.5944 -0.0971  1.0616
   73MOL   H13118995   0.574   5.976   4.390  1.4869  0.5062  0.2104
   73MOL   C13218996   0.696   5.825   4.471 -0.5053 -0.6248 -0.2004
   73MOL   C13318997   0.713   5.906   4.602  0.7139  0.0613 -0.6670
   73MOL   C13418998   0.832   5.929   4.658  0.7406 -0.5332 -0.2904
   73MOL   C13518999   0.837   6.007   4.786  1.0024 -0.1066  0.3476
   73MOL   C13619000   0.964   5.864   4.618 -0.3261 -0.0735 -0.2498
   73MOL   H13719001   0.793   5.838   4.422  0.2240  0.3434  1.4464
   73MOL   H13819002   0.669   5.727   4.511 -0.2264 -0.8206 -0.4916
   73MOL   H13919003   0.618   5.940   4.640  0.0687 -0.4269 -1.8153
   73MOL   H14019004   0.888   6.101   4.765 -1.7124  1.6058  1.0644
   73MOL   H14119005   0.892   5.957   4.865  0.7222 -1.0001 -0.0144
   73MOL   H14219006   0.739   6.021   4.832  0.7250  1.1946 -0.6225
   73MOL   H14319007   1.046   5.929   4.646 -0.9522  0.7552 -0.3124
   73MOL   H14419008   0.979   5.855   4.510  1.5438  1.5663 -0.1499
   73MOL   C14519009   0.996   5.724   4.686 -0.1975 -0.5501  0.4860
   73MOL   C14619010   1.109   5.648   4.622  0.1322  0.1202  0.2008
   73MOL   C14719011   1.110   5.520   4.580  0.2798  0.2077 -0.3967
   73MOL   C14819012   1.239   5.452   4.511 -1.3478  0.2233  0.3392
   73MOL   C14919013   0.992   5.421   4.584 -0.3298 -0.1325 -0.2718
   73MOL   H15019014   0.899   5.674   4.688  0.1222 -1.3609 -2.1649
   73MOL   H15119015   1.033   5.734   4.788  1.7210  1.7383 -0.3933
   73MOL   H15219016   1.195   5.712   4.611  1.3714 -1.5374  0.0097
   73MOL   H15319017   1.218   5.418   4.410  1.0010 -1.4726  0.3764
   73MOL   H15419018   1.274   5.366   4.568  1.1221  1.1593  0.3183
   73MOL   H15519019   1.316   5.529   4.513  0.5501 -1.5492 -1.2760
   73MOL   H15619020   0.949   5.418   4.684  1.1680 -0.4355  0.3817
   73MOL   H15719021   1.037   5.323   4.569 -0.4545 -0.5065  1.6434
   73MOL   C15819022   0.883   5.452   4.478 -0.3268 -0.2529 -0.0343
   73MOL   C15919023   0.939   5.409   4.342 -0.2981  0.6313 -1.0300
   73MOL   C16019024   0.937   5.485   4.234  0.0627  0.7783 -0.0319
   73MOL   C16119025   0.889   5.626   4.235 -0.7658  0.0254 -0.6869
   73MOL   C16219026   1.000   5.437   4.103  0.8938  0.2640 -0.0807
   73MOL   H16319027   0.855   5.556   4.496 -2.4661 -0.9037  0.5272
   73MOL   H16419028   0.786   5.405   4.492 -1.6921  1.8026 -2.1006
   73MOL   H16519029   1.000   5.320   4.331 -2.2556 -0.4398 -4.0578
   73MOL   H16619030   0.780   5.620   4.234 -1.0326  0.9941  4.8312
   73MOL   H16719031   0.919   5.688   4.151  0.6350  2.2782  1.3877
   73MOL   H16819032   0.919   5.678   4.326 -1.9080 -0.7681  0.1527
   73MOL   H16919033   1.092   5.382   4.122  0.3109 -0.2521  1.3133
   73MOL   H17019034   1.032   5.526   4.049  4.7583  0.4817  2.3511
   73MOL   C17119035   0.903   5.361   4.007  0.3379  0.1075  0.1067
   73MOL   C17219036   0.899   5.219   4.033  0.6659  0.7407  0.7345
   73MOL   C17319037   0.803   5.154   4.101  0.2718 -0.3498 -0.4422
   73MOL   C17419038   0.676   5.217   4.154  0.8095  0.5532 -0.5650
   73MOL   C17519039   0.815   5.004   4.129  0.1122 -0.3778  0.2693
   73MOL   H17619040   0.956   5.371   3.912  1.6815 -1.6017  0.6554
   73MOL   H17719041   0.801   5.399   4.004  0.2597 -0.2089 -2.0247
   73MOL   H17819042   0.982   5.160   3.996 -0.0368 -0.1573  0.5761
   73MOL   H17919043   0.598   5.142   4.168  0.8852  0.9068  2.1014
   73MOL   H18019044   0.637   5.293   4.086 -0.9772  2.1601  2.1675
   73MOL   H18119045   0.696   5.255   4.254 -2.7350 -1.3683  0.9769
   73MOL   H18219046   0.902   4.956   4.082  0.5271  0.6815 -0.0583
   73MOL   H18319047   0.729   4.954   4.085  0.6282 -0.4919 -0.6386
   73MOL   C18419048   0.826   4.978   4.282 -0.5329  0.0978  0.3850
   73MOL   C18519049   0.804   4.830   4.333  0.3272 -0.7970  0.3932
   73MOL   C18619050   0.680   4.779   4.358 -0.9076 -0.0715  0.3158
   73MOL   C18719051   0.650   4.650   4.431 -0.7784  0.7183 -0.6787
   73MOL   C18819052   0.557   4.856   4.320  0.0285 -0.7111 -0.3328
   73MOL   H18919053   0.760   5.046   4.337  0.1291 -0.0284  1.3362
   73MOL   H19019054   0.926   5.001   4.318 -1.0081  1.0042  1.1429
   73MOL   H19119055   0.886   4.766   4.360 -0.1971 -1.5665  0.1550
   73MOL   H19219056   0.568   4.599   4.381 -0.7155 -1.7360  1.5786
   73MOL   H19319057   0.605   4.663   4.530  0.4161 -0.1495 -0.0081
   73MOL   H19419058   0.736   4.583   4.433 -2.1904 -1.1359 -0.1193
   73MOL   H19519059   0.495   4.798   4.251 -1.0883 -1.3236  1.1748
   73MOL   H19619060   0.583   4.947   4.267 -3.3369 -0.1310 -1.0717
   73MOL   C19719061   0.466   4.906   4.432  0.0078  0.8670 -0.0502
   73MOL   C19819062   0.323   4.885   4.397 -0.1324 -0.6128 -0.1746
   73MOL   C19919063   0.234   4.805   4.456 -0.0992  0.0669  0.3698
   73MOL   C20019064   0.092   4.796   4.408 -0.3588 -0.0621  0.1093
   73MOL   C20119065   0.256   4.733   4.588 -0.5605  0.0725  0.4943
   73MOL   H20219066   0.478   5.013   4.444  1.7590  0.8241 -1.2829
   73MOL   H20319067   0.481   4.854   4.527  0.1683  1.1250  0.0627
   73MOL   H20419068   0.294   4.930   4.303  0.8052 -2.0724 -1.1824
   73MOL   H20519069   0.049   4.698   4.425 -1.4011  0.5631  1.1041
   73MOL   H20619070   0.082   4.821   4.302 -3.4175  2.8358  1.0042
   73MOL   H20719071   0.035   4.865   4.470 -1.0855 -1.1716  0.6892
   73MOL   H20819072   0.180   4.775   4.654 -0.4737  0.4293  0.3679
   73MOL   H20919073   0.354   4.754   4.630 -0.2634 -0.3287  0.0065
   73MOL   C21019074   0.249   4.581   4.572 -0.0381  0.2137 -0.2784
   73MOL   C21119075   0.244   4.510   4.712 -0.2980  0.7877 -0.3191
   73MOL   C21219076   0.338   4.429   4.769 -0.4634  0.8709  0.0604
   73MOL   C21319077   0.323   4.368   4.909 -0.4652 -0.1594 -0.6867
   73MOL   C21419078   0.471   4.384   4.703  0.1630 -0.3366 -0.2892
   73MOL   H21519079   0.334   4.539   4.519  0.6255  0.4589  0.5816
   73MOL   H21619080   0.160   4.541   4.523 -0.7030  0.3434  0.8038
   73MOL   H21719081   0.153   4.532   4.765 -1.1117 -1.2352 -0.8180
   73MOL   H21819082   0.241   4.418   4.962 -1.2670 -1.4643 -0.6797
   73MOL   H21919083   0.409   4.404   4.966 -1.9806  0.2885  1.4184
   73MOL   H22019084   0.323   4.259   4.905  1.0711 -0.2156  0.3856
   73MOL   H22119085   0.549   4.387   4.779 -0.2486  0.4869  0.1090
   73MOL   H22219086   0.505   4.455   4.627 -0.5111 -1.2580 -1.4669
   73MOL   C22319087   0.472   4.250   4.632  0.8589 -0.1296  0.2223
   73MOL   C22419088   0.590   4.241   4.537  0.2974  0.0397 -0.5516
   73MOL   C22519089   0.597   4.241   4.404  1.8748  0.2966  0.1951
   73MOL   C22619090   0.726   4.241   4.333 -0.5618 -0.0658  0.1822
   73MOL   C22719091   0.474   4.248   4.311  0.6723  0.9305  0.0529
   73MOL   H22819092   0.379   4.238   4.576  0.5083 -1.0111  0.9798
   73MOL   H22919093   0.477   4.175   4.711 -2.4042 -0.2512  0.3864
   73MOL   H23019094   0.686   4.240   4.586  0.8611  0.4229 -1.6446
   73MOL   H23119095   0.755   4.150   4.281  0.3109 -0.2465  0.9528
   73MOL   H23219096   0.810   4.267   4.398  1.1080  1.1978 -2.4279
   73MOL   H23319097   0.731   4.322   4.261  0.2551  0.9335  1.3376
   73MOL   H23419098   0.475   4.340   4.252 -1.1606  0.4633 -0.7419
   73MOL   H23519099   0.388   4.281   4.370  0.8765  1.5374  0.0120
   73MOL   C23619100   0.449   4.129   4.221 -0.4138  0.2225  0.3007
   73MOL   C23719101   0.354   4.024   4.282  1.2461 -0.0835  0.8967
   73MOL   C23819102   0.253   3.954   4.225  0.8517 -0.0733  0.2559
   73MOL   C23919103   0.176   3.852   4.302  0.3264  0.0512  0.2609
   73MOL   C24019104   0.206   3.969   4.075 -0.4017 -0.3589 -0.5081
   73MOL   H24119105   0.542   4.082   4.188 -0.3522  1.2870 -1.1171
   73MOL   H24219106   0.402   4.177   4.135 -1.5605 -0.4314  0.5530
   73MOL   H24319107   0.380   3.989   4.381  1.3648 -1.5210  0.3702
   73MOL   H24419108   0.239   3.763   4.309 -0.3764 -0.4429  0.4252
   73MOL   H24519109   0.074   3.827   4.273 -0.1355 -0.3675  2.2154
   73MOL   H24619110   0.157   3.883   4.404  0.5359  0.6739  0.1125
   73MOL   H24719111   0.253   4.058   4.035 -1.6155 -0.5601 -2.4771
   73MOL   H24819112   0.098   3.978   4.076 -0.0928  4.3869  0.3564
   73MOL   C24919113   0.248   3.850   3.992  0.0497  0.1661  0.0670
   73MOL   C25019114   0.402   3.838   3.984  0.1534  0.5727 -0.8737
   73MOL   C25119115   0.479   3.744   4.045 -0.0525 -0.3210  0.5291
   73MOL   C25219116   0.632   3.763   4.048  0.4592 -0.1978  0.6771
   73MOL   C25319117   0.434   3.622   4.120 -0.1073  0.4092 -0.2698
   73MOL   H25419118   0.229   3.873   3.888 -0.3283  0.3382  0.1752
   73MOL   H25519119   0.197   3.755   4.010 -0.6037 -0.2632 -3.6298
   73MOL   H25619120   0.444   3.915   3.921  1.8220 -1.6240 -2.4971
   73MOL   H25719121   0.685   3.697   3.978 -1.2643 -1.5393  0.6141
   73MOL   H25819122   0.676   3.738   4.145  0.5694 -0.1645  0.6362
   73MOL   H25919123   0.656   3.867   4.022 -0.6327 -0.5596 -1.9659
   73MOL   H26019124   0.328   3.604   4.099  0.1526  0.0810 -1.3526
   73MOL   H26119125   0.434   3.654   4.224  0.4084 -0.8871  0.1320
   73MOL   H26219126   0.498   3.538   4.095 -0.7164 -0.4132  0.8980
   74MOL     C119127   3.343   1.036   0.637  0.7616  0.4161  0.8717
   74MOL     C219128   3.492   1.040   0.669  0.0006  0.0140  0.1858
   74MOL     C319129   3.586   1.101   0.603 -0.1059 -0.0939  0.0684
   74MOL     C419130   3.730   1.078   0.638 -0.4375  0.1816 -0.5518
   74MOL     C519131   3.561   1.198   0.486 -0.1059 -0.2023 -0.1133
   74MOL     H619132   3.275   1.008   0.717 -2.2981  1.4860 -1.2477
   74MOL     H719133   3.314   1.136   0.604 -0.2702 -0.3828 -0.7164
   74MOL     H819134   3.524   0.973   0.747  1.1611 -1.3663 -1.4474
   74MOL     H919135   3.749   1.004   0.715 -2.6439 -0.2204 -0.3749
   74MOL    H1019136   3.769   1.171   0.680  2.5724 -2.1303  2.0309
   74MOL    H1119137   3.797   1.054   0.555 -0.2700  0.0161 -0.3690
   74MOL    H1219138   3.611   1.293   0.505 -0.5716  0.3414 -1.5453
   74MOL    H1319139   3.454   1.220   0.483  0.3995  2.6106  0.5362
   74MOL    H1419140   3.331   0.963   0.557  2.0663 -1.3701  2.2585
   74MOL    C1519141   3.598   1.141   0.350  0.9515  0.1826  0.2405
   74MOL    C1619142   3.555   1.230   0.232  0.3856 -0.9755 -0.8161
   74MOL    C1719143   3.585   1.202   0.105 -0.6275  0.1540  0.4734
   74MOL    C1819144   3.523   1.282   7.873  0.3427 -0.2858  0.0436
   74MOL    C1919145   3.688   1.103   0.058  0.3510 -0.1327  1.1500
   74MOL    H2019146   3.537   1.052   0.340  0.3022  0.8059 -1.5608
   74MOL    H2119147   3.702   1.108   0.349  1.7289  2.4265  1.5728
   74MOL    H2219148   3.485   1.312   0.247  0.3317 -1.2035  0.2275
   74MOL    H2319149   3.594   1.333   7.809  1.6276 -0.0508  1.6185
   74MOL    H2419150   3.458   1.361   0.030  0.8564  0.9741 -1.7484
   74MOL    H2519151   3.465   1.218   7.807 -0.3559  1.3813 -0.9878
   74MOL    H2619152   3.744   1.056   0.139  1.3472 -0.1028  0.4980
   74MOL    H2719153   3.757   1.166   0.002 -1.2017  0.0972 -0.5460
   74MOL    C2819154   3.627   0.990   7.845  0.2254  0.2612 -0.8252
   74MOL    C2919155   3.730   0.905   7.780  0.2268  0.2966 -0.5939
   74MOL    C3019156   3.733   0.772   7.764 -0.1644 -0.7405 -0.5453
   74MOL    C3119157   3.842   0.697   7.707 -0.4005  0.0625  0.6962
   74MOL    C3219158   3.628   0.688   7.827  0.3814 -0.9063  0.1028
   74MOL    H3319159   3.587   1.046   7.760  1.7921  1.0379 -1.0714
   74MOL    H3419160   3.551   0.945   0.030  1.2999  0.8548  0.8922
   74MOL    H3519161   3.812   0.955   7.731  0.6695  1.2945  1.1335
   74MOL    H3619162   3.798   0.614   7.652 -1.1476 -0.0747  1.4988
   74MOL    H3719163   3.908   0.650   7.780  2.6173  2.4756 -0.3514
   74MOL    H3819164   3.903   0.752   7.636 -1.9500  0.7158 -0.1554
   74MOL    H3919165   3.621   0.593   7.773  0.9021 -1.3295  0.7615
   74MOL    H4019166   3.535   0.745   7.828  1.8562  1.5461  0.4273
   74MOL    C4119167   3.664   0.665   0.096 -0.1672 -0.0146 -0.0884
   74MOL    C4219168   3.562   0.593   0.169  0.4328  0.3609 -0.1066
   74MOL    C4319169   3.454   0.642   0.235 -0.2927  0.4197  0.3458
   74MOL    C4419170   3.357   0.553   0.298  0.2277  0.1430 -0.7493
   74MOL    C4519171   3.425   0.788   0.257 -0.1802 -0.1829 -0.1046
   74MOL    H4619172   3.686   0.766   0.130 -3.0903  1.6946 -2.9248
   74MOL    H4719173   3.757   0.612   0.115  1.0415  1.7425 -0.9909
   74MOL    H4819174   3.578   0.486   0.165 -1.9684  0.0437 -2.6608
   74MOL    H4919175   3.373   0.447   0.279  0.7276 -0.0707  0.7946
   74MOL    H5019176   3.250   0.564   0.279  0.3855  3.0225 -0.1093
   74MOL    H5119177   3.386   0.572   0.402  1.7797  1.4184 -1.3974
   74MOL    H5219178   3.510   0.847   0.223  0.8095 -1.7013 -0.3153
   74MOL    H5319179   3.422   0.823   0.360 -0.4638  0.7457 -0.4239
   74MOL    C5419180   3.310   0.824   0.171 -0.1289 -0.4139 -0.1470
   74MOL    C5519181   3.281   0.976   0.170 -0.2903  0.2470 -0.4967
   74MOL    C5619182   3.203   1.038   0.259 -0.4203 -0.1380  0.7651
   74MOL    C5719183   3.187   1.188   0.249 -0.0997  0.0721  0.3856
   74MOL    C5819184   3.131   0.961   0.369 -0.4252 -0.0451 -0.2029
   74MOL    H5919185   3.216   0.781   0.206  0.0755 -1.7512 -1.1623
   74MOL    H6019186   3.328   0.784   0.071  2.1219 -2.9517  1.1752
   74MOL    H6119187   3.323   1.029   0.086  0.4915  0.3315 -0.0666
   74MOL    H6219188   3.240   1.223   0.160  0.4951 -0.1749  0.6432
   74MOL    H6319189   3.211   1.245   0.338  2.5679  1.6169 -1.2526
   74MOL    H6419190   3.083   1.202   0.219 -0.7480  0.8747  2.8638
   74MOL    H6519191   3.103   1.028   0.450  0.0984  0.2901 -0.3004
   74MOL    H6619192   3.191   0.884   0.418 -2.7743 -2.0406 -0.3447
   74MOL    C6719193   3.003   0.901   0.319 -1.1155 -0.4499 -0.4087
   74MOL    C6819194   2.931   0.826   0.430  0.1441 -0.0015  0.5506
   74MOL    C6919195   2.877   0.703   0.425 -0.9509  0.2254  0.7903
   74MOL    C7019196   2.802   0.647   0.540 -0.3907  0.0926  0.3589
   74MOL    C7119197   2.900   0.611   0.304 -0.2007 -0.1520 -1.2883
   74MOL    H7219198   3.021   0.839   0.231  0.5972 -0.5226 -0.0273
   74MOL    H7319199   2.930   0.973   0.282 -0.3851 -0.3631 -1.6947
   74MOL    H7419200   2.921   0.878   0.524 -0.0834 -1.6311  1.4434
   74MOL    H7519201   2.874   0.583   0.590  1.3040  2.7873  1.4430
   74MOL    H7619202   2.728   0.572   0.510  0.5368 -0.8149  0.3278
   74MOL    H7719203   2.757   0.728   0.597 -2.7071 -1.2892  0.5448
   74MOL    H7819204   2.915   0.514   0.352  0.3718  0.1927 -0.7667
   74MOL    H7919205   2.994   0.630   0.253 -0.7740 -0.8695 -2.6267
   74MOL    C8019206   2.778   0.597   0.215  0.9251 -0.3722  0.7252
   74MOL    C8119207   2.829   0.542   0.082  0.3294 -0.3384  0.3335
   74MOL    C8219208   2.829   0.414   0.043 -0.0691 -0.3230 -0.0461
   74MOL    C8319209   2.787   0.297   0.131  0.3955 -0.1907  0.1070
   74MOL    C8419210   2.901   0.365   7.797  0.2151  0.5685  0.0102
   74MOL    H8519211   2.735   0.694   0.191 -1.0070 -0.9258  1.8415
   74MOL    H8619212   2.700   0.536   0.261 -0.1638 -0.8323 -1.6782
   74MOL    H8719213   2.863   0.621   0.017 -2.6913  0.2036 -0.6398
   74MOL    H8819214   2.770   0.208   0.070  0.6920 -0.1181 -0.0795
   74MOL    H8919215   2.697   0.311   0.192 -1.3545 -2.3065 -1.8955
   74MOL    H9019216   2.874   0.271   0.192  1.6154  2.2369 -0.5643
   74MOL    H9119217   2.921   0.441   7.721 -0.8149 -0.8479 -1.7283
   74MOL    H9219218   2.842   0.288   7.747  2.0781 -0.5483 -0.5393
   74MOL    C9319219   3.028   0.303   7.836 -0.7079  0.3713 -0.0112
   74MOL    C9419220   3.117   0.281   7.723 -0.0482 -0.5617  0.0740
   74MOL    C9519221   3.211   0.367   7.670 -0.3008  0.6981  0.1841
   74MOL    C9619222   3.289   0.335   7.543  0.2007 -0.0968 -0.4728
   74MOL    C9719223   3.231   0.510   7.723 -0.2872  0.0597 -0.4196
   74MOL    H9819224   3.011   0.213   0.016  2.0892 -0.4245 -0.3583
   74MOL    H9919225   3.070   0.367   0.035 -2.3779 -0.9928  2.0564
   74MOL   H10019226   3.114   0.186   7.671  2.0430 -0.3266 -0.5257
   74MOL   H10119227   3.240   0.256   7.486  0.1085 -1.8575  1.9747
   74MOL   H10219228   3.300   0.412   7.468 -0.8006 -1.4804 -2.0690
   74MOL   H10319229   3.389   0.295   7.561 -0.4924 -1.7443 -0.1022
   74MOL   H10419230   3.336   0.536   7.735 -0.3251  0.4991 -1.0279
   74MOL   H10519231   3.201   0.514   7.828  0.3955  0.2254 -0.2246
   74MOL   C10619232   3.163   0.618   7.638  0.2887  0.2771  0.1788
   74MOL   C10719233   3.178   0.761   7.683  0.1050 -0.0040  0.3289
   74MOL   C10819234   3.247   0.857   7.626  0.1718 -0.9057 -0.3827
   74MOL   C10919235   3.339   0.847   7.500 -0.1325  0.0323  0.1200
   74MOL   C11019236   3.252   1.000   7.682 -0.1508 -0.2698  0.0252
   74MOL   H11119237   3.055   0.611   7.645  0.5087 -2.5765  1.2638
   74MOL   H11219238   3.203   0.595   7.539  3.8546  0.1360  1.5593
   74MOL   H11319239   3.118   0.781   7.770 -0.7017  1.5531 -0.5585
   74MOL   H11419240   3.318   0.764   7.432 -0.7978  0.6222 -0.3893
   74MOL   H11519241   3.327   0.943   7.451 -2.3125 -0.8378 -1.1294
   74MOL   H11619242   3.440   0.836   7.539 -0.6594  0.2819  1.5721
   74MOL   H11719243   3.352   1.037   7.703  0.0498 -1.3403  0.9967
   74MOL   H11819244   3.212   0.988   7.782  1.0851 -1.9595  0.3291
   74MOL   C11919245   3.182   1.112   7.601  0.5372 -0.6623  0.0569
   74MOL   C12019246   3.166   1.238   7.680  0.1850  0.7220  0.6264
   74MOL   C12119247   3.043   1.296   7.716  0.2377 -1.4420  0.5021
   74MOL   C12219248   3.040   1.420   7.798  0.0809  0.5556  0.2398
   74MOL   C12319249   2.899   1.246   7.683  0.3214 -0.6804 -0.1394
   74MOL   H12419250   3.086   1.078   7.562  0.4304  0.1054 -0.3569
   74MOL   H12519251   3.244   1.145   7.518  0.4795  0.3384  0.4047
   74MOL   H12619252   3.261   1.286   7.697 -0.4230  2.0923  0.2163
   74MOL   H12719253   2.963   1.418   7.875  0.9579 -2.1447  1.1115
   74MOL   H12819254   3.020   1.509   7.737  3.2597  1.1538 -0.0036
   74MOL   H12919255   3.129   1.434   7.859 -0.2496 -0.1421  0.8842
   74MOL   H13019256   2.897   1.221   7.578  0.2489 -2.0147  0.1803
   74MOL   H13119257   2.815   1.316   7.689  0.2861 -0.6355 -1.0759
   74MOL   C13219258   2.868   1.122   7.766 -0.6944  0.4633  0.8275
   74MOL   C13319259   2.720   1.073   7.749  0.2439 -0.4908 -0.8706
   74MOL   C13419260   2.667   0.957   7.708  0.2264 -0.2751  0.0843
   74MOL   C13519261   2.514   0.939   7.712  0.9371 -0.5169 -0.1373
   74MOL   C13619262   2.749   0.837   7.675 -0.5116  0.1186  0.0432
   74MOL   H13719263   2.894   1.121   7.872 -2.5832 -0.7946  1.3111
   74MOL   H13819264   2.922   1.037   7.726 -2.5218 -1.0386  1.4771
   74MOL   H13919265   2.649   1.146   7.784  1.7073  3.0420 -4.7583
   74MOL   H14019266   2.496   0.848   7.768  0.3211 -0.6616 -0.5721
   74MOL   H14119267   2.470   0.921   7.614  0.9518  0.1318 -0.2668
   74MOL   H14219268   2.460   1.012   7.773  1.4551 -0.9926  0.9036
   74MOL   H14319269   2.693   0.756   7.720 -0.2737  0.0830  0.2762
   74MOL   H14419270   2.846   0.835   7.725 -0.0809  2.3262 -0.6250
   74MOL   C14519271   2.759   0.796   7.527  0.1202  0.0229  0.1730
   74MOL   C14619272   2.828   0.908   7.455 -0.3773  0.2997  0.5592
   74MOL   C14719273   2.768   0.973   7.349  0.1005  0.1644  0.0768
   74MOL   C14819274   2.830   1.099   7.295  0.9463  0.6562  0.3305
   74MOL   C14919275   2.643   0.927   7.267  0.7110  0.3471 -0.9937
   74MOL   H15019276   2.658   0.774   7.491  0.3451 -0.6607 -0.0450
   74MOL   H15119277   2.807   0.699   7.518  1.7098  0.5984  2.0759
   74MOL   H15219278   2.920   0.945   7.498 -0.4230 -0.2045  1.1034
   74MOL   H15319279   2.923   1.134   7.339  1.2981  0.1505 -0.0020
   74MOL   H15419280   2.761   1.184   7.297 -0.0013 -0.0614 -0.9945
   74MOL   H15519281   2.863   1.088   7.191 -0.0904 -0.0929  0.0790
   74MOL   H15619282   2.610   1.015   7.212 -0.0296 -0.2303 -1.4826
   74MOL   H15719283   2.556   0.890   7.322  1.9589 -0.8593  0.2320
   74MOL   C15819284   2.683   0.826   7.154 -0.2689 -0.8317  0.6219
   74MOL   C15919285   2.577   0.811   7.045  0.2121 -0.5902  0.0388
   74MOL   C16019286   2.571   0.882   6.929 -0.7963 -0.2655  0.2838
   74MOL   C16119287   2.662   1.000   6.897  1.2061 -0.3962  0.7886
   74MOL   C16219288   2.480   0.838   6.816 -0.0667  0.0989  0.1035
   74MOL   H16319289   2.702   0.729   7.199  3.5463 -0.1404  0.6543
   74MOL   H16419290   2.775   0.852   7.102 -0.2105 -1.9029  0.1802
   74MOL   H16519291   2.505   0.732   7.062 -0.9018  0.9288  2.8274
   74MOL   H16619292   2.701   1.039   6.991 -0.5694 -1.4262  2.0009
   74MOL   H16719293   2.596   1.065   6.840  0.7332 -1.9073 -0.4442
   74MOL   H16819294   2.744   0.981   6.828 -0.3147 -1.6099 -0.7436
   74MOL   H16919295   2.397   0.907   6.803 -0.8776 -0.6319  1.2283
   74MOL   H17019296   2.440   0.742   6.849  1.5279 -1.5022 -2.4520
   74MOL   C17119297   2.557   0.817   6.680 -0.2385  0.5207 -0.2384
   74MOL   C17219298   2.480   0.729   6.581  0.3661 -0.3749  0.3288
   74MOL   C17319299   2.513   0.610   6.526 -0.2312  0.0388 -0.5618
   74MOL   C17419300   2.645   0.536   6.557  0.3038 -0.0740  0.5510
   74MOL   C17519301   2.432   0.552   6.409  0.0647 -0.4383  0.0704
   74MOL   H17619302   2.653   0.768   6.694 -0.7021  0.3158  2.3684
   74MOL   H17719303   2.585   0.911   6.634  1.9419  1.3835  2.7313
   74MOL   H17819304   2.383   0.765   6.550  0.5702 -0.3410 -0.2837
   74MOL   H17919305   2.627   0.437   6.599 -1.1542  0.1565  0.4665
   74MOL   H18019306   2.721   0.589   6.614  1.0063  0.8024 -1.1433
   74MOL   H18119307   2.684   0.517   6.457  1.2922 -0.3622  0.9860
   74MOL   H18219308   2.326   0.575   6.412 -0.1383 -1.5248  1.6582
   74MOL   H18319309   2.434   0.444   6.401 -1.6161 -0.2983 -2.7172
   74MOL   C18419310   2.475   0.627   6.280 -0.6623  0.2285 -0.5453
   74MOL   C18519311   2.436   0.544   6.161 -0.2298 -0.8162 -0.3989
   74MOL   C18619312   2.355   0.572   6.060  0.2798 -0.5436 -0.4610
   74MOL   C18719313   2.322   0.473   5.950  0.5638  0.5963 -1.4182
   74MOL   C18819314   2.276   0.701   6.052  0.3580  0.4486 -1.0035
   74MOL   H18919315   2.583   0.640   6.278 -0.4821 -1.1357  0.0253
   74MOL   H19019316   2.427   0.725   6.283  1.6319  1.4346 -1.7190
   74MOL   H19119317   2.485   0.447   6.160 -0.6246 -1.0501  1.1324
   74MOL   H19219318   2.254   0.400   5.995  1.6874  2.5507  3.7543
   74MOL   H19319319   2.403   0.424   5.896  1.0196  0.4780 -0.6380
   74MOL   H19419320   2.264   0.527   5.875 -1.6377  0.0772 -0.1466
   74MOL   H19519321   2.270   0.741   5.950  0.8687  2.2066 -0.3621
   74MOL   H19619322   2.325   0.782   6.106  0.6779 -0.9064  0.7527
   74MOL   C19719323   2.125   0.675   6.087  0.0528  0.6571  0.1655
   74MOL   C19819324   2.105   0.645   6.231  0.8431 -0.3318  0.1088
   74MOL   C19919325   2.003   0.700   6.306 -0.2812 -0.4354  0.1508
   74MOL   C20019326   1.983   0.650   6.447 -0.5604 -0.5326  0.1213
   74MOL   C20119327   1.920   0.816   6.263  0.1167  0.4454  0.3066
   74MOL   H20219328   2.092   0.587   6.032 -0.2892  0.3428  0.8611
   74MOL   H20319329   2.061   0.758   6.058  0.8926  2.2140  2.5279
   74MOL   H20419330   2.154   0.561   6.277  1.0664 -1.1170 -1.5413
   74MOL   H20519331   1.881   0.651   6.483 -0.5579 -0.4650  0.1267
   74MOL   H20619332   2.047   0.714   6.508  0.3886  0.2580 -1.6629
   74MOL   H20719333   2.029   0.552   6.463  0.4049 -0.1757 -0.3947
   74MOL   H20819334   1.813   0.804   6.284 -0.3896  1.1355 -1.7261
   74MOL   H20919335   1.900   0.817   6.156  1.8524  1.5963 -0.0201
   74MOL   C21019336   1.969   0.949   6.324 -0.0320  1.1706  0.1485
   74MOL   C21119337   2.105   0.996   6.271 -0.0954  0.1569 -0.0341
   74MOL   C21219338   2.202   1.061   6.340  0.0995 -0.5481  0.3503
   74MOL   C21319339   2.318   1.108   6.259 -0.2412  0.5145 -0.1768
   74MOL   C21419340   2.207   1.094   6.488 -0.1076 -0.8294 -0.0470
   74MOL   H21519341   1.966   0.931   6.432 -0.6984 -0.2238 -0.0825
   74MOL   H21619342   1.898   1.030   6.308 -2.3341 -0.7772  0.1147
   74MOL   H21719343   2.125   0.984   6.166  0.2582 -0.4712  0.1040
   74MOL   H21819344   2.340   1.211   6.288 -1.5637  0.9869 -0.7922
   74MOL   H21919345   2.305   1.101   6.151 -1.4027  1.3791 -0.1066
   74MOL   H22019346   2.413   1.057   6.272 -0.0684  0.7824 -0.3779
   74MOL   H22119347   2.308   1.067   6.521 -0.3237 -1.1308  0.3656
   74MOL   H22219348   2.137   1.028   6.538 -1.3854 -0.4757 -1.3339
   74MOL   C22319349   2.176   1.243   6.522 -0.8689 -0.3292 -0.1512
   74MOL   C22419350   2.179   1.256   6.676  0.7856 -0.3564 -0.2194
   74MOL   C22519351   2.156   1.374   6.744  0.0331 -0.1596  0.0137
   74MOL   C22619352   2.136   1.375   6.895 -0.6604  0.4721  0.3484
   74MOL   C22719353   2.125   1.502   6.675 -0.0850 -0.6018  1.2424
   74MOL   H22819354   2.074   1.278   6.502 -0.3013  3.0935  2.4700
   74MOL   H22919355   2.244   1.315   6.476  2.5784 -2.3781  1.5665
   74MOL   H23019356   2.187   1.166   6.735 -0.5321 -0.1613  0.2845
   74MOL   H23119357   2.033   1.353   6.921 -1.1170  3.8445  1.7409
   74MOL   H23219358   2.149   1.473   6.942  2.4112 -0.0008  0.6143
   74MOL   H23319359   2.184   1.290   6.944 -0.2014 -0.9848 -2.5680
   74MOL   H23419360   2.157   1.497   6.571  0.0070 -0.7227  1.2760
   74MOL   H23519361   2.198   1.571   6.720 -0.3576 -1.7605  3.5634
   74MOL   C23619362   1.977   1.544   6.663  0.0325 -0.1572 -0.1590
   74MOL   C23719363   1.971   1.690   6.703  0.4875 -0.1232 -0.3262
   74MOL   C23819364   1.965   1.800   6.626  0.3718  0.0806 -0.1430
   74MOL   C23919365   1.961   1.938   6.682  0.2397 -1.1246  0.4002
   74MOL   C24019366   1.960   1.791   6.474 -0.0350  0.4132  0.2802
   74MOL   H24119367   1.914   1.476   6.720 -1.1374 -1.1517 -2.5413
   74MOL   H24219368   1.939   1.534   6.561  0.6591 -0.2669 -0.3797
   74MOL   H24319369   1.986   1.709   6.808  0.9276 -0.0819 -0.3962
   74MOL   H24419370   1.881   1.994   6.634 -0.9687 -2.5517  0.7177
   74MOL   H24519371   2.054   1.994   6.675 -0.3286 -0.3781 -1.4637
   74MOL   H24619372   1.937   1.947   6.788  1.4856 -1.8489  0.7514
   74MOL   H24719373   1.853   1.789   6.449  0.2397 -0.2968 -0.9168
   74MOL   H24819374   2.006   1.699   6.439  0.3095  1.2929 -1.6725
   74MOL   C24919375   2.048   1.893   6.392  0.1061  0.1560  0.1172
   74MOL   C25019376   2.027   1.883   6.244 -0.4127 -0.1345  0.5015
   74MOL   C25119377   1.965   1.972   6.171  0.0819  0.5121  0.6922
   74MOL   C25219378   1.977   1.962   6.020  0.5370  0.1217  0.0703
   74MOL   C25319379   1.899   2.094   6.215 -0.2057  0.0902  0.6004
   74MOL   H25419380   2.149   1.857   6.415 -0.2758 -1.3156 -0.3969
   74MOL   H25519381   2.039   1.995   6.428 -0.7762  0.1443 -0.0638
   74MOL   H25619382   2.073   1.800   6.192 -0.6498  0.2838 -0.3959
   74MOL   H25719383   1.881   1.995   5.979  0.5673 -0.7613 -0.7372
   74MOL   H25819384   2.012   1.862   5.995 -2.1518 -0.2491 -2.5373
   74MOL   H25919385   2.047   2.032   5.977 -0.9730  0.0485 -2.6430
   74MOL   H26019386   1.899   2.117   6.322 -0.7374 -1.0319  0.8363
   74MOL   H26119387   1.795   2.091   6.185 -0.0935  1.6609 -0.0199
   74MOL   H26219388   1.944   2.187   6.178 -0.2183 -0.7476 -1.5775
   75MOL     C119389   4.010   5.218   2.281  0.5087 -0.1274 -0.3150
   75MOL     C219390   4.141   5.142   2.268  0.2773 -0.2356  0.1253
   75MOL     C319391   4.173   5.021   2.326 -0.1973 -0.4391 -0.4060
   75MOL     C419392   4.313   4.964   2.306  0.5331  0.2977  0.3572
   75MOL     C519393   4.081   4.942   2.412 -0.1958 -0.1577 -0.6739
   75MOL     H619394   3.918   5.160   2.292 -1.1653  2.4492 -0.2652
   75MOL     H719395   4.026   5.290   2.361 -0.0999  1.1102 -1.3072
   75MOL     H819396   4.219   5.187   2.209 -0.7635 -1.2778 -2.0851
   75MOL     H919397   4.313   4.874   2.246  2.0868 -0.2292  1.1207
   75MOL    H1019398   4.360   4.945   2.403  0.4373  1.3036  0.6075
   75MOL    H1119399   4.369   5.038   2.249 -1.3436  0.0883 -1.8114
   75MOL    H1219400   4.020   5.014   2.467  1.7331 -0.3052  1.7731
   75MOL    H1319401   4.141   4.892   2.488  0.1574  1.8326  0.3903
   75MOL    H1419402   3.991   5.277   2.192  2.3209  1.8851  0.6017
   75MOL    C1519403   3.993   4.844   2.333 -0.0911 -0.1819 -0.9284
   75MOL    C1619404   3.881   4.785   2.413  0.4860  0.4269 -0.0077
   75MOL    C1719405   3.840   4.656   2.407 -0.0176  0.2592  0.4039
   75MOL    C1819406   3.725   4.607   2.488  0.2500  0.5146  0.5484
   75MOL    C1919407   3.886   4.558   2.296 -0.3614 -0.2436  0.9175
   75MOL    H2019408   4.056   4.765   2.291 -1.2754 -1.4949 -0.2733
   75MOL    H2119409   3.951   4.891   2.244  0.5484  2.5252  0.1542
   75MOL    H2219410   3.829   4.847   2.484  0.9279  0.7442  0.0372
   75MOL    H2319411   3.641   4.630   2.422  1.9418 -1.3784 -2.4134
   75MOL    H2419412   3.723   4.656   2.585  0.8299  0.2416  0.7020
   75MOL    H2519413   3.738   4.499   2.495  2.7199  0.7566  0.1055
   75MOL    H2619414   3.912   4.604   2.200  0.1980 -1.5399  0.4365
   75MOL    H2719415   3.804   4.490   2.271  1.1949 -2.6401  2.2087
   75MOL    C2819416   3.986   4.456   2.341  0.4174  0.2763  0.0697
   75MOL    C2919417   4.011   4.335   2.247  0.1051 -0.4437  0.4139
   75MOL    C3019418   4.068   4.214   2.267  0.5996 -0.6777 -0.6488
   75MOL    C3119419   4.096   4.122   2.147  0.4586  0.5379  0.5381
   75MOL    C3219420   4.121   4.170   2.400  0.6678  0.8204 -0.5308
   75MOL    H3319421   3.940   4.407   2.428 -0.5903  0.7326 -0.1975
   75MOL    H3419422   4.071   4.508   2.385  0.7763  0.9889 -1.4704
   75MOL    H3519423   3.972   4.342   2.147 -0.9976  1.7653  0.9767
   75MOL    H3619424   4.013   4.053   2.134 -1.3865  2.3906  2.2233
   75MOL    H3719425   4.188   4.068   2.168 -0.8550 -0.5922  3.7386
   75MOL    H3819426   4.110   4.174   2.052 -0.3262 -0.1363  0.0439
   75MOL    H3919427   4.078   4.225   2.483  1.6512 -3.9892  3.4396
   75MOL    H4019428   4.226   4.197   2.407  1.2052 -1.3329  0.1808
   75MOL    C4119429   4.103   4.022   2.418  0.2529 -0.2364 -0.0369
   75MOL    C4219430   4.157   3.991   2.556 -0.1839  0.0143 -0.5205
   75MOL    C4319431   4.103   3.917   2.656 -0.5932  0.4861  0.0360
   75MOL    C4419432   4.178   3.914   2.785 -0.1886  0.9406 -0.1127
   75MOL    C4519433   3.971   3.838   2.642  0.2989 -0.3591 -0.5383
   75MOL    H4619434   4.160   3.976   2.338 -1.4818 -1.3440 -0.6660
   75MOL    H4719435   3.998   3.993   2.406 -0.1947  1.0218  0.6153
   75MOL    H4819436   4.247   4.051   2.563 -1.1218  1.2140  1.6438
   75MOL    H4919437   4.240   4.003   2.796 -0.4711  0.9885  1.0933
   75MOL    H5019438   4.240   3.826   2.800  1.6044  1.6624 -2.9097
   75MOL    H5119439   4.110   3.918   2.870  0.4604 -0.8310  0.4974
   75MOL    H5219440   3.920   3.869   2.551  0.3952 -0.2548 -0.5564
   75MOL    H5319441   3.909   3.875   2.723  1.8335  1.0233  0.0244
   75MOL    C5419442   3.984   3.692   2.643 -0.5344 -0.1449 -0.0668
   75MOL    C5519443   3.854   3.621   2.620 -0.8671 -0.4198 -0.0369
   75MOL    C5619444   3.800   3.511   2.677  0.1364 -0.3399  0.5130
   75MOL    C5719445   3.669   3.461   2.624 -0.4203 -0.8022  0.4961
   75MOL    C5819446   3.860   3.433   2.798  0.3601 -0.6884  0.4863
   75MOL    H5919447   4.024   3.666   2.741 -0.4609  2.2826  0.5764
   75MOL    H6019448   4.060   3.668   2.568  0.7765  0.4939  1.0421
   75MOL    H6119449   3.794   3.659   2.539  0.2056  2.1932  0.3380
   75MOL    H6219450   3.681   3.367   2.571 -0.8248  0.0689 -1.1813
   75MOL    H6319451   3.611   3.529   2.562 -0.6282  0.8428  2.4480
   75MOL    H6419452   3.604   3.436   2.708 -1.4044 -0.4761 -0.1553
   75MOL    H6519453   3.782   3.413   2.871 -0.3135  1.1052  0.2740
   75MOL    H6619454   3.932   3.500   2.845 -0.1683  0.8793 -0.8973
   75MOL    C6719455   3.932   3.303   2.758 -0.3873 -0.2462 -0.7193
   75MOL    C6819456   3.960   3.224   2.879  0.0742 -0.6022 -0.7288
   75MOL    C6919457   4.082   3.177   2.926 -0.2797  0.3881 -0.3545
   75MOL    C7019458   4.090   3.093   3.054 -0.2106  0.0508 -0.2845
   75MOL    C7119459   4.223   3.198   2.861  0.2244 -0.3831 -0.6419
   75MOL    H7219460   4.023   3.332   2.705  0.1232 -3.2439 -1.5908
   75MOL    H7319461   3.885   3.243   2.681  1.6191 -2.1204 -0.5428
   75MOL    H7419462   3.876   3.193   2.940  0.1843  1.6754  0.6311
   75MOL    H7519463   4.178   3.126   3.110 -1.4251  0.3618  1.4659
   75MOL    H7619464   4.111   2.991   3.023 -1.0810 -0.9756  2.4329
   75MOL    H7719465   4.000   3.101   3.114 -0.7331  1.3408 -1.2228
   75MOL    H7819466   4.210   3.209   2.753  0.8676 -1.0930 -0.7914
   75MOL    H7919467   4.271   3.101   2.873 -0.2271 -0.7897 -1.9606
   75MOL    C8019468   4.303   3.301   2.939  0.3817 -0.8534  0.6933
   75MOL    C8119469   4.450   3.260   2.964 -0.0164 -0.1545  0.6157
   75MOL    C8219470   4.512   3.250   3.085 -0.5741 -0.5542 -0.2572
   75MOL    C8319471   4.448   3.292   3.213 -0.3811 -0.7746 -0.0020
   75MOL    C8419472   4.645   3.182   3.110  0.5783 -0.3538  0.4575
   75MOL    H8519473   4.258   3.323   3.035  0.2199 -2.3222  0.9752
   75MOL    H8619474   4.312   3.389   2.875 -2.6664  0.4025  1.9346
   75MOL    H8719475   4.494   3.223   2.873 -0.0127  0.5000  0.3449
   75MOL    H8819476   4.357   3.350   3.200 -1.0044 -1.9339 -0.9264
   75MOL    H8919477   4.520   3.346   3.274 -1.4714  0.9714 -0.2169
   75MOL    H9019478   4.426   3.202   3.270 -1.1565 -0.3878  0.3219
   75MOL    H9119479   4.608   3.091   3.156 -0.0845  1.4001  3.5432
   75MOL    H9219480   4.708   3.235   3.182  1.1114  0.6665 -0.7344
   75MOL    C9319481   4.730   3.161   2.990 -0.6086  0.2453 -0.3319
   75MOL    C9419482   4.869   3.117   3.027  0.4675 -0.2615  0.7021
   75MOL    C9519483   4.981   3.189   3.046 -0.4778 -0.6832  0.2821
   75MOL    C9619484   5.114   3.111   3.076  0.0320  0.2957 -0.1023
   75MOL    C9719485   4.981   3.339   3.040  0.2845 -0.3991  0.0531
   75MOL    H9819486   4.745   3.260   2.947  2.9480  0.2044  0.6590
   75MOL    H9919487   4.687   3.102   2.910 -1.2771 -0.6061  0.6410
   75MOL   H10019488   4.877   3.010   3.038  0.3812 -0.3111  0.2811
   75MOL   H10119489   5.203   3.160   3.036 -1.3359  1.9443 -1.1851
   75MOL   H10219490   5.128   3.123   3.184 -0.8185  1.6438 -0.1282
   75MOL   H10319491   5.113   3.003   3.066  2.0171  0.3348 -0.8651
   75MOL   H10419492   4.891   3.393   3.009  0.6682 -1.4495 -3.0045
   75MOL   H10519493   5.055   3.359   2.962  2.9658 -1.0100  2.3832
   75MOL   C10619494   5.037   3.405   3.168 -0.2025 -0.0128 -0.3150
   75MOL   C10719495   5.065   3.555   3.149 -0.5611 -0.4502  0.2765
   75MOL   C10819496   5.090   3.635   3.253  0.7425 -0.0891 -0.1965
   75MOL   C10919497   5.093   3.592   3.398 -0.3459 -0.3392 -0.6265
   75MOL   C11019498   5.110   3.778   3.219 -0.8172  0.0279  0.0486
   75MOL   H11119499   5.120   3.355   3.218  0.0508  1.0116  0.2925
   75MOL   H11219500   4.966   3.395   3.250  0.1504  1.2093  0.1500
   75MOL   H11319501   5.063   3.584   3.045 -0.7356 -0.6031  0.2363
   75MOL   H11419502   5.188   3.607   3.449 -0.8597  0.7395  0.0352
   75MOL   H11519503   5.017   3.649   3.451  0.7150  1.0190 -0.5235
   75MOL   H11619504   5.078   3.485   3.410 -1.1973 -0.4810 -2.7074
   75MOL   H11719505   5.135   3.789   3.113 -0.9218 -0.6415 -0.0469
   75MOL   H11819506   5.198   3.803   3.277 -0.0601 -0.4821 -0.8743
   75MOL   C11919507   4.996   3.870   3.260  0.3751  0.6991  0.5885
   75MOL   C12019508   4.979   3.994   3.176  0.2431 -0.2259  0.7586
   75MOL   C12119509   5.020   4.115   3.205  0.5591  0.4419 -0.3258
   75MOL   C12219510   4.992   4.225   3.100 -0.4621  0.6366 -0.2389
   75MOL   C12319511   5.095   4.148   3.335 -0.1630 -0.3596 -0.1069
   75MOL   H12419512   5.003   3.900   3.364  0.5391  2.2564  0.1458
   75MOL   H12519513   4.901   3.819   3.241  0.7274  0.7207 -1.3736
   75MOL   H12619514   4.930   3.981   3.081  3.0662  0.9667 -0.9024
   75MOL   H12719515   5.079   4.290   3.087  0.5880 -0.8506 -0.8044
   75MOL   H12819516   4.912   4.278   3.152 -1.0987 -1.7270  1.3032
   75MOL   H12919517   4.964   4.180   3.005  3.1412 -0.4668 -0.8776
   75MOL   H13019518   5.147   4.067   3.385  1.8207 -1.0390 -3.1154
   75MOL   H13119519   5.023   4.182   3.409  0.9109  0.4390  0.5908
   75MOL   C13219520   5.208   4.257   3.331 -0.5895  0.4798  0.0629
   75MOL   C13319521   5.273   4.268   3.462  0.2382 -0.4837 -0.0717
   75MOL   C13419522   5.380   4.193   3.495  0.2803 -0.5309  0.1933
   75MOL   C13519523   5.425   4.189   3.640  0.2477 -0.3859  0.1079
   75MOL   C13619524   5.472   4.120   3.399  0.2681  0.2695  0.4891
   75MOL   H13719525   5.177   4.358   3.305  0.9042  1.0206  0.3733
   75MOL   H13819526   5.274   4.246   3.245  0.1788  2.6741  0.3610
   75MOL   H13919527   5.216   4.321   3.537  0.0614 -1.2047  0.3045
   75MOL   H14019528   5.489   4.105   3.667  1.5194  0.1313 -1.2455
   75MOL   H14119529   5.337   4.197   3.704  0.4078 -0.5154  0.3469
   75MOL   H14219530   5.485   4.279   3.657 -0.2756 -0.1263  0.5878
   75MOL   H14319531   5.413   4.116   3.308 -0.2973  1.8415  0.7769
   75MOL   H14419532   5.490   4.018   3.432 -2.7471  0.6372  3.5693
   75MOL   C14519533   5.592   4.202   3.361  0.0389  0.1936 -0.7750
   75MOL   C14619534   5.673   4.132   3.258  0.3552 -0.3717  0.0772
   75MOL   C14719535   5.790   4.069   3.271  0.7663 -0.7437  0.3493
   75MOL   C14819536   5.859   4.009   3.153 -0.3361  0.4569 -0.1063
   75MOL   C14919537   5.846   4.026   3.410 -0.7732  0.3611 -0.3335
   75MOL   H15019538   5.660   4.239   3.438 -0.6745  1.4157 -0.7190
   75MOL   H15119539   5.554   4.296   3.320 -1.2699 -0.1772 -0.4264
   75MOL   H15219540   5.635   4.144   3.157 -0.8330 -0.9899  0.4371
   75MOL   H15319541   5.963   3.989   3.177 -0.1180 -1.8242 -2.7775
   75MOL   H15419542   5.830   4.067   3.065 -1.1355 -1.2002 -0.9548
   75MOL   H15519543   5.821   3.909   3.135 -1.1661  0.6460  0.4983
   75MOL   H15619544   5.857   3.917   3.408  0.7098  0.4737  0.3361
   75MOL   H15719545   5.776   4.056   3.487 -0.2207  0.0440  0.2953
   75MOL   C15819546   5.983   4.084   3.452 -0.8593  0.1439  0.1484
   75MOL   C15919547   5.987   4.234   3.434 -0.0931 -0.3992  0.1910
   75MOL   C16019548   5.959   4.333   3.518  0.2578  0.1857 -0.8519
   75MOL   C16119549   5.898   4.318   3.662  0.2457 -0.2452 -0.1282
   75MOL   C16219550   5.972   4.474   3.464  0.5002  0.4536  0.0702
   75MOL   H16319551   6.059   4.049   3.382 -1.4567  1.7246 -1.3224
   75MOL   H16419552   6.005   4.059   3.556 -2.5172  0.6332  0.6362
   75MOL   H16519553   6.031   4.266   3.341  2.9064 -1.2608  1.2533
   75MOL   H16619554   5.807   4.258   3.660  1.1582 -1.7623  1.3910
   75MOL   H16719555   5.869   4.409   3.715  0.9484 -1.0390  1.6898
   75MOL   H16819556   5.968   4.266   3.728 -0.0240 -2.0187 -1.2111
   75MOL   H16919557   6.060   4.481   3.401 -0.2242  0.3455 -0.9814
   75MOL   H17019558   5.972   4.544   3.547  1.7893  0.4342  0.0826
   75MOL   C17119559   5.848   4.520   3.368 -0.2449 -0.0506 -0.1750
   75MOL   C17219560   5.724   4.548   3.446  0.2256 -0.2439 -0.1586
   75MOL   C17319561   5.701   4.665   3.509 -0.4335 -0.0521 -0.4364
   75MOL   C17419562   5.794   4.788   3.515 -0.4249  0.0264  0.2833
   75MOL   C17519563   5.562   4.695   3.561  1.0461 -0.2161 -0.1242
   75MOL   H17619564   5.832   4.439   3.297  1.9453  0.1832 -0.9590
   75MOL   H17719565   5.880   4.611   3.316  1.5486 -0.3002  0.4848
   75MOL   H17819566   5.647   4.473   3.434 -0.9655  1.1321 -1.2794
   75MOL   H17919567   5.822   4.825   3.614  0.0632  0.9750 -0.2078
   75MOL   H18019568   5.752   4.878   3.472  1.2962 -0.0047 -1.5182
   75MOL   H18119569   5.880   4.762   3.454 -0.5651 -0.2861  0.2143
   75MOL   H18219570   5.503   4.606   3.541 -1.5550  1.2125  0.8716
   75MOL   H18319571   5.520   4.784   3.514  1.0605 -0.1078  0.0701
   75MOL   C18419572   5.555   4.723   3.714  0.9553 -0.4249 -0.2440
   75MOL   C18519573   5.416   4.737   3.762  0.0403 -0.5343  0.4268
   75MOL   C18619574   5.330   4.646   3.805  0.5156  0.8460  0.0854
   75MOL   C18719575   5.193   4.678   3.818 -0.4666 -0.8220  0.2500
   75MOL   C18819576   5.365   4.499   3.830 -0.1355  0.1367 -0.4037
   75MOL   H18919577   5.603   4.818   3.738 -0.1563  0.1728 -0.3603
   75MOL   H19019578   5.610   4.650   3.774  2.3635 -0.8244 -1.9744
   75MOL   H19119579   5.378   4.831   3.724  0.5384  0.2766  1.8569
   75MOL   H19219580   5.169   4.779   3.786 -3.3298 -1.4789  0.2305
   75MOL   H19319581   5.165   4.672   3.923 -2.4075  2.2010 -0.0400
   75MOL   H19419582   5.140   4.619   3.743  1.9550 -0.4034 -1.8776
   75MOL   H19519583   5.469   4.482   3.803 -0.0035  1.1070 -0.5201
   75MOL   H19619584   5.300   4.437   3.768  0.1924 -2.4720  1.7430
   75MOL   C19719585   5.352   4.468   3.978 -0.0734  0.6686 -0.8025
   75MOL   C19819586   5.365   4.319   4.006  0.4709  0.2257 -0.2134
   75MOL   C19919587   5.461   4.260   4.072  0.2436 -0.1393  0.3112
   75MOL   C20019588   5.442   4.109   4.113  0.5105  0.0157 -0.0653
   75MOL   C20119589   5.585   4.328   4.131 -0.0024 -0.3502 -0.4798
   75MOL   H20219590   5.259   4.502   4.023  0.6923 -0.8483  2.0100
   75MOL   H20319591   5.419   4.529   4.039 -1.0494  0.5024  0.4358
   75MOL   H20419592   5.284   4.258   3.969 -1.7282  2.2174  1.2385
   75MOL   H20519593   5.362   4.058   4.059  0.3397  0.2277 -0.0112
   75MOL   H20619594   5.418   4.115   4.219 -0.4129  1.9818 -0.3723
   75MOL   H20719595   5.534   4.053   4.096  0.2882 -0.4021  0.1025
   75MOL   H20819596   5.595   4.305   4.237 -0.7137  2.8456  0.3217
   75MOL   H20919597   5.586   4.436   4.141  0.6768 -0.3189 -0.8114
   75MOL   C21019598   5.711   4.286   4.055  0.5816  0.1307 -0.3780
   75MOL   C21119599   5.827   4.367   4.100 -0.6027 -0.7308 -0.1348
   75MOL   C21219600   5.948   4.331   4.139  0.1434  0.2803  0.9431
   75MOL   C21319601   6.057   4.438   4.173 -0.1437  0.2296 -0.0510
   75MOL   C21419602   5.996   4.182   4.156 -0.7207  0.7187 -0.2201
   75MOL   H21519603   5.694   4.304   3.949 -0.0260 -0.0659 -0.3156
   75MOL   H21619604   5.734   4.180   4.067 -0.6955 -0.2941 -1.5054
   75MOL   H21719605   5.810   4.473   4.099  0.1878 -0.5831  0.9204
   75MOL   H21819606   6.028   4.541   4.153 -3.1689 -1.0745 -2.8732
   75MOL   H21919607   6.137   4.413   4.102  0.6757 -1.4863  1.4363
   75MOL   H22019608   6.092   4.430   4.276 -0.1990 -0.3821 -0.0752
   75MOL   H22119609   5.926   4.098   4.148  1.9823 -1.4465 -1.9664
   75MOL   H22219610   6.021   4.172   4.262 -0.5882 -3.1266 -0.5177
   75MOL   C22319611   6.126   4.150   4.075  0.0673  0.0610 -0.3198
   75MOL   C22419612   6.163   4.008   4.085  0.0220  0.0706 -0.1399
   75MOL   C22519613   6.214   3.929   3.987 -0.6299 -0.1571  0.5070
   75MOL   C22619614   6.252   3.784   4.017 -0.2113  0.1997 -0.3041
   75MOL   C22719615   6.219   3.974   3.840  0.4999  0.1480  0.5472
   75MOL   H22819616   6.197   4.205   4.136 -0.6546 -0.2175  0.7721
   75MOL   H22919617   6.129   4.182   3.970  2.0891  1.6705  0.1942
   75MOL   H23019618   6.154   3.967   4.185  0.6117  0.2131 -0.0251
   75MOL   H23119619   6.233   3.758   4.121 -0.8995 -1.9463 -0.9404
   75MOL   H23219620   6.353   3.758   3.985  0.7377  2.3918  0.7276
   75MOL   H23319621   6.190   3.716   3.960 -0.3631  0.7801 -0.8300
   75MOL   H23419622   6.140   4.047   3.822  1.5525  2.1304  3.5561
   75MOL   H23519623   6.182   3.897   3.772  0.9529 -0.1894  0.6752
   75MOL   C23619624   6.356   4.035   3.804 -0.4817 -0.7981  0.2350
   75MOL   C23719625   6.351   4.080   3.661 -0.5636  0.5812  0.2822
   75MOL   C23819626   6.454   4.070   3.573  0.3302 -0.7432 -0.0056
   75MOL   C23919627   6.434   4.097   3.426 -0.4000 -0.1116  0.0319
   75MOL   C24019628   6.593   4.037   3.619  0.6096 -0.1650 -0.0770
   75MOL   H24119629   6.430   3.959   3.827 -1.4044 -1.9065 -0.4094
   75MOL   H24219630   6.382   4.122   3.865  1.0253 -1.4975  0.5921
   75MOL   H24319631   6.251   4.107   3.630 -0.7412 -0.3349  0.0335
   75MOL   H24419632   6.498   4.027   3.372 -0.7184 -0.2647 -0.1444
   75MOL   H24519633   6.468   4.199   3.408 -1.9693  0.4446  0.1341
   75MOL   H24619634   6.329   4.087   3.398 -2.0056  2.3169  4.7421
   75MOL   H24719635   6.594   4.067   3.724  1.4815 -1.3671  0.2681
   75MOL   H24819636   6.652   4.101   3.554 -0.9510 -1.4104 -2.8388
   75MOL   C24919637   6.632   3.890   3.591  0.6172  0.7413 -0.5682
   75MOL   C25019638   6.772   3.850   3.646  0.2932  0.9588  0.1427
   75MOL   C25119639   6.870   3.806   3.570  0.0185  0.2149  0.5595
   75MOL   C25219640   7.004   3.758   3.623 -0.2972  0.2399  0.4611
   75MOL   C25319641   6.861   3.798   3.423 -0.0295 -0.5830 -0.6626
   75MOL   H25419642   6.616   3.864   3.487  1.5822 -1.7449 -0.1158
   75MOL   H25519643   6.560   3.824   3.639 -1.0337  1.7228 -1.6413
   75MOL   H25619644   6.786   3.852   3.753 -0.7299  1.3395  0.2820
   75MOL   H25719645   6.994   3.751   3.731 -1.5438 -1.1790  0.2517
   75MOL   H25819646   7.086   3.831   3.617  0.6560 -0.8362  0.2341
   75MOL   H25919647   7.043   3.669   3.574  0.8793  1.1125 -0.2242
   75MOL   H26019648   6.952   3.854   3.400 -0.8883  1.8951  1.8333
   75MOL   H26119649   6.784   3.853   3.370  1.2229  1.9873  0.1171
   75MOL   H26219650   6.879   3.694   3.393 -0.8710 -0.2768 -2.2691
   76MOL     C119651   3.575   7.389   6.619 -0.0864  0.3770 -0.3663
   76MOL     C219652   3.532   7.459   6.488 -0.7997  0.0638  0.0179
   76MOL     C319653   3.442   7.418   6.396 -0.1275  0.0066  0.0440
   76MOL     C419654   3.402   7.506   6.281  1.0719 -0.1583  0.4847
   76MOL     C519655   3.380   7.281   6.385  0.8263 -0.1652  0.3740
   76MOL     H619656   3.679   7.358   6.631 -0.5512 -1.4828 -1.0311
   76MOL     H719657   3.557   7.452   6.706  1.6899  1.0204 -0.4471
   76MOL     H819658   3.583   7.553   6.476  0.7081 -0.5451  1.4676
   76MOL     H919659   3.414   7.445   6.191  0.9485  0.1216  0.2795
   76MOL    H1019660   3.473   7.588   6.276 -1.5220  2.0595 -1.2416
   76MOL    H1119661   3.298   7.537   6.295  0.4174 -0.4622 -3.1329
   76MOL    H1219662   3.446   7.208   6.432 -0.7187 -0.4479  2.1709
   76MOL    H1319663   3.379   7.251   6.280 -1.4633  3.7157 -0.8140
   76MOL    H1419664   3.514   7.300   6.637  0.4887  0.2344  0.9217
   76MOL    C1519665   3.231   7.282   6.431  0.6074  0.4000 -0.5021
   76MOL    C1619666   3.159   7.152   6.401 -0.4058  0.2338  0.4115
   76MOL    C1719667   3.104   7.109   6.288 -0.1542  0.4376 -0.5908
   76MOL    C1819668   3.021   6.987   6.282 -0.1932  0.2358 -0.0999
   76MOL    C1919669   3.106   7.183   6.157 -1.1073 -0.0988 -0.3426
   76MOL    H2019670   3.176   7.363   6.382  0.2653 -0.3586 -1.3853
   76MOL    H2119671   3.236   7.301   6.538  0.6612 -3.6555  0.2961
   76MOL    H2219672   3.170   7.074   6.476  0.4665  1.9967  2.1723
   76MOL    H2319673   3.062   6.905   6.224 -0.2760 -0.3723  0.6886
   76MOL    H2419674   2.917   7.006   6.255  0.4319  2.1705 -1.2573
   76MOL    H2519675   3.010   6.936   6.377  2.3118 -1.0098 -0.4516
   76MOL    H2619676   3.109   7.289   6.182 -2.4739 -0.2081  0.3251
   76MOL    H2719677   3.008   7.164   6.114 -1.5060 -1.2149  1.0067
   76MOL    C2819678   3.218   7.146   6.057 -0.2790  0.1046 -0.0600
   76MOL    C2919679   3.194   7.234   5.933  0.6828 -0.4184  0.4071
   76MOL    C3019680   3.291   7.273   5.847  0.4661  0.1459 -0.5414
   76MOL    C3119681   3.252   7.364   5.739  0.0561  0.3537  0.2741
   76MOL    C3219682   3.439   7.236   5.859  0.5866  0.1986  0.4567
   76MOL    H3319683   3.211   7.039   6.038  2.8803 -0.3549  1.1728
   76MOL    H3419684   3.320   7.164   6.092  0.0005  1.7490 -1.6008
   76MOL    H3519685   3.094   7.272   5.917  0.5339  0.1238  2.4971
   76MOL    H3619686   3.146   7.376   5.719  0.2406  0.6171 -0.5925
   76MOL    H3719687   3.300   7.334   5.646 -0.3719 -0.1269  0.2070
   76MOL    H3819688   3.301   7.457   5.768 -2.6629  1.1534  2.4677
   76MOL    H3919689   3.477   7.233   5.756  0.6016  2.6125  0.3704
   76MOL    H4019690   3.457   7.140   5.906 -1.8848 -0.4033  0.2176
   76MOL    C4119691   3.522   7.348   5.927  0.4912 -0.8423  0.0209
   76MOL    C4219692   3.650   7.382   5.859 -0.2213 -0.9140 -0.0902
   76MOL    C4319693   3.775   7.331   5.875  0.3534  0.1079 -0.6294
   76MOL    C4419694   3.897   7.371   5.786  0.0742  0.3536 -0.0111
   76MOL    C4519695   3.804   7.213   5.973 -0.2649 -0.0487 -0.2746
   76MOL    H4619696   3.539   7.331   6.033  0.4684  0.4707  0.2440
   76MOL    H4719697   3.457   7.435   5.931  0.6265 -0.7433  0.0754
   76MOL    H4819698   3.633   7.449   5.776 -0.4638  1.7966  2.0810
   76MOL    H4919699   3.897   7.296   5.706  0.0179  0.0008  0.3166
   76MOL    H5019700   3.989   7.382   5.843 -1.7355  1.7514  2.7038
   76MOL    H5119701   3.869   7.468   5.745  1.5259  0.2455 -1.3167
   76MOL    H5219702   3.737   7.212   6.059  0.9428 -0.5339  0.6659
   76MOL    H5319703   3.902   7.214   6.021 -0.2299  0.2527 -0.3463
   76MOL    C5419704   3.806   7.081   5.897  0.1498  0.2789 -0.4568
   76MOL    C5519705   3.812   6.954   5.980  0.1306 -0.3093 -0.5628
   76MOL    C5619706   3.913   6.873   5.999  0.0087  0.0916 -0.0352
   76MOL    C5719707   3.912   6.756   6.097 -0.2991  0.4970  0.3772
   76MOL    C5819708   4.048   6.887   5.924 -0.6630 -0.6313 -0.1933
   76MOL    H5919709   3.895   7.084   5.834  0.8993 -1.5701  0.4745
   76MOL    H6019710   3.721   7.086   5.829 -0.8516 -0.4012  0.7418
   76MOL    H6119711   3.721   6.922   6.031 -0.7198  0.4853 -1.5720
   76MOL    H6219712   3.981   6.773   6.179  0.0910 -3.5282  0.9874
   76MOL    H6319713   3.928   6.660   6.049 -1.8207  0.9822 -1.1961
   76MOL    H6419714   3.811   6.748   6.138 -0.9976 -1.1219 -1.5741
   76MOL    H6519715   4.026   6.921   5.823 -1.3769 -0.5239  0.0000
   76MOL    H6619716   4.098   6.790   5.918  1.0458  0.1847  0.3658
   76MOL    C6719717   4.153   6.983   5.990 -0.1544  0.5216 -0.0540
   76MOL    C6819718   4.292   6.924   5.972  0.9268 -0.5539 -0.3699
   76MOL    C6919719   4.387   6.956   5.881 -0.1753 -0.7276 -0.2358
   76MOL    C7019720   4.517   6.889   5.896  0.4052 -0.9642  0.4876
   76MOL    C7119721   4.385   7.080   5.793 -0.0502 -0.0718  0.9759
   76MOL    H7219722   4.144   6.994   6.098  1.6996  0.6312  0.0931
   76MOL    H7319723   4.152   7.087   5.958  0.3480  0.3411 -0.6790
   76MOL    H7419724   4.297   6.835   6.033 -1.8641 -0.6112 -0.1639
   76MOL    H7519725   4.570   6.859   5.806 -0.8999 -1.4066 -0.1336
   76MOL    H7619726   4.502   6.789   5.939 -0.0244 -0.1810  2.2045
   76MOL    H7719727   4.586   6.944   5.960 -0.8657 -0.4824  1.4766
   76MOL    H7819728   4.283   7.113   5.775 -0.4228 -0.7902  1.6888
   76MOL    H7919729   4.432   7.058   5.697 -0.1283 -2.1138  1.3712
   76MOL    C8019730   4.470   7.189   5.861  0.1958 -0.0508  0.4179
   76MOL    C8119731   4.455   7.321   5.793  0.0937 -0.0922  0.0300
   76MOL    C8219732   4.378   7.421   5.838 -0.3057 -0.7573 -0.5938
   76MOL    C8319733   4.285   7.408   5.961 -0.4899  0.3684  0.3305
   76MOL    C8419734   4.392   7.557   5.777  0.1680 -0.3231  0.0413
   76MOL    H8519735   4.577   7.175   5.847  0.4689  3.6684 -1.8959
   76MOL    H8619736   4.443   7.183   5.966 -0.8997  2.3414  0.2978
   76MOL    H8719737   4.524   7.335   5.711  1.4266 -1.0883  0.9719
   76MOL    H8819738   4.205   7.352   5.912  0.1107 -0.5938  0.4395
   76MOL    H8919739   4.242   7.504   5.988 -0.6647 -0.1471  1.9253
   76MOL    H9019740   4.325   7.345   6.040  1.1516  1.6189  0.5287
   76MOL    H9119741   4.475   7.548   5.707 -0.5716  1.5528 -1.1248
   76MOL    H9219742   4.414   7.626   5.858 -0.8594 -1.9747  1.7587
   76MOL    C9319743   4.262   7.612   5.709  0.2102 -0.1771  0.4361
   76MOL    C9419744   4.292   7.742   5.636  0.2071 -0.6229 -0.4404
   76MOL    C9519745   4.206   7.844   5.616  0.1189  0.5332 -0.0420
   76MOL    C9619746   4.249   0.072   5.529  0.3731  0.0827  0.2592
   76MOL    C9719747   4.063   7.855   5.669  0.8380  0.1668  0.0819
   76MOL    H9819748   4.180   7.630   5.778  0.6408  1.8615  0.4597
   76MOL    H9919749   4.233   7.534   5.638  0.6224  0.0100  0.0593
   76MOL   H10019750   4.392   7.753   5.597 -0.0261  0.6610 -0.7205
   76MOL   H10119751   4.353   0.068   5.496  0.5062  1.4222  0.4862
   76MOL   H10219752   4.190   0.078   5.438  1.4278  3.9421 -0.2629
   76MOL   H10319753   4.214   0.163   5.577 -0.3547 -1.2714  2.3766
   76MOL   H10419754   4.043   0.080   5.697  0.4813  0.0104  0.4083
   76MOL   H10519755   4.058   7.799   5.762 -0.5593 -0.1633 -0.1792
   76MOL   C10619756   3.953   7.812   5.569  0.3964  0.2867  0.1803
   76MOL   C10719757   3.960   7.675   5.519  0.8269 -0.6719 -0.3592
   76MOL   C10819758   3.944   7.633   5.391 -0.3867 -0.2022  0.1442
   76MOL   C10919759   3.906   7.713   5.269 -0.7381  0.1214 -0.3273
   76MOL   C11019760   3.966   7.487   5.357  0.4019  1.0082 -0.6884
   76MOL   H11119761   3.926   0.010   5.496  0.2612  0.3300  0.2758
   76MOL   H11219762   3.863   7.815   5.630 -0.2117 -1.4493 -0.5865
   76MOL   H11319763   3.994   7.597   5.586  2.1214 -0.6164 -0.9301
   76MOL   H11419764   3.870   7.811   5.299  0.7357  0.6344 -0.2068
   76MOL   H11519765   3.994   7.723   5.206  1.7246 -2.5763  2.5328
   76MOL   H11619766   3.829   7.670   5.205  1.4944 -0.6949 -2.5384
   76MOL   H11719767   3.881   7.449   5.301 -0.7355 -0.3318  1.8329
   76MOL   H11819768   3.961   7.437   5.454  1.6175  2.0335 -0.0954
   76MOL   C11919769   4.100   7.460   5.292  0.4003  0.1329  0.2776
   76MOL   C12019770   4.128   7.317   5.283 -0.0223  0.4272 -0.1089
   76MOL   C12119771   4.233   7.253   5.340  0.0865  0.0196 -0.1944
   76MOL   C12219772   4.250   7.103   5.326  0.4617 -0.1549  0.2691
   76MOL   C12319773   4.337   7.321   5.442  0.0653 -1.5121  0.5882
   76MOL   H12419774   4.182   7.504   5.349 -0.0706 -0.2082  1.2401
   76MOL   H12519775   4.112   7.503   5.193 -0.7525  0.4649  0.2728
   76MOL   H12619776   4.058   7.264   5.221  0.3033 -1.4935  1.1319
   76MOL   H12719777   4.269   7.042   5.414  1.8323  1.3543  1.0544
   76MOL   H12819778   4.339   7.083   5.267  0.1181 -0.1559 -0.2520
   76MOL   H12919779   4.157   7.058   5.293  0.5468 -0.3388  0.2797
   76MOL   H13019780   4.388   7.247   5.505 -0.8287 -0.4739  2.5863
   76MOL   H13119781   4.273   7.386   5.502 -0.9424 -2.6947  0.8191
   76MOL   C13219782   4.443   7.392   5.349 -0.7298 -0.0717  0.0213
   76MOL   C13319783   4.536   7.302   5.277  0.3654  0.4591  0.1632
   76MOL   C13419784   4.551   7.287   5.144 -0.0985 -0.1129 -0.7314
   76MOL   C13519785   4.669   7.197   5.099 -0.0437  0.3582 -0.8049
   76MOL   C13619786   4.463   7.349   5.038 -0.0687  0.6646  0.4072
   76MOL   H13719787   4.509   7.440   5.422 -0.6706  1.3290 -0.9289
   76MOL   H13819788   4.390   7.469   5.292 -3.7826 -0.0882  2.6676
   76MOL   H13919789   4.605   7.243   5.335  2.7273  0.6513 -2.3741
   76MOL   H14019790   4.648   7.108   5.040  0.3974 -0.7195  0.6371
   76MOL   H14119791   4.715   7.164   5.193  1.2077  3.1718 -0.3687
   76MOL   H14219792   4.736   7.263   5.044 -0.3737  1.9349  0.6207
   76MOL   H14319793   4.522   7.423   4.983 -2.5854  1.3680 -1.4269
   76MOL   H14419794   4.381   7.397   5.090 -0.5848  1.4699 -1.1240
   76MOL   C14519795   4.401   7.248   4.938  1.0081  0.6864  0.4996
   76MOL   C14619796   4.327   7.316   4.830 -0.0315  0.1224  0.6773
   76MOL   C14719797   4.197   7.307   4.797  0.5199 -0.9498 -0.1389
   76MOL   C14819798   4.148   7.375   4.668 -0.1019  0.4067 -0.3218
   76MOL   C14919799   4.096   7.229   4.881  0.0499  0.0671 -0.0450
   76MOL   H15019800   4.345   7.168   4.986  0.4301 -1.2767 -3.2797
   76MOL   H15119801   4.474   7.179   4.894 -0.8194 -0.8450 -0.2139
   76MOL   H15219802   4.394   7.374   4.770  0.6813 -1.3059  0.0795
   76MOL   H15319803   4.067   7.442   4.697  1.0294  1.1187  1.2521
   76MOL   H15419804   4.124   7.302   4.591  0.3848 -1.7420  1.5226
   76MOL   H15519805   4.224   7.451   4.648  1.8989 -1.4168  0.2623
   76MOL   H15619806   4.128   7.186   4.975  2.4693  0.5167 -0.6376
   76MOL   H15719807   4.073   7.143   4.819  0.6353 -0.9954  1.2077
   76MOL   C15819808   3.956   7.296   4.902 -0.3750  0.7474 -0.5000
   76MOL   C15919809   3.871   7.209   4.997  0.4993 -0.2046  0.0270
   76MOL   C16019810   3.759   7.135   4.971  0.0419  0.0700  0.5271
   76MOL   C16119811   3.700   7.103   4.838  0.0001  0.6000 -0.1005
   76MOL   C16219812   3.693   7.060   5.086 -0.0685 -0.3265  1.0771
   76MOL   H16319813   3.906   7.311   4.806 -0.1326  3.8302 -0.1885
   76MOL   H16419814   3.971   7.380   4.969 -0.5837  0.9744 -0.7367
   76MOL   H16519815   3.905   7.223   5.098 -2.7059 -0.7413  1.2303
   76MOL   H16619816   3.628   7.021   4.830  0.1933  0.2221  1.9452
   76MOL   H16719817   3.780   7.074   4.770  0.2058  0.3205  0.2607
   76MOL   H16819818   3.654   7.188   4.787 -2.8460 -2.0801 -2.1924
   76MOL   H16919819   3.718   6.960   5.052 -3.4020  0.0171 -2.8288
   76MOL   H17019820   3.584   7.065   5.088 -0.0780 -0.4557  0.8963
   76MOL   C17119821   3.748   7.094   5.224 -0.1796 -0.0790 -0.0129
   76MOL   C17219822   3.684   7.012   5.334  0.5123  0.4350  0.4059
   76MOL   C17319823   3.740   6.990   5.455  0.4885  0.2090  0.0705
   76MOL   C17419824   3.866   7.059   5.502  0.4500 -0.3596  0.0137
   76MOL   C17519825   3.683   6.891   5.550  0.0968  0.0449 -0.4654
   76MOL   H17619826   3.745   7.202   5.231  0.6043  0.0984 -1.9543
   76MOL   H17719827   3.853   7.064   5.231 -0.4479 -0.6807  1.6812
   76MOL   H17819828   3.590   6.966   5.309  0.5414  1.6323 -2.0221
   76MOL   H17919829   3.860   7.078   5.609 -0.0096 -2.5013  0.3902
   76MOL   H18019830   3.869   7.158   5.456 -0.0451 -1.3858 -2.3415
   76MOL   H18119831   3.958   7.012   5.466  1.1298  1.7148 -1.0520
   76MOL   H18219832   3.613   6.840   5.483 -0.1032 -0.7193  0.3152
   76MOL   H18319833   3.632   6.952   5.624 -0.4845 -0.5084 -0.3991
   76MOL   C18419834   3.789   6.787   5.613  0.6670 -0.4513  0.2700
   76MOL   C18519835   3.723   6.691   5.710 -0.1295  0.2509  0.5881
   76MOL   C18619836   3.698   6.557   5.695  0.1429  0.4428 -0.0565
   76MOL   C18719837   3.658   6.470   5.813  0.0643  0.2420 -0.3456
   76MOL   C18819838   3.729   6.475   5.565 -0.6581  0.1026 -0.4778
   76MOL   H18919839   3.857   6.842   5.678  0.2972 -0.7980  0.9568
   76MOL   H19019840   3.843   6.742   5.529 -1.2151 -1.0435 -0.6460
   76MOL   H19119841   3.698   6.727   5.809 -0.1084 -1.5361  1.2692
   76MOL   H19219842   3.727   6.389   5.839 -0.4043 -0.0155  0.1044
   76MOL   H19319843   3.581   6.403   5.774 -0.2405  0.6146 -0.3851
   76MOL   H19419844   3.627   6.513   5.908  1.1489 -0.1024  0.1711
   76MOL   H19519845   3.808   6.401   5.575 -0.2429  0.6402  0.2359
   76MOL   H19619846   3.785   6.535   5.493 -1.0314 -0.3643 -1.1670
   76MOL   C19719847   3.599   6.424   5.504 -0.5965 -0.2180  0.3706
   76MOL   C19819848   3.620   6.382   5.367 -0.2769 -0.3252 -0.1313
   76MOL   C19919849   3.546   6.420   5.262 -0.4315 -0.3999  0.1907
   76MOL   C20019850   3.552   6.344   5.132  0.0627 -0.1877 -0.4258
   76MOL   C20119851   3.440   6.534   5.267  0.3745 -0.1775  0.3176
   76MOL   H20219852   3.528   6.506   5.514 -0.2935  0.1389 -0.3904
   76MOL   H20319853   3.571   6.331   5.555 -0.7534 -0.9763 -1.0613
   76MOL   H20419854   3.689   6.299   5.364  0.6635  0.4625 -0.9999
   76MOL   H20519855   3.534   6.411   5.048 -2.2356  0.8073  0.8016
   76MOL   H20619856   3.488   6.256   5.146 -0.2220  0.2093  0.8180
   76MOL   H20719857   3.646   6.290   5.123  1.0753  1.6505 -1.0306
   76MOL   H20819858   3.394   6.532   5.366  0.3370 -0.4245  0.2966
   76MOL   H20919859   3.361   6.510   5.196 -0.5910  1.9300  0.6569
   76MOL   C21019860   3.514   6.669   5.238 -0.2189  0.0125 -0.4710
   76MOL   C21119861   3.419   6.789   5.262 -0.3538 -0.2261 -0.3493
   76MOL   C21219862   3.365   6.877   5.174 -0.0913 -0.0565 -0.1350
   76MOL   C21319863   3.264   6.981   5.221 -0.0156  0.9521  0.0836
   76MOL   C21419864   3.404   6.877   5.030 -0.0824  0.4757  0.3160
   76MOL   H21519865   3.540   6.666   5.132 -0.2569 -0.8451 -0.4621
   76MOL   H21619866   3.601   6.667   5.303 -1.2616 -0.4929  0.9576
   76MOL   H21719867   3.388   6.801   5.365  0.5146 -0.0762 -0.1008
   76MOL   H21819868   3.257   7.065   5.152  0.7120 -1.4230 -2.9593
   76MOL   H21919869   3.274   7.001   5.328  0.2879 -1.6126  0.5766
   76MOL   H22019870   3.161   6.946   5.210  0.7226 -1.5082  0.6675
   76MOL   H22119871   3.502   6.834   5.010  0.1677  0.9534  0.5181
   76MOL   H22219872   3.411   6.981   4.998  0.4381  0.3899  0.1529
   76MOL   C22319873   3.300   6.799   4.956 -0.7160  0.4675  0.4996
   76MOL   C22419874   3.318   6.804   4.805 -0.0847  0.5978 -0.6317
   76MOL   C22519875   3.303   6.710   4.713 -0.2724  0.2578  0.3294
   76MOL   C22619876   3.341   6.738   4.571 -0.2118 -0.6941 -0.7021
   76MOL   C22719877   3.271   6.567   4.752 -0.2537 -0.2989  0.0065
   76MOL   H22819878   3.203   6.847   4.972 -1.1711 -0.9608  2.0559
   76MOL   H22919879   3.295   6.696   4.991  0.1511  0.1163 -0.3663
   76MOL   H23019880   3.352   6.902   4.776  1.1108 -0.0831 -1.5577
   76MOL   H23119881   3.379   6.644   4.531 -1.6638 -1.5769 -0.0454
   76MOL   H23219882   3.426   6.806   4.563 -0.3478 -0.0427  2.5542
   76MOL   H23319883   3.269   6.786   4.505  1.6769  2.0616 -0.8609
   76MOL   H23419884   3.216   6.521   4.670 -1.3374  1.6218 -0.3947
   76MOL   H23519885   3.200   6.573   4.834  0.3548  0.9377  0.4610
   76MOL   C23619886   3.406   6.498   4.786 -0.0396 -0.2343  0.0662
   76MOL   C23719887   3.386   6.352   4.822  0.5240  0.5375  0.9092
   76MOL   C23819888   3.408   6.241   4.746 -0.4883  0.2339 -0.8574
   76MOL   C23919889   3.395   6.104   4.801  0.0050  0.6195  0.6481
   76MOL   C24019890   3.459   6.242   4.605 -0.3897 -0.3876  0.2961
   76MOL   H24119891   3.449   6.543   4.875  0.5028  1.7561 -1.1557
   76MOL   H24219892   3.479   6.510   4.705 -0.7432 -1.0591 -0.6989
   76MOL   H24319893   3.349   6.339   4.922 -1.1302 -0.6078  0.1919
   76MOL   H24419894   3.498   6.070   4.795  0.7967  3.1999 -0.9929
   76MOL   H24519895   3.343   6.039   4.731  1.8847 -2.4520  1.9757
   76MOL   H24619896   3.366   6.104   4.907 -0.9054 -0.0505  0.4067
   76MOL   H24719897   3.418   6.333   4.561  2.3405  1.4868  1.5273
   76MOL   H24819898   3.407   6.167   4.545 -0.4849  0.4392 -0.6913
   76MOL   C24919899   3.609   6.247   4.595 -0.4840 -0.0732 -0.2588
   76MOL   C25019900   3.670   6.110   4.614  0.2317 -0.1965  0.5733
   76MOL   C25119901   3.731   6.059   4.725 -0.3199 -0.2426  0.4400
   76MOL   C25219902   3.788   5.919   4.728 -0.3218  0.3190 -0.8585
   76MOL   C25319903   3.745   6.132   4.858 -1.1525  0.3014 -0.0892
   76MOL   H25419904   3.658   6.318   4.661  1.2582 -0.8566 -0.6739
   76MOL   H25519905   3.629   6.278   4.492 -0.4263  0.0330 -0.2154
   76MOL   H25619906   3.668   6.043   4.529 -0.7684  0.1064  0.3548
   76MOL   H25719907   3.720   5.859   4.789  0.4963 -1.1485 -1.3434
   76MOL   H25819908   3.891   5.911   4.764  0.0716  0.5103 -1.9321
   76MOL   H25919909   3.793   5.875   4.628  2.0881  0.3206 -0.7756
   76MOL   H26019910   3.846   6.173   4.870 -0.3114 -1.5998 -0.3596
   76MOL   H26119911   3.721   6.058   4.935 -0.9625 -1.2029 -1.4477
   76MOL   H26219912   3.684   6.221   4.867  0.7528  1.5854  0.5524
   77MOL     C119913   3.044   5.089   2.920  0.1064 -0.1113 -0.4221
   77MOL     C219914   3.180   5.033   2.919 -0.3305 -0.3495 -0.1128
   77MOL     C319915   3.240   4.976   3.027  0.4337  0.3898  0.2859
   77MOL     C419916   3.369   4.895   3.013 -0.6082 -0.2785 -0.3067
   77MOL     C519917   3.174   4.975   3.166 -0.6632 -0.1207  0.1192
   77MOL     H619918   3.056   5.170   2.848 -0.3654  0.3271 -0.0143
   77MOL     H719919   2.973   5.011   2.892 -2.0977  1.3011  1.0675
   77MOL     H819920   3.221   5.021   2.820 -2.7706  1.8717 -1.4989
   77MOL     H919921   3.439   4.901   3.096 -1.3862 -1.8197  0.4759
   77MOL    H1019922   3.425   4.907   2.921  1.9439  1.0984  1.3796
   77MOL    H1119923   3.328   4.794   3.012 -0.4923 -0.3288 -3.3133
   77MOL    H1219924   3.202   4.885   3.219 -0.4466 -0.1667 -0.0701
   77MOL    H1319925   3.065   4.967   3.157 -0.4793 -4.7202  1.1338
   77MOL    H1419926   3.017   5.137   3.014 -3.6859  1.1979 -2.0916
   77MOL    C1519927   3.219   5.102   3.247  0.4074  0.7858  0.3236
   77MOL    C1619928   3.144   5.098   3.378  0.4462 -0.0015  0.1703
   77MOL    C1719929   3.045   5.180   3.417 -0.5371 -0.1872 -0.2165
   77MOL    C1819930   2.984   5.166   3.557 -0.5306 -0.2171 -0.4592
   77MOL    C1919931   2.977   5.287   3.329  0.2570 -0.7148 -0.6378
   77MOL    H2019932   3.195   5.184   3.179 -1.6281 -0.1725 -0.1755
   77MOL    H2119933   3.327   5.107   3.254  0.4044 -0.6052  1.4264
   77MOL    H2219934   3.171   5.019   3.446 -1.7004 -0.0848  0.9503
   77MOL    H2319935   2.876   5.156   3.560 -0.4933 -0.7393 -0.7553
   77MOL    H2419936   3.014   5.255   3.613 -1.1325  0.7075 -1.5824
   77MOL    H2519937   3.026   5.077   3.604  2.1956  1.1625 -0.1826
   77MOL    H2619938   3.034   5.308   3.239 -1.2737  0.5356 -1.3239
   77MOL    H2719939   2.979   5.373   3.397 -0.6045 -0.9258 -0.3474
   77MOL    C2819940   2.838   5.241   3.283 -0.4621  0.6333  0.0261
   77MOL    C2919941   2.795   5.334   3.174  0.9325 -0.4381 -0.2165
   77MOL    C3019942   2.739   5.457   3.190  0.7741 -0.0471 -0.1145
   77MOL    C3119943   2.699   5.534   3.065 -0.0765 -0.1523  0.3752
   77MOL    C3219944   2.719   5.534   3.320  0.4827  0.5130  0.2292
   77MOL    H3319945   2.769   5.234   3.368  0.4636  0.4140  0.7752
   77MOL    H3419946   2.846   5.135   3.258  0.9206  0.2042  2.1380
   77MOL    H3519947   2.802   5.290   3.076  1.0935  1.5522 -1.1117
   77MOL    H3619948   2.648   5.475   2.989  0.7772  0.2357 -0.5103
   77MOL    H3719949   2.791   5.569   3.019  0.7019  0.5896  2.4304
   77MOL    H3819950   2.644   5.618   3.106 -1.3215 -0.2359 -1.0600
   77MOL    H3919951   2.736   5.463   3.401 -2.2209 -0.1701  0.2390
   77MOL    H4019952   2.621   5.582   3.315 -0.0249 -0.1416  3.2859
   77MOL    C4119953   2.828   5.648   3.330 -0.0182 -0.0176 -0.0001
   77MOL    C4219954   2.871   5.677   3.468 -0.2257 -0.9022 -0.0902
   77MOL    C4319955   2.809   5.751   3.565  0.3506 -0.0991 -0.2511
   77MOL    C4419956   2.884   5.774   3.696  0.0463 -0.0711 -0.2888
   77MOL    C4519957   2.677   5.817   3.554  0.2994 -0.5379 -0.3166
   77MOL    H4619958   2.811   5.737   3.269  0.1659  0.4156  0.5816
   77MOL    H4719959   2.922   5.605   3.296 -1.4973 -3.1192 -0.3527
   77MOL    H4819960   2.965   5.636   3.503 -0.1645 -1.2674 -0.6890
   77MOL    H4919961   2.973   5.711   3.694  1.5009  1.9621 -1.7330
   77MOL    H5019962   2.821   5.754   3.782 -0.1291 -0.2552 -0.4604
   77MOL    H5119963   2.911   5.879   3.701  1.1143 -0.2355 -2.1012
   77MOL    H5219964   2.638   5.812   3.452  1.5468 -1.2485 -0.7649
   77MOL    H5319965   2.681   5.923   3.581 -1.0118  0.3382 -3.3731
   77MOL    C5419966   2.569   5.749   3.644  0.1933 -0.0532  0.0952
   77MOL    C5519967   2.546   5.608   3.601 -0.5818  0.0029 -0.2239
   77MOL    C5619968   2.559   5.500   3.677  0.5635  0.2449 -0.3637
   77MOL    C5719969   2.538   5.368   3.613 -0.8020  0.3208  0.8071
   77MOL    C5819970   2.606   5.503   3.823 -0.6572 -0.8591 -0.0502
   77MOL    H5919971   2.475   5.802   3.630  0.3729  0.6113  1.3759
   77MOL    H6019972   2.595   5.755   3.750  0.3010  0.3192  0.0456
   77MOL    H6119973   2.516   5.585   3.500 -0.6770 -1.5163  0.1376
   77MOL    H6219974   2.442   5.326   3.642 -0.3991  1.1556  3.4707
   77MOL    H6319975   2.622   5.302   3.633  0.6451  1.4956 -1.1972
   77MOL    H6419976   2.533   5.385   3.505 -0.9177  1.9925  1.0525
   77MOL    H6519977   2.691   5.569   3.842 -3.0363  2.7661 -1.5276
   77MOL    H6619978   2.631   5.400   3.849 -2.5002 -1.8999 -2.2188
   77MOL    C6719979   2.484   5.527   3.920 -0.6886 -0.2640  0.3120
   77MOL    C6819980   2.538   5.512   4.059 -0.2206  0.0887  0.3332
   77MOL    C6919981   2.494   5.417   4.148  0.2327  0.4261 -0.3466
   77MOL    C7019982   2.572   5.401   4.278  0.3192  0.6758 -0.2095
   77MOL    C7119983   2.375   5.324   4.125 -0.0974  0.0138  0.7041
   77MOL    H7219984   2.400   5.460   3.900 -1.2684  0.8419 -1.1196
   77MOL    H7319985   2.457   5.632   3.903 -0.8010 -0.1134  1.3944
   77MOL    H7419986   2.616   5.581   4.087 -0.2211  0.6880 -1.0975
   77MOL    H7519987   2.632   5.310   4.282 -1.4814 -0.6427 -2.2185
   77MOL    H7619988   2.500   5.407   4.360 -0.2596  2.7148 -0.8304
   77MOL    H7719989   2.631   5.491   4.296  2.6491 -0.6071 -1.1342
   77MOL    H7819990   2.296   5.389   4.089  0.5199 -0.1837 -1.0710
   77MOL    H7919991   2.340   5.293   4.223 -2.2698  0.0115 -0.0625
   77MOL    C8019992   2.397   5.201   4.033 -0.3101 -0.1111 -0.3422
   77MOL    C8119993   2.269   5.124   4.007 -0.1074 -0.4575  0.0082
   77MOL    C8219994   2.179   5.142   3.907  0.8430  0.6069  0.1872
   77MOL    C8319995   2.216   5.225   3.782  0.4979  0.6308  0.0214
   77MOL    C8419996   2.043   5.079   3.904  0.4407  0.3405 -0.0020
   77MOL    H8519997   2.463   5.138   4.093  0.0086  0.7357  0.2215
   77MOL    H8619998   2.443   5.241   3.943 -2.4674 -0.5951 -1.6893
   77MOL    H8719999   2.237   5.065   4.091 -2.2062  1.3278  0.5268
   77MOL    H8820000   2.166   5.198   3.689 -0.5811 -0.4834  0.9222
   77MOL    H8920001   2.322   5.213   3.759  0.6328  2.4668 -0.4107
   77MOL    H9020002   2.191   5.329   3.803  0.7132  1.4178 -3.3457
   77MOL    H9120003   2.013   5.077   3.799  0.2958 -1.3025  0.0490
   77MOL    H9220004   1.972   5.149   3.947  2.3105  0.3932  3.1672
   77MOL    C9320005   2.031   4.950   3.980 -0.3169  0.0468  0.0287
   77MOL    C9420006   1.898   4.891   3.986 -0.0758  0.5079  0.2047
   77MOL    C9520007   1.855   4.774   3.940 -0.1633 -0.7517 -0.2223
   77MOL    C9620008   1.709   4.727   3.948  0.9694 -0.4063 -0.8744
   77MOL    C9720009   1.943   4.677   3.867  0.4431  0.0552 -0.2832
   77MOL    H9820010   2.057   4.964   4.085 -0.2145 -1.1551  0.1715
   77MOL    H9920011   2.101   4.872   3.950 -0.6463  0.0233 -0.6886
   77MOL   H10020012   1.818   4.950   4.028 -0.3928  1.1144 -1.2520
   77MOL   H10120013   1.690   4.627   3.986  1.0863 -0.0896  0.0363
   77MOL   H10220014   1.655   4.797   4.012 -0.5281 -1.1330 -1.3186
   77MOL   H10320015   1.661   4.733   3.851  2.2023  0.8902 -1.4287
   77MOL   H10420016   1.889   4.582   3.868 -2.1464  1.4803 -0.6841
   77MOL   H10520017   2.031   4.660   3.930  0.1967 -0.6667 -0.1277
   77MOL   C10620018   1.973   4.714   3.720 -0.2551 -0.0476  0.0135
   77MOL   C10720019   1.856   4.737   3.634 -0.0857 -0.6860  0.1799
   77MOL   C10820020   1.829   4.657   3.528  0.5768 -0.2386 -0.7140
   77MOL   C10920021   1.904   4.527   3.494  0.4779  0.1164  0.3754
   77MOL   C11020022   1.725   4.698   3.415 -0.4676 -0.5318 -0.2235
   77MOL   H11120023   2.031   4.629   3.685 -1.0060 -0.8824  0.7609
   77MOL   H11220024   2.041   4.800   3.718 -0.8366  0.4349  0.7798
   77MOL   H11320025   1.809   4.832   3.651  0.7380 -0.1548 -0.4856
   77MOL   H11420026   1.892   4.458   3.577  0.8164 -0.1878  0.1725
   77MOL   H11520027   1.877   4.478   3.401  0.3904  1.5526 -0.3815
   77MOL   H11620028   2.010   4.556   3.495  0.1842  1.2056  1.2816
   77MOL   H11720029   1.666   4.785   3.444  0.7298  0.5058 -0.8237
   77MOL   H11820030   1.660   4.611   3.408  0.7723 -1.5144  0.1957
   77MOL   C11920031   1.788   4.715   3.278  0.0205 -0.0089  0.5652
   77MOL   C12020032   1.690   4.780   3.182 -0.2601 -0.6021 -0.0543
   77MOL   C12120033   1.621   4.720   3.085  0.6650  0.9639  0.3370
   77MOL   C12220034   1.532   4.792   2.983 -0.3983  0.3350  0.2005
   77MOL   C12320035   1.613   4.563   3.076  0.1211 -0.0784 -0.2091
   77MOL   H12420036   1.820   4.616   3.246 -0.3389 -0.8244  2.6346
   77MOL   H12520037   1.871   4.785   3.269 -0.1902  0.1749  0.0501
   77MOL   H12620038   1.687   4.888   3.185  1.3149 -0.5565  0.0760
   77MOL   H12720039   1.567   4.786   2.880 -2.7299 -0.1893 -0.5959
   77MOL   H12820040   1.522   4.899   3.001  0.5191  0.8386 -2.0807
   77MOL   H12920041   1.431   4.751   2.978  0.0382 -0.9636  1.6476
   77MOL   H13020042   1.508   4.539   3.057 -0.0219  2.4327 -2.7874
   77MOL   H13120043   1.644   4.518   3.170  0.0848 -0.1601 -0.2367
   77MOL   C13220044   1.692   4.511   2.958  0.7301  0.8016 -0.2345
   77MOL   C13320045   1.682   4.361   2.952 -0.1808  0.9555  0.6449
   77MOL   C13420046   1.774   4.270   2.997  0.1200 -0.2132  0.0607
   77MOL   C13520047   1.756   4.119   2.975  0.0603  0.3721 -0.1935
   77MOL   C13620048   1.895   4.312   3.072 -0.2764  0.1350 -0.6335
   77MOL   H13720049   1.798   4.537   2.967  1.2563 -1.5334  0.6434
   77MOL   H13820050   1.659   4.560   2.867  3.3785 -0.5683 -2.0021
   77MOL   H13920051   1.597   4.330   2.893  1.6791 -2.0879 -0.5501
   77MOL   H14020052   1.751   4.064   3.068  0.3052 -0.2072 -0.5232
   77MOL   H14120053   1.837   4.084   2.911 -0.5008 -3.0354  0.8793
   77MOL   H14220054   1.664   4.090   2.924  0.7044  0.7874 -1.6237
   77MOL   H14320055   1.915   4.238   3.150  0.3069  0.9881  0.0283
   77MOL   H14420056   1.870   4.394   3.140 -0.8875 -2.0448  1.8660
   77MOL   C14520057   2.019   4.343   2.985 -0.3155 -0.8792  0.0002
   77MOL   C14620058   2.140   4.380   3.068 -0.1249  1.0655 -0.4424
   77MOL   C14720059   2.177   4.510   3.102 -0.9660  0.3511  0.0682
   77MOL   C14820060   2.302   4.529   3.189  0.1726 -0.3542  0.6345
   77MOL   C14920061   2.094   4.627   3.059 -0.2392 -0.0875  0.1401
   77MOL   H15020062   1.997   4.412   2.903  2.6452 -0.5724 -0.5880
   77MOL   H15120063   2.049   4.257   2.925 -1.2092  0.9388 -3.1859
   77MOL   H15220064   2.191   4.297   3.115 -0.5361  1.2896  0.4223
   77MOL   H15320065   2.291   4.609   3.262 -1.0608 -0.5027  0.6134
   77MOL   H15420066   2.387   4.552   3.124 -0.1102  0.7330  0.6423
   77MOL   H15520067   2.326   4.433   3.234  0.8874 -0.8071 -0.6804
   77MOL   H15620068   2.040   4.667   3.144 -3.5840 -2.9073 -0.5346
   77MOL   H15720069   2.013   4.591   2.995  1.1307  0.0238 -1.7027
   77MOL   C15820070   2.177   4.738   2.995  0.2061  0.5491 -0.7472
   77MOL   C15920071   2.211   4.699   2.854  0.9127 -0.2125  0.0171
   77MOL   C16020072   2.198   4.774   2.744 -0.1860 -0.4469  0.3013
   77MOL   C16120073   2.140   4.915   2.760  0.0692 -0.5835 -0.3147
   77MOL   C16220074   2.220   4.725   2.601  0.1166  0.7016  0.2482
   77MOL   H16320075   2.265   4.763   3.054 -0.9648  2.2252  0.3393
   77MOL   H16420076   2.113   4.827   3.001 -1.8746 -1.1062  3.6881
   77MOL   H16520077   2.243   4.596   2.853  0.9463 -0.2898  3.4287
   77MOL   H16620078   2.136   4.979   2.673 -1.8513 -0.0904  0.1102
   77MOL   H16720079   2.210   4.969   2.823  0.6542 -1.0779 -0.5357
   77MOL   H16820080   2.041   4.907   2.804  0.4055  2.6964  1.1786
   77MOL   H16920081   2.286   4.798   2.556  0.7504 -0.0619 -0.0768
   77MOL   H17020082   2.119   4.736   2.562 -0.4488  1.1971  1.8118
   77MOL   C17120083   2.266   4.579   2.591  0.1740 -0.2692 -0.3345
   77MOL   C17220084   2.409   4.564   2.635  0.0809 -0.0462  0.1074
   77MOL   C17320085   2.472   4.452   2.676 -0.2041  0.0009 -0.1815
   77MOL   C17420086   2.398   4.325   2.690  0.2036 -0.2456 -0.1761
   77MOL   C17520087   2.618   4.450   2.699 -0.5544 -1.0321 -0.5631
   77MOL   H17620088   2.249   4.534   2.494 -3.4598 -1.0579  0.5974
   77MOL   H17720089   2.201   4.515   2.650  0.5870  0.3966  0.8782
   77MOL   H17820090   2.460   4.658   2.648  1.2889 -0.7097  0.2752
   77MOL   H17920091   2.455   4.237   2.660 -1.0542 -1.0144 -0.3300
   77MOL   H18020092   2.314   4.320   2.621 -0.3417  2.7061  0.2109
   77MOL   H18120093   2.366   4.318   2.794 -1.1184  0.1362 -0.5441
   77MOL   H18220094   2.662   4.549   2.691 -0.6120 -1.1299 -2.2256
   77MOL   H18320095   2.667   4.398   2.617  0.8453  2.1342 -1.8312
   77MOL   C18420096   2.664   4.386   2.828  0.2317  0.0901 -0.4712
   77MOL   C18520097   2.819   4.399   2.837 -0.1522  0.1557  0.0122
   77MOL   C18620098   2.894   4.490   2.904  0.1917 -0.8029  0.5315
   77MOL   C18720099   3.047   4.473   2.906 -0.2288  0.2355  0.0716
   77MOL   C18820100   2.842   4.618   2.967 -0.7095  0.2663 -0.2475
   77MOL   H18920101   2.635   4.281   2.832 -0.2430  0.2230 -0.3998
   77MOL   H19020102   2.619   4.419   2.921  0.4778 -2.0772  0.4604
   77MOL   H19120103   2.880   4.320   2.798  0.4124 -0.9327  3.0183
   77MOL   H19220104   3.086   4.413   2.824 -0.9194  0.9117 -0.7671
   77MOL   H19320105   3.067   4.424   3.001 -0.4489 -0.3206 -0.1689
   77MOL   H19420106   3.096   4.570   2.898 -1.0226  0.8165  1.9067
   77MOL   H19520107   2.734   4.607   2.975 -0.4358 -2.2200  0.3153
   77MOL   H19620108   2.859   4.697   2.894  1.6501 -0.2549 -0.3175
   77MOL   C19720109   2.900   4.662   3.097  0.1764  0.3198 -0.2787
   77MOL   C19820110   2.823   4.613   3.213  0.3465  0.3076 -0.7328
   77MOL   C19920111   2.740   4.680   3.300  0.4875  0.2959 -0.8157
   77MOL   C20020112   2.668   4.603   3.408  0.1226  0.6967  0.2275
   77MOL   C20120113   2.699   4.826   3.279 -0.1540 -0.3246 -0.3407
   77MOL   H20220114   2.890   4.771   3.103  1.5322  0.3815  1.4198
   77MOL   H20320115   3.007   4.647   3.116  0.5354  1.8085 -1.0683
   77MOL   H20420116   2.847   4.511   3.236  0.2423  0.0090 -1.9145
   77MOL   H20520117   2.691   4.497   3.403  1.4522  0.9954 -0.4390
   77MOL   H20620118   2.562   4.628   3.409  0.1703  0.8964  1.9908
   77MOL   H20720119   2.704   4.647   3.501  2.5795  1.2773 -0.9421
   77MOL   H20820120   2.771   4.892   3.231 -2.2416  1.3192 -1.3183
   77MOL   H20920121   2.695   4.879   3.374 -4.6849 -0.5012 -0.3058
   77MOL   C21020122   2.571   4.864   3.219 -0.4331 -0.0882 -0.5528
   77MOL   C21120123   2.574   4.822   3.076 -0.0758 -0.0043 -0.5163
   77MOL   C21220124   2.571   4.904   2.971  0.5085 -0.9125  0.7874
   77MOL   C21320125   2.564   4.850   2.830  0.9685 -0.8072  0.2505
   77MOL   C21420126   2.569   5.059   2.973 -0.0296  0.3403  0.0547
   77MOL   H21520127   2.561   4.972   3.233  1.2704 -0.0723  0.6383
   77MOL   H21620128   2.487   4.816   3.269 -0.3612 -0.4256 -0.7535
   77MOL   H21720129   2.555   4.718   3.058 -3.0585  0.3691  0.1939
   77MOL   H21820130   2.629   4.885   2.749  0.3564  0.0225  0.1015
   77MOL   H21920131   2.461   4.862   2.799  1.2723  0.7317 -0.2086
   77MOL   H22020132   2.586   4.744   2.840 -1.1181 -1.3503 -0.6556
   77MOL   H22120133   2.650   5.101   2.913  0.9575  0.1926  1.2447
   77MOL   H22220134   2.590   5.086   3.077 -1.3309  1.8629 -0.0578
   77MOL   C22320135   2.430   5.113   2.931  0.5520 -0.7860 -0.8490
   77MOL   C22420136   2.419   5.265   2.953  0.1594 -0.0338  0.6827
   77MOL   C22520137   2.314   5.343   2.987  0.4690  0.2140  0.0021
   77MOL   C22620138   2.317   5.494   2.998 -0.8669 -0.2117 -0.3426
   77MOL   C22720139   2.179   5.280   3.029  0.2705  0.3206 -0.2828
   77MOL   H22820140   2.347   5.060   2.977 -0.0717 -1.2208 -2.4568
   77MOL   H22920141   2.426   5.114   2.822 -0.2445  1.8867 -0.8165
   77MOL   H23020142   2.514   5.315   2.939 -0.4366  0.9342  0.0690
   77MOL   H23120143   2.232   5.531   2.940 -0.6915 -3.0639 -2.5078
   77MOL   H23220144   2.403   5.542   2.954 -1.2468  1.4734  0.7219
   77MOL   H23320145   2.293   5.521   3.101 -0.2244  1.1121 -0.5369
   77MOL   H23420146   2.120   5.342   3.097 -0.0177  2.6273 -2.5552
   77MOL   H23520147   2.212   5.184   3.067  0.5314 -0.2148 -1.8342
   77MOL   C23620148   2.094   5.259   2.898 -0.1299  1.1579  0.1686
   77MOL   C23720149   1.986   5.149   2.940  0.8048 -0.1909  0.6327
   77MOL   C23820150   1.859   5.150   2.907  0.2053  0.2670 -0.6244
   77MOL   C23920151   1.771   5.036   2.938  0.7968  0.6205  0.0615
   77MOL   C24020152   1.793   5.270   2.845  0.3029  0.0766 -0.1650
   77MOL   H24120153   2.161   5.223   2.821  1.0875  3.3911  0.1410
   77MOL   H24220154   2.065   5.356   2.857  0.8795  1.1634 -0.5278
   77MOL   H24320155   2.031   5.059   2.978 -1.1665 -0.9850  1.1492
   77MOL   H24420156   1.681   5.068   2.991  0.9166  0.4048  0.4032
   77MOL   H24520157   1.821   4.979   3.016  2.2453  2.4985  0.5281
   77MOL   H24620158   1.753   4.965   2.857 -0.7155  0.9372  0.1026
   77MOL   H24720159   1.840   5.362   2.883 -0.3104 -0.3108  1.5705
   77MOL   H24820160   1.695   5.292   2.886  0.5587 -0.7590  0.9133
   77MOL   C24920161   1.793   5.257   2.686 -0.0309 -0.4202  0.3364
   77MOL   C25020162   1.739   5.394   2.635 -0.1930 -0.1432  0.5183
   77MOL   C25120163   1.622   5.431   2.573  0.0418  0.4513  0.1527
   77MOL   C25220164   1.586   5.573   2.537  0.2742  0.0910 -0.2461
   77MOL   C25320165   1.524   5.324   2.535 -0.1621  0.0666 -0.0368
   77MOL   H25420166   1.741   5.169   2.650  0.3267 -0.3534 -0.3408
   77MOL   H25520167   1.897   5.261   2.653  0.0603 -1.9458  0.4259
   77MOL   H25620168   1.808   5.473   2.659 -0.1747 -0.6307  2.1928
   77MOL   H25720169   1.661   5.650   2.556 -0.2329  0.8608 -1.3364
   77MOL   H25820170   1.499   5.596   2.599  0.4643 -0.9417  0.4228
   77MOL   H25920171   1.550   5.577   2.434 -0.0332 -0.6004 -0.1719
   77MOL   H26020172   1.554   5.222   2.560  0.9758  0.5436  0.5307
   77MOL   H26120173   1.510   5.324   2.427  0.8238 -1.7318 -0.1827
   77MOL   H26220174   1.430   5.352   2.582  0.3276  1.3444  0.2142
   78MOL     C120175   2.528   0.273   7.172  0.4452  0.2432  0.2148
   78MOL     C220176   2.603   0.259   7.297  0.2092  0.1949 -0.3874
   78MOL     C320177   2.626   0.359   7.389  0.5202 -0.7087 -0.1244
   78MOL     C420178   2.707   0.334   7.510 -0.9406 -0.2200 -0.1337
   78MOL     C520179   2.561   0.499   7.376  0.0875 -0.1814 -0.4395
   78MOL     H620180   2.444   0.202   7.169 -1.7155  2.7001  1.0092
   78MOL     H720181   2.482   0.370   7.158 -0.1344 -0.1872 -0.9156
   78MOL     H820182   2.644   0.161   7.315  1.1854  1.1647  3.1114
   78MOL     H920183   2.772   0.414   7.545  1.4647 -2.9849  2.0958
   78MOL    H1020184   2.766   0.244   7.488 -0.2883  0.1355  0.1430
   78MOL    H1120185   2.645   0.317   7.598  0.3362 -1.1220  0.6251
   78MOL    H1220186   2.535   0.524   7.273 -2.8772 -0.1857  0.2452
   78MOL    H1320187   2.642   0.565   7.407  0.6713 -0.9612 -0.2965
   78MOL    H1420188   2.591   0.264   7.084 -2.3553  0.8403 -1.9208
   78MOL    C1520189   2.438   0.518   7.467 -0.1692 -0.4931 -0.8410
   78MOL    C1620190   2.378   0.663   7.458 -0.2622 -0.1599  0.6155
   78MOL    C1720191   2.253   0.698   7.483  0.6816  0.5612 -0.2305
   78MOL    C1820192   2.214   0.845   7.456  0.1893  0.4746 -0.0366
   78MOL    C1920193   2.142   0.601   7.511  0.3225 -0.1676  0.1901
   78MOL    H2020194   2.456   0.499   7.573  0.8792  1.9525 -0.5341
   78MOL    H2120195   2.365   0.446   7.431 -3.2371  1.4877  1.1521
   78MOL    H2220196   2.456   0.735   7.439  0.5812 -0.9252  1.1188
   78MOL    H2320197   2.142   0.873   7.533  1.0680  0.1327  0.9207
   78MOL    H2420198   2.169   0.845   7.357  1.1149 -0.2972 -0.4697
   78MOL    H2520199   2.298   0.914   7.465  1.2744 -0.8243  0.1041
   78MOL    H2620200   2.077   0.641   7.588  0.5940 -0.0072  0.3372
   78MOL    H2720201   2.181   0.505   7.547 -0.2935 -0.1858  0.8193
   78MOL    C2820202   2.060   0.565   7.389 -0.5724  0.0487 -0.0139
   78MOL    C2920203   2.013   0.419   7.384  0.5056  0.1163  0.0820
   78MOL    C3020204   2.057   0.325   7.297 -0.9620  0.2970  0.0090
   78MOL    C3120205   2.011   0.180   7.323 -0.0764  0.0423 -0.2255
   78MOL    C3220206   2.160   0.351   7.188  0.8492 -0.1223 -0.2603
   78MOL    H3320207   2.121   0.592   7.303 -0.5662 -0.5068 -0.1873
   78MOL    H3420208   1.975   0.632   7.383 -1.1459 -0.4965  1.6111
   78MOL    H3520209   1.947   0.383   7.462  1.4575  1.0174  1.3097
   78MOL    H3620210   1.988   0.134   7.226 -3.0374 -0.0268  0.4628
   78MOL    H3720211   1.922   0.176   7.385  1.0507  0.9786  1.5066
   78MOL    H3820212   2.088   0.124   7.376  0.7457  0.8314 -0.5647
   78MOL    H3920213   2.249   0.290   7.208  0.7547  0.3479  1.6631
   78MOL    H4020214   2.203   0.451   7.195 -1.0785  0.6042  1.5341
   78MOL    C4120215   2.102   0.325   7.048 -0.2047  0.3146  0.0011
   78MOL    C4220216   2.210   0.345   6.941 -0.6318  0.7079 -0.5641
   78MOL    C4320217   2.208   0.399   6.817 -0.2696 -0.2647  0.1733
   78MOL    C4420218   2.337   0.388   6.738  0.3608  0.2666 -0.3676
   78MOL    C4520219   2.096   0.466   6.751  0.1772 -1.3048 -0.2112
   78MOL    H4620220   2.013   0.381   7.019  0.1511  1.2906  0.7683
   78MOL    H4720221   2.065   0.224   7.030 -0.9344  0.2110  1.9586
   78MOL    H4820222   2.310   0.322   6.974 -0.0421 -0.2511 -2.9185
   78MOL    H4920223   2.387   0.484   6.724  1.6647 -0.7560 -3.0709
   78MOL    H5020224   2.316   0.349   6.639 -0.3913 -2.1642  0.7189
   78MOL    H5120225   2.412   0.327   6.788 -1.6645 -2.9058 -1.1037
   78MOL    H5220226   2.006   0.415   6.785  0.4846 -1.0332  1.0320
   78MOL    H5320227   2.091   0.442   6.645 -0.6583  0.8126 -0.6940
   78MOL    C5420228   2.096   0.620   6.771 -0.0491  0.2715  0.3412
   78MOL    C5520229   2.122   0.664   6.910  0.0232 -0.0363 -0.1309
   78MOL    C5620230   2.109   0.792   6.952  0.3620  0.2548  0.6440
   78MOL    C5720231   2.125   0.833   7.094 -0.3035  0.6027 -0.4150
   78MOL    C5820232   2.069   0.905   6.864 -0.0078  0.2683 -0.5015
   78MOL    H5920233   1.992   0.648   6.760 -0.1004  1.0488  2.4431
   78MOL    H6020234   2.158   0.679   6.704  2.3645 -1.2402  1.1914
   78MOL    H6120235   2.149   0.590   6.984 -1.2951  0.4083  0.8061
   78MOL    H6220236   2.036   0.799   7.146 -0.3208  1.5034  0.1521
   78MOL    H6320237   2.151   0.938   7.106  1.6716  0.0295  0.5968
   78MOL    H6420238   2.213   0.780   7.131  0.8886  3.4123  0.9055
   78MOL    H6520239   2.074   0.874   6.760  0.6614 -0.2279 -0.3246
   78MOL    H6620240   2.147   0.980   6.880 -2.5852  3.4226 -2.2408
   78MOL    C6720241   1.928   0.942   6.892  0.6357 -0.9828 -0.3418
   78MOL    C6820242   1.889   1.071   6.820  0.2589 -0.0246 -0.2973
   78MOL    C6920243   1.821   1.081   6.702  0.5530 -0.6970  0.4383
   78MOL    C7020244   1.786   1.214   6.638  0.2109  0.9430  0.1512
   78MOL    C7120245   1.755   0.968   6.630 -0.0844 -0.1434 -0.7536
   78MOL    H7220246   1.923   0.958   7.000 -0.3097  0.3670 -0.5717
   78MOL    H7320247   1.858   0.863   6.867 -0.4137  0.0005 -0.5551
   78MOL    H7420248   1.918   1.162   6.869 -1.1701  0.2194  0.1211
   78MOL    H7520249   1.681   1.244   6.642  0.1488  0.7917 -0.2800
   78MOL    H7620250   1.825   1.224   6.536 -0.9891  1.3880 -0.2785
   78MOL    H7720251   1.836   1.293   6.694  1.7286 -0.4475  0.7979
   78MOL    H7820252   1.825   0.885   6.624  1.9482  1.6046 -1.9033
   78MOL    H7920253   1.740   0.998   6.526  1.8119  0.1136 -0.9748
   78MOL    C8020254   1.621   0.931   6.688 -0.0915 -0.3705  0.1083
   78MOL    C8120255   1.585   0.789   6.644  0.3026  0.1082  0.2203
   78MOL    C8220256   1.501   0.745   6.551  0.8845  0.0377 -0.6992
   78MOL    C8320257   1.432   0.830   6.447  0.1720 -0.5121  0.2560
   78MOL    C8420258   1.473   0.595   6.536 -0.4442  0.3756 -0.5650
   78MOL    H8520259   1.548   1.009   6.665  1.0489  0.1799 -1.7540
   78MOL    H8620260   1.631   0.929   6.797 -1.2563  0.8176  0.2523
   78MOL    H8720261   1.638   0.713   6.699 -2.3198 -1.2052  0.9668
   78MOL    H8820262   1.324   0.813   6.450  0.2468 -0.8790  0.9382
   78MOL    H8920263   1.477   0.807   6.351 -2.2342 -1.6218 -0.6644
   78MOL    H9020264   1.450   0.932   6.480 -0.0684 -0.3703 -0.0441
   78MOL    H9120265   1.379   0.582   6.484 -0.6231  1.8442 -0.6334
   78MOL    H9220266   1.447   0.556   6.635 -0.2320  0.2235 -0.5677
   78MOL    C9320267   1.583   0.506   6.470 -0.6053 -0.3411  0.6171
   78MOL    C9420268   1.549   0.361   6.494  0.2333  0.4692 -0.9228
   78MOL    C9520269   1.596   0.284   6.596  0.1416 -0.6840 -0.0241
   78MOL    C9620270   1.575   0.135   6.606  0.2646 -1.0657 -0.8585
   78MOL    C9720271   1.687   0.347   6.704  0.2181 -0.5501  0.4810
   78MOL    H9820272   1.683   0.532   6.504 -0.4924 -0.1783  0.1676
   78MOL    H9920273   1.589   0.517   6.362  0.5410 -1.7770  0.5220
   78MOL   H10020274   1.485   0.319   6.418  0.2409 -1.0536 -0.1184
   78MOL   H10120275   1.513   0.115   6.694 -0.7423  0.5229 -1.1851
   78MOL   H10220276   1.523   0.102   6.516  1.1965 -1.9418 -1.0855
   78MOL   H10320277   1.673   0.086   6.604  1.5394  1.1551  2.3622
   78MOL   H10420278   1.709   0.453   6.694 -2.2888  0.2372  2.7284
   78MOL   H10520279   1.780   0.292   6.688 -0.6630 -1.2046 -2.7116
   78MOL   C10620280   1.642   0.320   6.845  0.2153  0.0894 -0.5469
   78MOL   C10720281   1.540   0.422   6.898  0.2033  0.3182 -0.8999
   78MOL   C10820282   1.570   0.531   6.973 -0.3646 -0.5307  0.0907
   78MOL   C10920283   1.705   0.580   7.017 -0.3031 -0.7742  0.4317
   78MOL   C11020284   1.454   0.632   7.000 -0.5875  0.1917  0.0284
   78MOL   H11120285   1.726   0.337   6.912 -0.5718 -0.8474  0.6856
   78MOL   H11220286   1.601   0.220   6.863  1.7872 -0.3615  0.6465
   78MOL   H11320287   1.441   0.402   6.860  0.8975 -2.8424 -1.2040
   78MOL   H11420288   1.755   0.493   7.060 -1.9220 -0.9784  1.9403
   78MOL   H11520289   1.766   0.613   6.933 -0.4892 -1.2180  0.1199
   78MOL   H11620290   1.696   0.652   7.098  1.3900 -0.8542  0.7138
   78MOL   H11720291   1.368   0.632   6.933  0.3695 -1.2954 -1.2498
   78MOL   H11820292   1.497   0.732   6.999 -1.0369  0.3806 -0.1430
   78MOL   C11920293   1.398   0.616   7.140  0.2745 -0.2051  0.2866
   78MOL   C12020294   1.332   0.748   7.187 -0.1823  0.2212 -0.5659
   78MOL   C12120295   1.210   0.766   7.240 -0.9811  0.1692 -0.0014
   78MOL   C12220296   1.148   0.901   7.264 -0.0522 -0.3242 -0.4772
   78MOL   C12320297   1.112   0.653   7.276  0.2538  0.4073 -0.3165
   78MOL   H12420298   1.485   0.597   7.203  0.0074  2.8408  1.7078
   78MOL   H12520299   1.338   0.527   7.156  0.4626 -0.3100  0.4107
   78MOL   H12620300   1.383   0.840   7.164 -1.2216  0.2709 -2.8501
   78MOL   H12720301   1.052   0.915   7.214 -1.8388 -0.9506  2.6803
   78MOL   H12820302   1.206   0.986   7.228 -0.8190  0.2563 -0.3513
   78MOL   H12920303   1.127   0.914   7.370 -0.7127 -1.3923 -0.4767
   78MOL   H13020304   1.126   0.578   7.199 -1.1365  1.5946 -1.7487
   78MOL   H13120305   1.008   0.681   7.260 -1.0916 -2.3482  2.8937
   78MOL   C13220306   1.131   0.586   7.417 -0.2935 -0.2399 -0.3733
   78MOL   C13320307   1.054   0.455   7.429 -0.1309 -0.6503  0.0757
   78MOL   C13420308   0.951   0.424   7.513 -0.3939 -0.2084 -0.0789
   78MOL   C13520309   0.890   0.292   7.512 -0.7215  0.2403 -0.0889
   78MOL   C13620310   0.907   0.521   7.626  0.3962 -0.4348  0.1085
   78MOL   H13720311   1.093   0.647   7.499 -0.9359 -1.3411  0.1521
   78MOL   H13820312   1.235   0.556   7.434  0.1700  1.1910 -0.5965
   78MOL   H13920313   1.084   0.378   7.359 -0.9451 -1.1105  0.2265
   78MOL   H14020314   0.922   0.229   7.429 -0.4424  0.0692  0.1495
   78MOL   H14120315   0.781   0.300   7.509 -1.0057 -3.0071  0.2564
   78MOL   H14220316   0.915   0.240   7.604 -1.4409  1.7571  0.9917
   78MOL   H14320317   0.986   0.590   7.657  0.1007 -0.3043  0.5780
   78MOL   H14420318   0.897   0.462   7.717  0.2295  1.5414  1.4129
   78MOL   C14520319   0.774   0.595   7.591  0.1434  0.3457  0.4079
   78MOL   C14620320   0.725   0.685   7.701  0.2547 -0.0488 -0.8410
   78MOL   C14720321   0.615   0.660   7.776  0.1634 -0.8080  0.8968
   78MOL   C14820322   0.565   0.760   7.875 -0.4795  0.3539 -0.3260
   78MOL   C14920323   0.526   0.536   7.755 -1.3718  0.0293  0.3771
   78MOL   H15020324   0.704   0.515   7.568  0.2834  0.5073 -0.5927
   78MOL   H15120325   0.782   0.651   7.498 -0.2700  1.8141  1.2342
   78MOL   H15220326   0.785   0.774   7.716  0.4370 -0.5432  1.5399
   78MOL   H15320327   0.620   0.853   7.867  0.7598 -0.1684  1.6722
   78MOL   H15420328   0.574   0.710   0.093  0.2738 -1.8243 -1.4933
   78MOL   H15520329   0.463   0.792   7.856 -0.1942  1.2473 -0.3714
   78MOL   H15620330   0.496   0.514   7.653 -2.3222 -2.0758  1.0702
   78MOL   H15720331   0.428   0.554   7.799 -0.5706  0.2042  2.1457
   78MOL   C15820332   0.580   0.414   7.829  0.1945  0.4251  0.3693
   78MOL   C15920333   0.491   0.295   7.830 -0.3622 -0.2440 -0.1351
   78MOL   C16020334   0.519   0.164   7.844 -0.2026 -0.2843  0.3764
   78MOL   C16120335   0.666   0.117   7.856  0.3985 -0.1853  0.0109
   78MOL   C16220336   0.418   0.049   7.843  0.2240  0.0702 -0.2424
   78MOL   H16320337   0.605   0.444   0.051 -1.2603  1.1463  0.5387
   78MOL   H16420338   0.675   0.389   7.782 -0.0408  0.8855 -0.3695
   78MOL   H16520339   0.386   0.321   7.828 -0.7068 -1.2674  2.4256
   78MOL   H16620340   0.683   0.045   7.775 -0.6417  0.6670 -0.9831
   78MOL   H16720341   0.695   0.073   0.072  2.5841  3.5404  1.1449
   78MOL   H16820342   0.733   0.202   7.846  0.7821 -0.4423  0.3791
   78MOL   H16920343   0.338   0.079   7.776  0.1931 -0.8315 -0.6172
   78MOL   H17020344   0.378   0.063   0.065  0.6395  2.0711 -0.3204
   78MOL   C17120345   0.465   7.780   7.815  0.0483 -0.1767 -0.1454
   78MOL   C17220346   0.346   7.685   7.838  0.0686 -0.3823  0.4353
   78MOL   C17320347   0.353   7.565   0.020  0.4019 -0.2408  0.1021
   78MOL   C17420348   0.483   7.504   0.070  0.6087 -0.8673  0.5421
   78MOL   C17520349   0.226   7.481   0.053 -0.0677  0.4246  1.0082
   78MOL   H17620350   0.539   7.762   0.014  0.0709  0.6116  0.0141
   78MOL   H17720351   0.504   7.762   7.715 -2.7201 -1.4968 -1.0313
   78MOL   H17820352   0.247   7.714   7.806  0.3421 -1.3369 -1.3665
   78MOL   H17920353   0.463   7.409   0.119 -0.3889 -0.0927  1.6627
   78MOL   H18020354   0.537   7.573   0.135 -0.4764 -0.6588  1.2469
   78MOL   H18120355   0.533   7.491   7.853  2.2455 -0.3377  1.3057
   78MOL   H18220356   0.247   7.375   0.045 -0.8131  0.3480 -0.1234
   78MOL   H18320357   0.142   7.502   7.866  1.8177  0.0650 -1.5867
   78MOL   C18420358   0.174   7.496   0.199  0.2285 -0.2163 -1.3277
   78MOL   C18520359   0.038   7.426   0.199  0.3524  0.1827 -0.0094
   78MOL   C18620360   7.797   7.478   0.239  0.8241 -0.1935 -0.4323
   78MOL   C18720361   7.663   7.397   0.223 -0.2471  0.2366 -0.2744
   78MOL   C18820362   7.778   7.618   0.283  0.0683 -0.5510  0.4982
   78MOL   H18920363   0.175   7.605   0.209  2.8536 -0.1919 -1.3300
   78MOL   H19020364   0.236   7.450   0.276  0.4009 -2.6909 -2.8811
   78MOL   H19120365   0.042   7.329   0.151 -0.5279  0.2935 -0.3126
   78MOL   H19220366   7.588   7.434   0.293  0.1635 -0.2683  0.4302
   78MOL   H19320367   7.677   7.290   0.230 -1.0564  0.0518 -1.3091
   78MOL   H19420368   7.635   7.430   0.123 -0.6549  0.7727  0.0140
   78MOL   H19520369   7.868   7.664   0.323 -0.0721  0.3257 -0.1709
   78MOL   H19620370   7.718   7.614   0.374 -0.6752 -1.5482 -0.0189
   78MOL   C19720371   7.695   7.700   0.183 -0.4130 -0.0697  0.6828
   78MOL   C19820372   7.690   7.845   0.225  0.7233 -0.6865 -0.1514
   78MOL   C19920373   7.759   0.075   0.178  0.7520 -0.0161  0.3688
   78MOL   C20020374   7.750   0.209   0.238 -0.5281 -0.1187 -0.0333
   78MOL   C20120375   7.864   0.058   0.082 -0.0292  0.4464 -0.6019
   78MOL   H20220376   7.596   7.655   0.178  0.0361 -1.0554  0.5177
   78MOL   H20320377   7.737   7.688   0.084  0.5191 -2.9647  1.3897
   78MOL   H20420378   7.611   7.865   0.296  0.7666  0.6006 -0.4537
   78MOL   H20520379   7.837   0.227   0.302  1.2634 -1.1651 -2.1043
   78MOL   H20620380   7.667   0.228   0.306 -0.0725  1.4044  0.1223
   78MOL   H20720381   7.759   0.289   0.164 -0.2583  0.1589  0.2979
   78MOL   H20820382   0.026   7.838   0.103 -0.0136  0.5752 -0.0086
   78MOL   H20920383   0.062   0.133   0.097  0.4913 -0.5535  1.9958
   78MOL   C21020384   7.809   0.074   7.824  0.2431 -0.0973  0.2402
   78MOL   C21120385   0.018   0.050   7.701 -1.2216  0.2751  0.2051
   78MOL   C21220386   7.877   7.845   7.599 -0.3790 -0.3346 -0.0113
   78MOL   C21320387   0.101   7.842   7.487  0.9942  0.3283 -0.5035
   78MOL   C21420388   7.759   7.748   7.594 -0.2895  0.4628 -0.1737
   78MOL   H21520389   7.772   0.175   7.810  0.2625 -0.2267 -0.7980
   78MOL   H21620390   7.721   0.010   7.810 -0.4633  0.6910  1.0360
   78MOL   H21720391   0.112   0.104   7.696 -0.6675 -0.6548  0.4027
   78MOL   H21820392   0.171   0.045   7.506 -0.3430  1.6447 -1.2030
   78MOL   H21920393   0.063   7.849   7.386 -1.2825  1.3850  0.4016
   78MOL   H22020394   0.146   7.743   7.499 -2.6278 -1.2628  0.6601
   78MOL   H22120395   7.670   7.775   7.650 -1.3602 -2.6964 -0.2884
   78MOL   H22220396   7.810   7.660   7.634  1.7862  0.7541 -2.0817
   78MOL   C22320397   7.712   7.724   7.448 -0.4592 -0.2721 -0.4744
   78MOL   C22420398   7.582   7.654   7.449  0.1564 -0.2330 -0.4098
   78MOL   C22520399   7.553   7.527   7.413 -0.2116  0.2503  0.2414
   78MOL   C22620400   7.414   7.470   7.420 -0.6971  0.5268 -0.5390
   78MOL   C22720401   7.657   7.432   7.359  0.0304 -0.9907  0.3568
   78MOL   H22820402   7.788   7.669   7.393  0.4925  1.0531 -0.5364
   78MOL   H22920403   7.698   7.817   7.393  0.0957 -0.5787 -1.1437
   78MOL   H23020404   7.505   7.721   7.484  1.5566  0.6358  1.0476
   78MOL   H23120405   7.420   7.379   7.480  1.1945 -0.3575 -2.0009
   78MOL   H23220406   7.372   7.432   7.327 -0.6889 -1.1883  0.1461
   78MOL   H23320407   7.342   7.541   7.459 -0.4516  0.8205 -0.6140
   78MOL   H23420408   7.637   7.327   7.384  0.3603 -1.2855 -0.5885
   78MOL   H23520409   7.748   7.459   7.413 -1.6724  0.5957  2.5444
   78MOL   C23620410   7.668   7.449   7.209  0.0042 -0.0605  0.2705
   78MOL   C23720411   7.803   7.408   7.149 -0.1652  0.2015 -0.4226
   78MOL   C23820412   7.834   7.358   7.028 -0.0707  0.3671  0.6517
   78MOL   C23920413   0.097   7.367   6.980  0.1236  0.8918 -0.4864
   78MOL   C24020414   7.731   7.318   6.919 -0.1777 -0.1766 -0.4551
   78MOL   H24120415   7.673   7.557   7.199  0.5912 -0.0465  0.6518
   78MOL   H24220416   7.578   7.406   7.164 -0.0311  1.7183 -1.4221
   78MOL   H24320417   0.008   7.438   7.211  0.4492 -1.3731 -0.4656
   78MOL   H24420418   0.111   7.264   6.946 -0.2463  0.1243  1.6277
   78MOL   H24520419   0.170   7.395   7.056  0.2259  0.5211 -0.4473
   78MOL   H24620420   0.109   7.441   6.902 -1.2149  0.6910 -0.9034
   78MOL   H24720421   7.754   7.360   6.821 -3.6904 -0.1681 -1.3270
   78MOL   H24820422   7.631   7.359   6.928 -0.6881 -1.3628 -0.6031
   78MOL   C24920423   7.711   7.163   6.895 -0.1265  0.8039 -0.3058
   78MOL   C25020424   7.603   7.142   6.786 -0.3015  0.3210  0.1260
   78MOL   C25120425   7.624   7.083   6.661 -0.5338 -0.7688  0.2762
   78MOL   C25220426   7.503   7.071   6.569 -0.3204 -0.3090  0.0190
   78MOL   C25320427   7.758   7.013   6.622  0.0604 -0.0612 -0.9326
   78MOL   H25420428   7.663   7.123   6.985 -2.0719 -0.3332 -1.7906
   78MOL   H25520429   7.797   7.097   6.883 -0.9588 -0.2418 -0.6677
   78MOL   H25620430   7.506   7.183   6.809 -0.6846 -0.0668 -0.7863
   78MOL   H25720431   7.420   7.114   6.625 -0.1390 -0.0378  0.0775
   78MOL   H25820432   7.487   6.965   6.548 -1.3868 -0.5459  1.9304
   78MOL   H25920433   7.527   7.129   6.480  1.0116  0.7051  1.0230
   78MOL   H26020434   7.768   6.996   6.514  0.4252 -0.7081 -0.7956
   78MOL   H26120435   7.757   6.912   6.662  0.8815  0.1256 -0.4404
   78MOL   H26220436   7.847   7.063   6.660  0.1619 -0.2158 -0.9663
   79MOL     C120437   7.732   3.253   4.464  0.7347  0.1818 -0.3440
   79MOL     C220438   7.621   3.303   4.375  0.3469 -0.5872 -0.2056
   79MOL     C320439   7.491   3.280   4.400 -0.6437 -0.8162 -0.0267
   79MOL     C420440   7.383   3.325   4.303 -0.3215 -0.3188 -0.1300
   79MOL     C520441   7.438   3.192   4.512 -0.4287 -0.6293  0.4272
   79MOL     H620442   7.791   3.343   4.474  0.6559 -0.0078  2.4107
   79MOL     H720443   7.687   3.234   4.562  0.6097 -0.1278 -0.4598
   79MOL     H820444   7.651   3.360   4.289 -0.6268  0.2198 -0.0099
   79MOL     H920445   7.296   3.372   4.349 -1.1000 -0.5795 -1.3188
   79MOL    H1020446   7.351   3.244   4.237 -1.0042 -0.7718  0.7360
   79MOL    H1120447   7.419   3.402   4.236  0.8699  0.4568  1.3782
   79MOL    H1220448   7.511   3.122   4.553  1.5657 -0.3435 -2.4255
   79MOL    H1320449   7.369   3.125   4.460 -0.3057  0.1303 -0.7463
   79MOL    H1420450   7.786   3.166   4.426  0.0915 -0.3387 -0.0969
   79MOL    C1520451   7.362   3.262   4.628  0.0066  0.0619  0.2406
   79MOL    C1620452   7.303   3.167   4.723 -0.2420  0.0044  0.0752
   79MOL    C1720453   7.172   3.139   4.747 -0.2584 -0.7513  0.0234
   79MOL    C1820454   7.125   3.070   4.868 -0.4213  0.1142 -0.0913
   79MOL    C1920455   7.066   3.212   4.677  1.0540  0.4878 -1.1549
   79MOL    H2020456   7.279   3.320   4.588  0.8631  1.4014  0.3453
   79MOL    H2120457   7.419   3.336   4.685 -0.3970 -0.3121  1.1286
   79MOL    H2220458   7.382   3.136   4.790  0.1064  0.4128 -0.1451
   79MOL    H2320459   7.200   2.998   4.900 -1.1758  0.1792  1.9073
   79MOL    H2420460   7.048   3.001   4.832 -1.3525  0.8077  0.5289
   79MOL    H2520461   7.104   3.132   4.955 -1.1080 -0.4285  0.1434
   79MOL    H2620462   7.086   3.318   4.660 -0.0878  0.4984 -2.5707
   79MOL    H2720463   6.980   3.222   4.742  0.9153  0.1524 -1.2874
   79MOL    C2820464   7.015   3.140   4.548  0.1048  0.4453 -0.4996
   79MOL    C2920465   6.918   3.224   4.456 -0.5339 -0.0091 -0.1020
   79MOL    C3020466   6.809   3.191   4.387  0.5297  0.5236 -0.7185
   79MOL    C3120467   6.720   3.287   4.309 -0.0781 -0.5709 -0.0672
   79MOL    C3220468   6.748   3.051   4.391  0.6312  0.8500 -0.2128
   79MOL    H3320469   6.987   3.039   4.581  0.3791  1.3257  2.5928
   79MOL    H3420470   7.107   3.126   4.491  0.9988 -1.0110  1.2476
   79MOL    H3520471   6.948   3.328   4.461  0.0498 -0.2118  0.6860
   79MOL    H3620472   6.785   3.371   4.284  0.7355 -1.4305 -0.8562
   79MOL    H3720473   6.631   3.319   4.364 -0.4183 -2.1426  0.3115
   79MOL    H3820474   6.686   3.241   4.217 -1.3110 -2.0321  1.0881
   79MOL    H3920475   6.640   3.066   4.395  0.6339  0.5585  1.0891
   79MOL    H4020476   6.781   2.984   4.470  0.3393  0.3503 -0.5150
   79MOL    C4120477   6.788   2.964   4.269  0.2072 -0.3449 -0.5786
   79MOL    C4220478   6.931   2.931   4.264  0.2031  0.1142 -0.4969
   79MOL    C4320479   7.028   2.966   4.175 -0.2335 -0.1221  0.0394
   79MOL    C4420480   7.170   2.916   4.202  0.0980 -0.2058  0.1934
   79MOL    C4520481   7.009   3.043   4.049 -0.0513  0.3807  0.3434
   79MOL    H4620482   6.757   3.017   4.179  1.0619 -1.5259 -1.5743
   79MOL    H4720483   6.737   2.873   4.299  2.6336 -0.8093  2.3120
   79MOL    H4820484   6.961   2.883   4.356  2.4302 -0.3183 -1.4119
   79MOL    H4920485   7.201   2.845   4.126  3.2648 -0.5077  1.7039
   79MOL    H5020486   7.193   2.863   4.294  0.0555  0.8045  0.7969
   79MOL    H5120487   7.248   2.992   4.198  2.0180 -2.2323 -2.8193
   79MOL    H5220488   6.911   3.059   4.006 -0.1297  0.5431  0.5811
   79MOL    H5320489   7.052   2.984   3.967 -3.5749  1.0691 -2.0781
   79MOL    C5420490   7.077   3.182   4.059 -0.5365  0.5239  0.3015
   79MOL    C5520491   7.057   3.255   3.926  0.5539  0.0819  0.9158
   79MOL    C5620492   7.152   3.312   3.847 -0.0942  0.0419  0.4850
   79MOL    C5720493   7.115   3.360   3.714 -0.6053  0.9163 -0.6105
   79MOL    C5820494   7.307   3.329   3.871  0.6222  0.8768  0.7039
   79MOL    H5920495   7.186   3.174   4.063 -0.7101 -2.2075  0.3030
   79MOL    H6020496   7.051   3.234   4.151 -1.6505  0.2988  0.1138
   79MOL    H6120497   6.953   3.268   3.898  0.4100 -2.4125  0.2162
   79MOL    H6220498   7.010   3.348   3.690 -0.4234 -0.7566 -0.6162
   79MOL    H6320499   7.174   3.306   3.640 -2.3470  0.2548 -1.5414
   79MOL    H6420500   7.134   3.463   3.684  3.4149 -0.3993 -2.9264
   79MOL    H6520501   7.309   3.305   3.978  0.0504 -1.0935  0.3135
   79MOL    H6620502   7.340   3.428   3.841 -2.1260  1.3498 -1.0200
   79MOL    C6720503   7.393   3.220   3.814  0.0821 -0.0414 -0.8099
   79MOL    C6820504   7.530   3.255   3.843  0.3098 -0.3123 -0.4828
   79MOL    C6920505   7.616   3.172   3.909  0.9152 -0.7632 -0.3268
   79MOL    C7020506   7.752   3.218   3.949  0.4093 -0.3084 -0.4840
   79MOL    C7120507   7.597   3.023   3.930  0.0921 -0.4157  0.3969
   79MOL    H7220508   7.383   3.220   3.705 -0.5015  2.1240 -0.7926
   79MOL    H7320509   7.359   3.123   3.848  1.6496  0.4795  2.4236
   79MOL    H7420510   7.543   3.360   3.822  0.0683 -0.4381 -1.2394
   79MOL    H7520511   7.772   3.322   3.927 -1.1848  0.2740  0.7083
   79MOL    H7620512   7.834   3.174   3.892  1.7516  0.5786  0.7593
   79MOL    H7720513   7.765   3.190   4.054  0.9616  2.2839  0.1741
   79MOL    H7820514   7.494   2.995   3.949  0.0132 -0.3530  0.0768
   79MOL    H7920515   7.638   2.996   4.027  0.2661  0.7032  0.6428
   79MOL    C8020516   7.656   2.944   3.809  0.9532 -0.8608 -0.4058
   79MOL    C8120517   7.659   2.798   3.835 -0.5377 -0.7277  0.0688
   79MOL    C8220518   7.621   2.704   3.746  0.2498 -0.2385  1.0354
   79MOL    C8320519   7.566   2.716   3.602 -0.6789  0.3155  0.4052
   79MOL    C8420520   7.625   2.558   3.792  1.1719 -0.2311  0.1046
   79MOL    H8520521   7.754   2.985   3.785 -0.3056  0.9622 -2.5629
   79MOL    H8620522   7.588   2.976   3.730 -2.6414  1.3931  3.3909
   79MOL    H8720523   7.696   2.766   3.931  0.2863 -1.1200 -0.3810
   79MOL    H8820524   7.587   2.811   3.552 -1.7919 -0.5083 -1.7085
   79MOL    H8920525   7.457   2.715   3.599 -0.7187  2.1220  0.5255
   79MOL    H9020526   7.592   2.635   3.535 -0.5126  0.8887 -0.2306
   79MOL    H9120527   7.689   2.558   3.880  2.0634  2.7009 -0.4645
   79MOL    H9220528   7.667   2.497   3.713 -0.0971 -1.0404  0.0432
   79MOL    C9320529   7.487   2.505   3.831 -0.0740 -0.3550 -0.0783
   79MOL    C9420530   7.443   2.561   3.969  0.2010 -0.8931 -0.4048
   79MOL    C9520531   7.429   2.491   4.086 -0.6332 -0.4359 -0.6967
   79MOL    C9620532   7.404   2.564   4.213 -0.1554 -0.3618  0.6734
   79MOL    C9720533   7.454   2.344   4.097 -0.2614 -0.5645  0.1632
   79MOL    H9820534   7.481   2.397   3.837 -0.1532 -0.4297 -1.3547
   79MOL    H9920535   7.411   2.528   3.756 -0.5850 -2.0644 -0.1019
   79MOL   H10020536   7.428   2.667   3.958  2.9502 -0.0996  2.6989
   79MOL   H10120537   7.310   2.529   4.257 -0.0101  0.9536  2.0591
   79MOL   H10220538   7.489   2.561   4.281  0.3073 -0.0393  0.1179
   79MOL   H10320539   7.384   2.669   4.192 -1.1271 -0.1932  2.3559
   79MOL   H10420540   7.496   2.313   4.193  0.6591 -0.5595 -0.2337
   79MOL   H10520541   7.536   2.320   4.030  0.5160 -0.9293  1.2336
   79MOL   C10620542   7.329   2.259   4.066 -0.1563 -0.6198  0.0496
   79MOL   C10720543   7.366   2.113   4.076 -0.4408  0.0804 -0.4714
   79MOL   C10820544   7.298   2.010   4.019 -0.0153  0.5979 -0.6203
   79MOL   C10920545   7.180   2.034   3.926  0.3714 -0.0882  0.0684
   79MOL   C11020546   7.354   1.865   4.044 -0.0376 -0.1443 -0.9865
   79MOL   H11120547   7.297   2.284   3.965 -0.0469  0.1467  0.2068
   79MOL   H11220548   7.248   2.278   4.137  0.1383 -1.2086  0.5552
   79MOL   H11320549   7.449   2.090   4.140  0.0746 -0.8589 -1.4640
   79MOL   H11420550   7.095   1.979   3.967  0.9903  0.6307  2.3723
   79MOL   H11520551   7.142   2.136   3.916  0.9553  0.2417  1.1301
   79MOL   H11620552   7.180   1.990   3.826 -2.6840 -2.2218  0.9208
   79MOL   H11720553   7.454   1.870   4.085 -0.5615  0.8963  0.1989
   79MOL   H11820554   7.339   1.807   3.953 -0.1368  0.6303 -1.4724
   79MOL   C11920555   7.284   1.784   4.149  0.6101  0.5155 -0.2415
   79MOL   C12020556   7.365   1.667   4.194 -0.5820 -0.1614  0.3032
   79MOL   C12120557   7.339   1.534   4.190 -0.0701 -0.0240  0.0636
   79MOL   C12220558   7.430   1.437   4.252 -0.1860 -0.0051  0.3875
   79MOL   C12320559   7.205   1.470   4.156  0.2925  1.0587 -0.0590
   79MOL   H12420560   7.189   1.744   4.111  1.3394 -1.9627  0.4821
   79MOL   H12520561   7.251   1.853   4.226  2.2959  0.5643  0.4444
   79MOL   H12620562   7.462   1.687   4.239 -0.6144  0.0292  0.2894
   79MOL   H12720563   7.528   1.475   4.278 -2.0270  3.9801  1.9357
   79MOL   H12820564   7.448   1.356   4.181  3.2453  0.7666  0.3037
   79MOL   H12920565   7.393   1.387   4.341 -1.1429  0.2277  0.1345
   79MOL   H13020566   7.123   1.537   4.181 -1.0456 -1.1060  1.5521
   79MOL   H13120567   7.181   1.387   4.223  1.3355  0.7902 -0.0058
   79MOL   C13220568   7.194   1.410   4.012 -0.1992 -0.8296  0.3030
   79MOL   C13320569   7.201   1.508   3.900  0.0489  0.7289 -0.3541
   79MOL   C13420570   7.102   1.544   3.818  0.4930 -0.4354 -0.1550
   79MOL   C13520571   7.130   1.659   3.713  0.3621 -0.5849 -0.0733
   79MOL   C13620572   6.963   1.488   3.820  0.9915  0.8948  0.4902
   79MOL   H13720573   7.096   1.363   4.000 -0.8509  0.4645  0.5562
   79MOL   H13820574   7.266   1.334   3.981 -1.3669 -2.8850  2.4767
   79MOL   H13920575   7.296   1.560   3.906 -0.7412  2.1278  0.1474
   79MOL   H14020576   7.108   1.619   3.613  1.9920 -0.8444 -0.3341
   79MOL   H14120577   7.235   1.684   3.721 -0.1939  1.1141  2.2728
   79MOL   H14220578   7.074   1.750   3.733  0.7341 -0.2688 -0.4670
   79MOL   H14320579   6.945   1.394   3.873  0.6660  0.5600 -0.2111
   79MOL   H14420580   6.925   1.468   3.720  0.2515  0.6813  0.8117
   79MOL   C14520581   6.878   1.595   3.895  0.5253  0.3544 -0.3876
   79MOL   C14620582   6.739   1.549   3.932 -0.4060 -0.6457  0.3730
   79MOL   C14720583   6.688   1.530   4.056 -0.2116 -0.7568  0.2697
   79MOL   C14820584   6.549   1.481   4.079  0.6642  0.3759 -0.4176
   79MOL   C14920585   6.766   1.561   4.189  0.8211 -0.4604 -0.7199
   79MOL   H15020586   6.862   1.673   3.821  2.6202  0.0337 -1.2207
   79MOL   H15120587   6.935   1.628   3.981 -2.1792  1.5979  0.9662
   79MOL   H15220588   6.679   1.534   3.844  1.8217 -0.0800 -1.2556
   79MOL   H15320589   6.537   1.379   4.045 -2.1231  0.4219  0.2833
   79MOL   H15420590   6.476   1.549   4.034  2.9411  2.2565 -1.3473
   79MOL   H15520591   6.530   1.476   4.186  1.1754  2.8871 -0.1773
   79MOL   H15620592   6.873   1.555   4.172  0.7569 -1.5602 -0.7819
   79MOL   H15720593   6.739   1.477   4.253  1.1249 -1.8238 -2.3505
   79MOL   C15820594   6.725   1.694   4.254 -0.3008  0.2440 -0.1038
   79MOL   C15920595   6.795   1.814   4.189 -0.1557  0.4149  0.5835
   79MOL   C16020596   6.728   1.917   4.132  0.3064 -0.7497 -0.5196
   79MOL   C16120597   6.572   1.922   4.116 -0.6180  0.0531  0.2038
   79MOL   C16220598   6.799   2.034   4.057  0.6879  0.2115  0.3961
   79MOL   H16320599   6.765   1.704   4.355  0.8208  2.8266 -0.7740
   79MOL   H16420600   6.617   1.703   4.257 -0.3371 -0.6804  2.0156
   79MOL   H16520601   6.901   1.797   4.188 -0.3400 -0.7385  0.0922
   79MOL   H16620602   6.543   2.027   4.122  0.3014  0.4241 -1.5214
   79MOL   H16720603   6.514   1.875   4.195  2.2782 -3.1163  0.5706
   79MOL   H16820604   6.538   1.887   4.018 -1.2985  0.6974  0.2094
   79MOL   H16920605   6.768   2.036   3.952 -0.8941 -1.3746  0.8065
   79MOL   H17020606   6.907   2.020   4.059  0.9681  2.2323  0.5460
   79MOL   C17120607   6.784   2.175   4.116  0.6193  0.2843 -0.3150
   79MOL   C17220608   6.884   2.267   4.050  0.1508  0.2598 -0.0350
   79MOL   C17320609   6.933   2.378   4.109 -0.4053 -0.2690 -0.0605
   79MOL   C17420610   6.897   2.422   4.249  0.0733  0.3715  0.3436
   79MOL   C17520611   7.035   2.465   4.032 -0.5028  0.4524  0.3542
   79MOL   H17620612   6.801   2.180   4.223  0.0484  0.7474 -0.2391
   79MOL   H17720613   6.686   2.208   4.080  0.6594  2.4477  1.4605
   79MOL   H17820614   6.921   2.242   3.951  0.3399 -1.2311  0.4089
   79MOL   H17920615   6.794   2.394   4.271 -0.5163  3.4041  1.7969
   79MOL   H18020616   6.885   2.529   4.269  0.8822  0.7866 -1.2904
   79MOL   H18120617   6.967   2.391   4.327  1.4527  0.9942 -0.6427
   79MOL   H18220618   7.060   2.418   3.937  1.8651  2.0596  0.1434
   79MOL   H18320619   7.130   2.471   4.085  0.1860 -0.0364 -0.8004
   79MOL   C18420620   6.974   2.607   4.005 -0.2233  0.3828 -0.2177
   79MOL   C18520621   7.080   2.685   3.928  1.0738  0.0800  0.2201
   79MOL   C18620622   7.067   2.762   3.815  0.1677 -0.5532  0.4480
   79MOL   C18720623   7.188   2.829   3.754  0.2541 -0.1850  0.0650
   79MOL   C18820624   6.936   2.784   3.744 -0.3163 -0.4452  0.1011
   79MOL   H18920625   6.960   2.650   4.103 -1.9382 -1.6455  0.4639
   79MOL   H19020626   6.881   2.597   3.949 -0.4935 -2.8585  0.6888
   79MOL   H19120627   7.179   2.669   3.968  1.3463  0.6047 -0.2395
   79MOL   H19220628   7.209   2.782   3.658  0.9814  0.6165 -0.1870
   79MOL   H19320629   7.275   2.821   3.819 -0.4427 -0.5870  0.9494
   79MOL   H19420630   7.169   2.936   3.745  0.3261 -0.1658  0.1404
   79MOL   H19520631   6.927   2.889   3.719  2.5552  0.1433  1.3081
   79MOL   H19620632   6.854   2.754   3.809  0.6457 -4.1841 -0.2792
   79MOL   C19720633   6.929   2.698   3.621 -0.2313 -0.1670 -0.5229
   79MOL   C19820634   6.897   2.553   3.645 -0.1177  0.3939  0.0869
   79MOL   C19920635   6.977   2.448   3.640 -0.4696 -0.5045 -0.6253
   79MOL   C20020636   6.916   2.313   3.667  0.0750 -0.2099 -0.0106
   79MOL   C20120637   7.126   2.454   3.605  0.2964 -0.0426 -0.5664
   79MOL   H20220638   7.022   2.703   3.564  0.5828 -0.2360  0.7714
   79MOL   H20320639   6.858   2.732   3.546 -0.9497 -3.3892 -1.3766
   79MOL   H20420640   6.796   2.536   3.678 -1.1269  0.7712 -2.6654
   79MOL   H20520641   6.820   2.331   3.716  1.7228  1.4153  2.7802
   79MOL   H20620642   6.967   2.249   3.739 -0.0426 -0.3021 -0.0089
   79MOL   H20720643   6.910   2.266   3.569 -0.1327  2.1356 -1.1508
   79MOL   H20820644   7.164   2.382   3.678 -0.1966  0.0150 -0.2537
   79MOL   H20920645   7.169   2.551   3.629  1.1106 -0.2571 -1.1024
   79MOL   C21020646   7.151   2.412   3.466  0.1657  0.0622  0.0341
   79MOL   C21120647   7.301   2.411   3.437  0.0381 -0.2436 -0.3030
   79MOL   C21220648   7.378   2.475   3.342 -0.1212  0.6828  0.0816
   79MOL   C21320649   7.528   2.434   3.333 -0.2232 -0.2413  0.1579
   79MOL   C21420650   7.328   2.574   3.239 -0.0969  0.3043 -0.1534
   79MOL   H21520651   7.103   2.481   3.397  2.1189  1.8959  0.4564
   79MOL   H21620652   7.123   2.309   3.445  0.0778 -0.6889  3.4699
   79MOL   H21720653   7.358   2.348   3.503 -1.7028 -2.2201 -0.6586
   79MOL   H21820654   7.547   2.335   3.373 -3.2019 -0.8780  0.0936
   79MOL   H21920655   7.596   2.506   3.379  1.3177 -0.1990 -2.0952
   79MOL   H22020656   7.574   2.429   3.234  0.4372 -2.4089  0.5547
   79MOL   H22120657   7.221   2.582   3.258 -0.2489  0.4261 -1.0613
   79MOL   H22220658   7.345   2.528   3.142 -1.8955  0.4360 -0.5538
   79MOL   C22320659   7.406   2.710   3.248  0.1953  0.0085  1.2265
   79MOL   C22420660   7.355   2.807   3.137 -0.4434 -0.1203  0.0143
   79MOL   C22520661   7.306   2.930   3.163  0.7092 -0.0883  0.7962
   79MOL   C22620662   7.229   3.002   3.055  0.1205  0.2222 -0.2949
   79MOL   C22720663   7.300   2.992   3.303 -0.2984  0.0775 -0.8595
   79MOL   H22820664   7.513   2.694   3.231 -0.3288 -1.6649 -0.6459
   79MOL   H22920665   7.404   2.756   3.347  0.2569 -0.4886  1.4598
   79MOL   H23020666   7.353   2.766   3.037 -1.0116  0.7982 -0.3534
   79MOL   H23120667   7.293   3.078   3.010 -0.4148  1.5457  1.1197
   79MOL   H23220668   7.144   3.051   3.103  0.1529 -1.3240  1.3445
   79MOL   H23320669   7.191   2.948   2.968 -0.4206 -0.1285  0.1598
   79MOL   H23420670   7.298   3.100   3.285  1.4406  0.1923 -0.4408
   79MOL   H23520671   7.398   2.981   3.349 -0.9898  1.1886  0.9522
   79MOL   C23620672   7.177   2.961   3.395 -0.0616 -0.5511 -0.1791
   79MOL   C23720673   7.042   2.977   3.324 -0.1454  0.1425 -0.6971
   79MOL   C23820674   6.957   3.085   3.313 -0.8099 -1.2257 -0.1118
   79MOL   C23920675   6.835   3.070   3.240 -0.1362 -0.4846  0.4073
   79MOL   C24020676   6.994   3.227   3.367 -0.5082  0.8211  0.4329
   79MOL   H24120677   7.179   3.001   3.497  0.2691  0.3603 -0.5430
   79MOL   H24220678   7.184   2.855   3.422 -0.2059 -0.5163 -0.0096
   79MOL   H24320679   7.011   2.877   3.298  2.5277 -0.9102 -0.0549
   79MOL   H24420680   6.749   3.081   3.306 -0.3290  1.3345 -0.1241
   79MOL   H24520681   6.826   2.976   3.185  1.9729  0.3024 -1.3614
   79MOL   H24620682   6.831   3.149   3.165  0.5548  0.2105  1.0854
   79MOL   H24720683   7.088   3.213   3.420  0.3525  0.4337 -1.1500
   79MOL   H24820684   6.920   3.264   3.438  0.1027  2.1547  0.4071
   79MOL   C24920685   7.024   3.338   3.266 -0.2692  0.0855 -0.1177
   79MOL   C25020686   7.092   3.454   3.325  0.0118 -0.2232  0.4955
   79MOL   C25120687   7.164   3.549   3.261 -0.4229 -0.6243 -0.7407
   79MOL   C25220688   7.232   3.661   3.329 -0.1096 -0.1121 -0.1495
   79MOL   C25320689   7.193   3.531   3.118 -0.0813  0.3647  0.1873
   79MOL   H25420690   6.931   3.369   3.219  0.9305  1.9309 -1.3718
   79MOL   H25520691   7.097   3.306   3.192  1.7067  0.4608  1.6263
   79MOL   H25620692   7.075   3.477   3.429 -0.2349  2.4458 -0.0997
   79MOL   H25720693   7.337   3.634   3.341  0.3954  0.3975 -2.9332
   79MOL   H25820694   7.195   3.674   3.430 -1.1928  0.5655 -0.6209
   79MOL   H25920695   7.219   3.750   3.268 -0.3586  0.7261  1.1063
   79MOL   H26020696   7.233   3.618   3.064 -0.5417 -1.8541 -3.9461
   79MOL   H26120697   7.096   3.522   3.070 -0.0959  0.8824  0.1120
   79MOL   H26220698   7.258   3.444   3.104  1.6980  1.4964  1.1568
   80MOL     C120699   4.218   7.814   6.151  0.8551  0.4797 -0.5961
   80MOL     C220700   4.227   0.027   6.028 -0.4673 -0.4055 -0.2935
   80MOL     C320701   4.327   0.099   5.977 -0.0241  0.2209 -0.1304
   80MOL     C420702   4.314   0.203   5.867  0.7724 -0.0264 -0.1847
   80MOL     C520703   4.471   0.083   6.031 -0.2970  0.5160  0.8451
   80MOL     H620704   4.162   7.858   6.233 -0.4200 -0.2720 -1.0556
   80MOL     H720705   4.177   7.715   6.131 -0.6647  1.2082 -1.0987
   80MOL     H820706   4.129   0.050   5.987  0.4180 -2.9037 -4.0924
   80MOL     H920707   4.347   0.159   5.772  0.7324  1.6811 -1.0071
   80MOL    H1020708   4.374   0.289   5.896  1.0616 -0.5611  0.8246
   80MOL    H1120709   4.210   0.233   5.854  0.6632 -0.6255 -0.7391
   80MOL    H1220710   4.544   0.095   5.951 -0.0482 -1.7662  0.6942
   80MOL    H1320711   4.492   7.863   6.073 -2.3390 -0.5638 -0.5827
   80MOL    H1420712   4.316   7.788   6.192 -0.4480  0.4349  2.6128
   80MOL    C1520713   4.512   0.182   6.141  0.1027  0.1890 -0.0064
   80MOL    C1620714   4.654   0.154   6.184  0.0071  0.8499  0.7279
   80MOL    C1720715   4.764   0.230   6.157  0.2299 -0.5698  0.5078
   80MOL    C1820716   4.902   0.178   6.205 -0.4978 -0.5621  0.3613
   80MOL    C1920717   4.766   0.366   6.096 -0.2925  0.3120 -0.1581
   80MOL    H2020718   4.442   0.162   6.222  0.0366  1.0961  0.1666
   80MOL    H2120719   4.501   0.285   6.109  0.5480  0.2476  0.0234
   80MOL    H2220720   4.676   0.061   6.234  0.5960 -0.0200 -1.0929
   80MOL    H2320721   4.896   0.073   6.237 -0.9933 -0.3427  0.9874
   80MOL    H2420722   4.949   0.244   6.278  1.3586  0.3248 -1.5960
   80MOL    H2520723   4.976   0.185   6.125 -0.1040 -0.5606  0.7218
   80MOL    H2620724   4.856   0.409   6.139  0.5585 -1.6121  0.0267
   80MOL    H2720725   4.681   0.432   6.117 -0.7218 -0.2190 -0.2250
   80MOL    C2820726   4.774   0.362   5.945  0.4035 -0.8130  0.0824
   80MOL    C2920727   4.697   0.481   5.888 -0.0029  0.1888 -0.5568
   80MOL    C3020728   4.739   0.570   5.797  0.6450  0.0809 -0.2288
   80MOL    C3120729   4.648   0.689   5.764  0.3054  0.2473 -0.6547
   80MOL    C3220730   4.880   0.565   5.735 -0.0968 -0.7205  0.1303
   80MOL    H3320731   4.742   0.270   5.895  2.2136  0.4877 -3.6778
   80MOL    H3420732   4.878   0.363   5.915  0.7961  1.3234  1.4781
   80MOL    H3520733   4.597   0.482   5.930  0.3262  0.0787  0.2457
   80MOL    H3620734   4.680   0.776   5.821 -0.6560  0.3955 -0.3371
   80MOL    H3720735   4.546   0.652   5.776  1.0924 -2.2180 -1.2694
   80MOL    H3820736   4.656   0.718   5.659 -0.1590 -1.3463 -1.1512
   80MOL    H3920737   4.877   0.615   5.638 -4.5159 -0.6297  0.2291
   80MOL    H4020738   4.917   0.463   5.721 -0.0121 -0.5201 -1.1895
   80MOL    C4120739   4.982   0.642   5.815  0.8497  0.2439  0.2164
   80MOL    C4220740   5.119   0.633   5.757 -0.6296 -0.2970 -0.5136
   80MOL    C4320741   5.221   0.720   5.774  0.2021  0.1786  0.1735
   80MOL    C4420742   5.362   0.698   5.712 -0.4257  0.1628 -0.1654
   80MOL    C4520743   5.206   0.843   5.864  0.6138  0.1237 -1.1886
   80MOL    H4620744   4.972   0.606   5.917 -1.2315 -0.7274 -0.2913
   80MOL    H4720745   4.944   0.744   5.819 -0.8629 -0.3418 -0.3740
   80MOL    H4820746   5.144   0.536   5.715  0.2199  0.1032 -0.9325
   80MOL    H4920747   5.402   0.597   5.724  2.0034  1.4040  3.2835
   80MOL    H5020748   5.428   0.775   5.753 -1.2415  0.6546  0.2488
   80MOL    H5120749   5.347   0.725   5.608 -0.9084  3.0591  0.6140
   80MOL    H5220750   5.100   0.866   5.875  0.5179 -1.3915  1.3168
   80MOL    H5320751   5.238   0.935   5.815  1.0204  0.7791  0.2783
   80MOL    C5420752   5.290   0.826   5.995 -0.1124  0.0216  0.0058
   80MOL    C5520753   5.207   0.750   6.099  0.4314  0.7498  0.4110
   80MOL    C5620754   5.239   0.642   6.169  0.5841  0.5426  0.1657
   80MOL    C5720755   5.142   0.591   6.266  0.1684 -0.5809  0.3049
   80MOL    C5820756   5.343   0.541   6.124 -0.2154  0.5357 -1.0864
   80MOL    H5920757   5.319   0.917   6.046  1.9261 -1.2775  1.2198
   80MOL    H6020758   5.387   0.781   5.974 -1.2995 -1.8456 -1.7599
   80MOL    H6120759   5.115   0.806   6.112 -0.4895 -0.5081 -0.6627
   80MOL    H6220760   5.185   0.567   6.364  1.3375  0.9513  0.1810
   80MOL    H6320761   5.092   0.499   6.233  1.4094 -1.1478 -0.0322
   80MOL    H6420762   5.064   0.663   6.291 -0.3109 -0.8877 -0.2965
   80MOL    H6520763   5.352   0.548   6.016 -2.2257  0.6404 -1.2598
   80MOL    H6620764   5.301   0.441   6.133 -1.5522  1.3700  2.6813
   80MOL    C6720765   5.482   0.552   6.184 -0.1774 -0.8642  0.1273
   80MOL    C6820766   5.571   0.446   6.131  0.0453 -0.3866  0.2998
   80MOL    C6920767   5.663   0.386   6.206  0.6023  0.0815 -0.0528
   80MOL    C7020768   5.750   0.281   6.152 -0.6828  0.3508 -0.3389
   80MOL    C7120769   5.697   0.418   6.347  0.0729 -0.0507  0.5682
   80MOL    H7220770   5.457   0.548   6.290 -3.5405 -1.1005 -0.6316
   80MOL    H7320771   5.535   0.646   6.165 -0.2620 -1.0968 -1.3197
   80MOL    H7420772   5.563   0.425   6.025  0.0243 -3.2973  0.8422
   80MOL    H7520773   5.850   0.325   6.146 -0.0755 -0.5499  2.4921
   80MOL    H7620774   5.721   0.249   6.052  2.5190  1.1207 -1.5831
   80MOL    H7720775   5.749   0.193   6.215  0.2020  0.2444 -0.4735
   80MOL    H7820776   5.655   0.516   6.371 -0.9836 -0.0927 -1.0549
   80MOL    H7920777   5.804   0.438   6.338 -0.0543 -0.3241 -1.8770
   80MOL    C8020778   5.660   0.308   6.448  0.0065  0.3043 -0.1661
   80MOL    C8120779   5.505   0.278   6.437  0.5865 -0.3283  0.2151
   80MOL    C8220780   5.419   0.286   6.535  0.5149  0.8407 -0.8109
   80MOL    C8320781   5.450   0.330   6.682 -0.5961 -0.4487 -0.4061
   80MOL    C8420782   5.268   0.280   6.499  0.1956 -0.7100  0.2098
   80MOL    H8520783   5.671   0.338   6.553 -0.1202  1.6359 -0.5228
   80MOL    H8620784   5.722   0.219   6.440  2.6036  1.8785  1.7664
   80MOL    H8720785   5.472   0.248   6.338  0.6086  0.2224  0.0378
   80MOL    H8820786   5.553   0.310   6.712 -0.7787 -1.2661 -0.3061
   80MOL    H8920787   5.392   0.264   6.746  1.1030  0.7591  2.4696
   80MOL    H9020788   5.425   0.432   6.713  1.6974 -0.4426  1.5786
   80MOL    H9120789   5.237   0.314   6.400 -1.3293 -2.4671  0.0515
   80MOL    H9220790   5.222   0.356   6.562  1.5495 -0.0068  0.3577
   80MOL    C9320791   5.199   0.153   6.530 -0.5219  0.0466 -0.3762
   80MOL    C9420792   5.244   0.042   6.441  0.0596  0.3243 -0.4059
   80MOL    C9520793   5.263   7.792   6.465 -0.6502  0.4986 -0.4054
   80MOL    C9620794   5.310   7.697   6.360  0.2460 -0.2802 -0.3478
   80MOL    C9720795   5.243   7.722   6.602  0.0273  0.3178 -0.3103
   80MOL    H9820796   5.091   0.157   6.541 -0.3206  0.5071  1.7628
   80MOL    H9920797   5.221   0.115   6.630 -0.1639  0.8299 -0.1523
   80MOL   H10020798   5.253   0.074   6.338  0.5101  0.2142 -0.4026
   80MOL   H10120799   5.239   7.624   6.323 -0.5978  0.3951 -0.0783
   80MOL   H10220800   5.331   7.750   6.267 -1.1768 -1.8117 -1.5672
   80MOL   H10320801   5.396   7.642   6.397 -2.2642 -3.0657  1.6101
   80MOL   H10420802   5.208   7.619   6.588  0.2030 -0.2004  2.7477
   80MOL   H10520803   5.162   7.771   6.655 -0.4770 -1.0526  0.2264
   80MOL   C10620804   5.372   7.711   6.685 -0.1032  0.2921 -0.0346
   80MOL   C10720805   5.417   7.827   6.776 -0.4243 -0.2121  0.5447
   80MOL   C10820806   5.484   7.814   6.893  0.4117  1.1275 -0.1053
   80MOL   C10920807   5.550   7.685   6.939 -0.3362  0.0544  0.7076
   80MOL   C11020808   5.530   0.057   6.973  0.1480  0.3360  0.4001
   80MOL   H11120809   5.450   7.708   6.609 -1.3025  1.5000 -1.3464
   80MOL   H11220810   5.359   7.626   6.751 -3.6826  1.1025  0.4511
   80MOL   H11320811   5.383   0.047   6.748  2.6986  0.5183 -0.8862
   80MOL   H11420812   5.496   7.651   7.027  0.2541 -0.3841  0.9085
   80MOL   H11520813   5.555   7.604   6.865  1.5994 -1.9967  2.9966
   80MOL   H11620814   5.649   7.708   6.978 -0.0875  1.9818 -1.0231
   80MOL   H11720815   5.508   0.148   6.917  0.3684 -0.6105 -1.2851
   80MOL   H11820816   5.635   0.044   6.996  0.1806  2.4048  1.5223
   80MOL   C11920817   5.459   0.063   7.103  0.0026 -0.0883 -0.6355
   80MOL   C12020818   5.523   0.164   7.198  0.1577 -0.3857  0.1821
   80MOL   C12120819   5.634   0.143   7.270  0.6204 -1.4228 -0.1674
   80MOL   C12220820   5.700   0.245   7.364  0.1453  0.3285  0.3657
   80MOL   C12320821   5.715   0.014   7.268  0.1317  0.0019 -0.0337
   80MOL   H12420822   5.473   7.844   7.150  2.5157  0.8198  0.5667
   80MOL   H12520823   5.352   0.081   7.096  0.0285  0.5341  0.4905
   80MOL   H12620824   5.469   0.254   7.223  0.9731  0.5522 -1.3928
   80MOL   H12720825   5.669   0.346   7.336  2.0137  0.6892 -0.5082
   80MOL   H12820826   5.809   0.241   7.357  0.1589  0.9098  0.2031
   80MOL   H12920827   5.667   0.231   7.467 -0.7362 -0.7940 -0.0656
   80MOL   H13020828   5.816   0.042   7.238  1.3735 -3.4231  0.6420
   80MOL   H13120829   5.684   7.818   7.195 -0.1482  0.4559 -0.3786
   80MOL   C13220830   5.706   7.822   7.403 -0.3410  0.6521  0.7943
   80MOL   C13320831   5.782   7.694   7.412 -0.7628  0.2025 -0.0563
   80MOL   C13420832   5.723   7.572   7.434 -0.0031 -0.2042  0.3761
   80MOL   C13520833   5.816   7.450   7.443 -0.1608 -0.0278  0.1492
   80MOL   C13620834   5.578   7.550   7.458  0.3365  1.0742 -0.6965
   80MOL   H13720835   5.603   7.791   7.421 -0.5791  1.2741  0.5061
   80MOL   H13820836   5.748   0.010   7.479 -0.8788  1.0078  0.7762
   80MOL   H13920837   5.890   7.697   7.414 -0.6799 -2.2165  1.0014
   80MOL   H14020838   5.914   7.459   7.395  0.6626  2.1968  2.1398
   80MOL   H14120839   5.766   7.357   7.416  2.6905 -1.7668  0.6578
   80MOL   H14220840   5.834   7.434   7.549 -1.9684 -1.1531  0.3103
   80MOL   H14320841   5.536   7.627   7.523 -1.4819 -0.3540 -0.1258
   80MOL   H14420842   5.556   7.462   7.520  0.6059  2.3576  1.2582
   80MOL   C14520843   5.491   7.532   7.335 -0.5307 -0.6160 -0.1579
   80MOL   C14620844   5.348   7.504   7.368  0.5295  0.2808 -0.2477
   80MOL   C14720845   5.238   7.576   7.340  0.5478 -0.0182 -0.3465
   80MOL   C14820846   5.104   7.527   7.392 -0.4463  0.2146 -0.5176
   80MOL   C14920847   5.237   7.703   7.260  0.4587  0.3846 -0.2330
   80MOL   H15020848   5.524   7.447   7.275 -2.0901  0.4143 -2.5550
   80MOL   H15120849   5.496   7.625   7.279 -0.4330 -0.4313  0.1549
   80MOL   H15220850   5.325   7.410   7.416  0.0322  0.7498  0.4301
   80MOL   H15320851   5.042   7.498   7.307 -0.1795 -0.5911 -0.4306
   80MOL   H15420852   5.054   7.606   7.449 -1.5101 -0.0608 -1.0397
   80MOL   H15520853   5.103   7.446   7.464 -1.6919  1.1439  0.5360
   80MOL   H15620854   5.160   7.698   7.184 -0.6844  1.9980  0.7794
   80MOL   H15720855   5.330   7.710   7.204  1.5790 -0.6656  1.4186
   80MOL   C15820856   5.199   7.834   7.332 -0.3051 -0.4220 -0.8382
   80MOL   C15920857   5.298   7.867   7.445 -0.0575 -0.5615  0.0549
   80MOL   C16020858   5.299   0.102   7.517  0.8952 -0.3263  0.2500
   80MOL   C16120859   5.214   0.224   7.491 -0.4877 -0.4965 -0.9926
   80MOL   C16220860   5.404   0.120   7.626 -0.1713  0.5052 -0.4304
   80MOL   H16320861   5.100   7.825   7.378 -0.4014 -0.8811 -1.1331
   80MOL   H16420862   5.189   0.038   7.262 -0.8351  1.7362  1.7192
   80MOL   H16520863   5.361   7.784   7.474  0.9727  0.9842  2.4490
   80MOL   H16620864   5.281   0.309   7.476 -0.9380 -0.2490 -1.6414
   80MOL   H16720865   5.170   0.245   7.588 -2.0070  1.0064 -1.9656
   80MOL   H16820866   5.148   0.221   7.404 -0.2071  1.2379 -1.2951
   80MOL   H16920867   5.447   0.220   7.618 -0.0467  0.3259 -2.3325
   80MOL   H17020868   5.488   0.056   7.598 -1.4983 -1.3287 -0.2905
   80MOL   C17120869   5.351   0.068   7.752  0.2133  0.5253 -0.0223
   80MOL   C17220870   5.302   7.805   7.750  0.3455 -0.2099  0.3043
   80MOL   C17320871   5.370   7.694   7.794 -0.1910  0.1352 -0.3911
   80MOL   C17420872   5.499   7.704   0.006  0.2949 -0.2204  0.1096
   80MOL   C17520873   5.317   7.555   7.762 -0.1144  0.9534 -0.0908
   80MOL   H17620874   5.267   0.129   7.786 -0.3330  0.8850 -2.0114
   80MOL   H17720875   5.434   0.078   7.823 -0.5959  0.3381  0.9583
   80MOL   H17820876   5.209   7.787   7.700  0.3330  2.3068 -0.6256
   80MOL   H17920877   5.508   7.612   0.064 -1.6936  0.1889  1.1410
   80MOL   H18020878   5.490   7.785   0.078 -0.6685  0.3028 -0.5836
   80MOL   H18120879   5.585   7.723   7.821  0.0260  2.7725  0.5911
   80MOL   H18220880   5.407   7.523   7.708 -0.6224  0.6802 -0.7924
   80MOL   H18320881   5.236   7.558   7.690 -0.4266  0.5895  0.2449
   80MOL   C18420882   5.280   7.473   0.011  0.3287 -0.4869 -0.0596
   80MOL   C18520883   5.197   7.357   7.857  0.4317  0.4348  0.2558
   80MOL   C18620884   5.082   7.322   0.039 -0.0544  0.3236 -0.0446
   80MOL   C18720885   5.002   7.206   7.872 -0.0804 -0.5903  0.2251
   80MOL   C18820886   5.020   7.398   0.147  0.6435  0.0027  0.4198
   80MOL   H18920887   5.240   7.538   0.089  1.2392  0.7553 -0.6014
   80MOL   H19020888   5.370   7.435   0.061  0.9434  1.3748  0.2949
   80MOL   H19120889   5.241   7.294   7.782 -0.9052 -1.3563  0.9440
   80MOL   H19220890   5.028   7.186   7.768 -0.8405  1.5587 -0.4032
   80MOL   H19320891   4.893   7.211   7.877 -0.0378 -1.6445  2.5537
   80MOL   H19420892   5.030   7.118   0.050 -2.5239 -0.6649  1.3871
   80MOL   H19520893   5.082   7.440   0.227 -1.3046  1.9322  0.9681
   80MOL   H19620894   4.972   7.323   0.210  0.3829 -0.0018  0.2161
   80MOL   C19720895   4.931   7.507   0.094 -0.6176 -0.6777 -0.2189
   80MOL   C19820896   4.873   7.588   0.206  0.0385 -0.2261 -0.0296
   80MOL   C19920897   4.891   7.719   0.235  0.1496  0.5037  0.2295
   80MOL   C20020898   4.821   7.784   0.349 -0.3558  0.0761 -0.6107
   80MOL   C20120899   4.970   7.817   0.148 -0.0410 -0.0929  0.1190
   80MOL   H20220900   4.848   7.470   0.033 -0.3149 -1.2756 -0.2752
   80MOL   H20320901   4.987   7.572   0.026 -1.3098  0.7853  0.5816
   80MOL   H20420902   4.810   7.528   0.270 -3.2329  0.1154 -2.7738
   80MOL   H20520903   4.879   7.857   0.406 -1.1943 -0.6724  1.2543
   80MOL   H20620904   4.791   7.712   0.425  0.2646 -0.1470 -0.5818
   80MOL   H20720905   4.735   7.843   0.315  0.3116  0.8439 -0.9828
   80MOL   H20820906   5.047   7.769   0.087  1.0674  1.2818  0.4024
   80MOL   H20920907   5.022   7.875   0.224 -0.9777 -0.3117  0.9400
   80MOL   C21020908   4.880   0.050   0.083  0.8465  1.1938  0.3703
   80MOL   C21120909   4.966   0.154   0.027  0.3674 -0.0827  0.5671
   80MOL   C21220910   4.964   0.283   0.069  0.8878  0.1106  0.0951
   80MOL   C21320911   5.049   0.387   7.875 -0.5273  0.1247  0.5844
   80MOL   C21420912   4.863   0.338   0.172  0.1376  0.1382 -1.0662
   80MOL   H21520913   4.810   0.089   0.156  0.5763 -3.8751  3.0519
   80MOL   H21620914   4.827   0.007   7.877  1.3652  1.8435 -0.2828
   80MOL   H21720915   5.044   0.129   7.836  1.3446  2.4431  0.7006
   80MOL   H21820916   5.003   0.485   7.868  1.2584  1.0257  1.1188
   80MOL   H21920917   5.067   0.344   7.776  0.2932 -0.5356  1.0112
   80MOL   H22020918   5.143   0.395   0.050  1.8053 -0.4928 -3.1950
   80MOL   H22120919   4.763   0.296   0.158  0.4532 -1.1143  0.3370
   80MOL   H22220920   4.842   0.444   0.158 -1.0906 -0.0836 -0.9273
   80MOL   C22320921   4.907   0.308   0.311  0.7272 -0.0307 -0.7430
   80MOL   C22420922   5.032   0.385   0.356 -0.4032  0.2659 -0.9208
   80MOL   C22520923   5.152   0.339   0.393  0.0836  0.7887  0.0601
   80MOL   C22620924   5.270   0.430   0.437 -0.4389 -0.0872 -0.3035
   80MOL   C22720925   5.190   0.198   0.405 -1.0407  0.0046 -0.6685
   80MOL   H22820926   4.914   0.200   0.328 -0.0957  0.0096 -0.1189
   80MOL   H22920927   4.827   0.334   0.381  1.9496 -0.5329  0.8720
   80MOL   H23020928   5.016   0.491   0.352  0.0918  0.4943  2.3782
   80MOL   H23120929   5.258   0.434   0.545  2.2752  2.5347 -0.0113
   80MOL   H23220930   5.251   0.533   0.407 -0.9038  0.1969  0.9391
   80MOL   H23320931   5.367   0.389   0.409 -0.1417  0.6689 -0.3924
   80MOL   H23420932   5.101   0.135   0.408 -1.6036  0.7450 -1.3985
   80MOL   H23520933   5.225   0.187   0.508  0.3464  1.5980 -0.9418
   80MOL   C23620934   5.286   0.151   0.295  0.1193 -0.2643  0.0170
   80MOL   C23720935   5.289   0.003   0.297 -0.1216 -0.4182 -0.4057
   80MOL   C23820936   5.352   7.799   0.381  0.1196  0.1505 -0.4544
   80MOL   C23920937   5.326   7.648   0.380  0.0616 -0.8052 -0.2300
   80MOL   C24020938   5.440   7.851   0.494 -0.1264 -0.3066  0.3296
   80MOL   H24120939   5.387   0.187   0.315 -0.6990  1.7165  0.6707
   80MOL   H24220940   5.253   0.188   0.198  1.3004 -0.2391 -0.3849
   80MOL   H24320941   5.219   7.842   0.225 -0.5557 -0.7025  0.1592
   80MOL   H24420942   5.281   7.614   0.473 -1.6971  1.4561 -0.1903
   80MOL   H24520943   5.407   7.585   0.345 -0.4773 -0.8348 -1.4649
   80MOL   H24620944   5.246   7.626   0.310  0.7641 -1.3950 -0.8595
   80MOL   H24720945   5.399   7.811   0.586  1.6798 -0.7940  0.9517
   80MOL   H24820946   5.441   0.081   0.492 -0.1766 -0.3020  0.5615
   80MOL   C24920947   5.585   7.811   0.494 -0.7711  0.5823 -0.0159
   80MOL   C25020948   5.654   7.856   0.625 -0.2556 -0.5036  0.1111
   80MOL   C25120949   5.753   0.072   0.639  0.0512  0.1773  0.7946
   80MOL   C25220950   5.826   0.086   0.771 -0.3044  0.2923  0.1606
   80MOL   C25320951   5.830   0.143   0.528  0.3139 -0.4164  0.0445
   80MOL   H25420952   5.650   7.850   0.416  1.1842  0.2460  1.4056
   80MOL   H25520953   5.597   7.703   0.487 -0.7760  0.6016 -0.3318
   80MOL   H25620954   5.630   7.799   0.713 -1.8289  0.1947  0.1499
   80MOL   H25720955   5.760   0.069   0.857 -0.7417  0.8622 -0.0541
   80MOL   H25820956   5.882   0.176   0.797  1.0894 -0.8430  1.1350
   80MOL   H25920957   5.902   0.009   0.773  0.8901  1.4777  1.5717
   80MOL   H26020958   5.767   0.209   0.467 -0.7806 -0.4947  1.0699
   80MOL   H26120959   5.858   0.071   0.452  0.5937  0.5426 -0.7680
   80MOL   H26220960   5.920   0.194   0.563  1.0634 -0.7091 -1.4353
   81MOL     C120961   2.228   4.479   1.677  0.1479 -0.4913  0.6702
   81MOL     C220962   2.198   4.595   1.775 -0.0718 -0.4236  1.2786
   81MOL     C320963   2.130   4.706   1.746  0.1854  0.2368  0.1647
   81MOL     C420964   2.127   4.812   1.854 -0.5970 -0.1946  0.2423
   81MOL     C520965   2.071   4.751   1.615  0.5613  0.1062 -0.4415
   81MOL     H620966   2.337   4.471   1.668  0.2218  0.2409  0.8988
   81MOL     H720967   2.170   4.388   1.690  0.2267 -0.7507 -0.7316
   81MOL     H820968   2.238   4.590   1.875  1.7848  2.3240  0.7079
   81MOL     H920969   2.154   4.786   1.956 -1.4285 -0.4552  0.4030
   81MOL    H1020970   2.030   4.863   1.857  0.0837  1.0924  0.3912
   81MOL    H1120971   2.193   4.886   1.809  0.1649  0.0854  1.8022
   81MOL    H1220972   1.974   4.799   1.630  0.6062  0.4219 -1.1362
   81MOL    H1320973   2.049   4.665   1.552  0.0535  0.0968 -0.2484
   81MOL    H1420974   2.218   4.510   1.573  1.3353 -1.0919  0.3575
   81MOL    C1520975   2.157   4.849   1.540  0.0565 -0.3494  0.9950
   81MOL    C1620976   2.104   4.870   1.399  0.1510  0.0017 -0.2200
   81MOL    C1720977   2.080   4.990   1.335  0.1252  0.2780 -0.7437
   81MOL    C1820978   2.007   4.986   1.198 -0.0607  1.3613 -0.1014
   81MOL    C1920979   2.114   5.123   1.396  0.2590  0.2195  0.7713
   81MOL    H2020980   2.256   4.805   1.527 -0.2434 -0.9519  0.7521
   81MOL    H2120981   2.165   4.949   1.583 -2.5432  0.5089 -0.4319
   81MOL    H2220982   2.083   4.772   1.359 -0.3093  0.4460 -1.0674
   81MOL    H2320983   2.071   5.049   1.136  0.8489 -0.1746 -0.7403
   81MOL    H2420984   1.906   5.027   1.197  0.4010  2.5388  0.2851
   81MOL    H2520985   2.005   4.884   1.159  1.6946  1.3290 -0.1515
   81MOL    H2620986   2.168   5.182   1.321 -0.0441 -0.2704  0.1605
   81MOL    H2720987   2.202   5.109   1.458  1.1546 -0.2640 -0.5647
   81MOL    C2820988   2.000   5.211   1.461 -0.6895 -0.1795  0.3381
   81MOL    C2920989   1.952   5.153   1.589  0.7974  0.3203 -0.5116
   81MOL    C3020990   1.913   5.221   1.700  0.2080  0.3162 -0.1855
   81MOL    C3120991   1.860   5.157   1.832 -0.1749  0.6775  0.1222
   81MOL    C3220992   1.920   5.367   1.702 -0.0711 -0.0121 -0.1312
   81MOL    H3320993   1.912   5.200   1.397 -1.6066  0.4903  1.4731
   81MOL    H3420994   2.032   5.314   1.479  1.0649 -0.6835  0.2179
   81MOL    H3520995   1.938   5.046   1.586 -2.3196  0.6729 -0.3563
   81MOL    H3620996   1.906   5.177   1.928  0.0304  1.1268 -0.0689
   81MOL    H3720997   1.855   5.049   1.817  0.1462  0.6466  0.2324
   81MOL    H3820998   1.756   5.188   1.840 -1.7755 -4.2983  0.7133
   81MOL    H3920999   2.009   5.409   1.656 -0.4874  1.9292  0.7707
   81MOL    H4021000   1.927   5.407   1.803 -1.0739 -1.8154  0.6776
   81MOL    C4121001   1.795   5.441   1.651 -0.4888 -0.8789  0.2592
   81MOL    C4221002   1.787   5.443   1.497 -0.0946 -0.7881 -0.5286
   81MOL    C4321003   1.688   5.401   1.417  0.2646 -0.2617 -0.3835
   81MOL    C4421004   1.678   5.421   1.267 -0.8534 -0.0612 -0.4502
   81MOL    C4521005   1.561   5.329   1.471 -0.3972  0.1417  0.7796
   81MOL    H4621006   1.809   5.545   1.681  0.3723 -0.5139 -1.3455
   81MOL    H4721007   1.705   5.397   1.695 -1.0413 -0.1603 -0.1593
   81MOL    H4821008   1.873   5.482   1.445  1.0033 -1.1723  0.9594
   81MOL    H4921009   1.642   5.334   1.213 -1.6760  0.1217 -0.2089
   81MOL    H5021010   1.777   5.443   1.229  0.0132 -1.1013  1.1193
   81MOL    H5121011   1.622   5.510   1.239  0.9933  0.4781 -2.5453
   81MOL    H5221012   1.600   5.267   1.551  1.2998 -0.1720 -0.2679
   81MOL    H5321013   1.513   5.272   1.391  1.7887  0.1474 -0.5897
   81MOL    C5421014   1.454   5.429   1.523  0.0948  1.0819 -0.1509
   81MOL    C5521015   1.330   5.367   1.584 -0.3787 -0.8528  0.5419
   81MOL    C5621016   1.202   5.412   1.576  0.7589 -0.0883  0.3585
   81MOL    C5721017   1.094   5.340   1.649  0.6467  0.6602  0.3092
   81MOL    C5821018   1.162   5.537   1.498  0.7242 -0.6052  0.0162
   81MOL    H5921019   1.427   5.491   1.437 -1.6417 -1.0136 -1.1727
   81MOL    H6021020   1.502   5.486   1.602 -0.8648  0.6176  0.7909
   81MOL    H6121021   1.347   5.279   1.644  1.8145  1.9190  4.2222
   81MOL    H6221022   1.012   5.305   1.585  0.8996  0.9764 -0.1885
   81MOL    H6321023   1.053   5.392   1.736 -0.6676  0.6890 -0.3080
   81MOL    H6421024   1.130   5.246   1.690 -1.4077  0.7416  2.4184
   81MOL    H6521025   1.226   5.568   1.416  0.4054  0.2299  0.0759
   81MOL    H6621026   1.168   5.614   1.575 -1.7583 -3.7156  3.5140
   81MOL    C6721027   1.024   5.528   1.434 -0.1765 -0.5472  0.2573
   81MOL    C6821028   0.989   5.641   1.341 -0.4857 -0.3580 -0.0451
   81MOL    C6921029   1.004   5.665   1.206  0.7135  0.7381  0.7626
   81MOL    C7021030   0.971   5.793   1.129 -0.0225 -0.6827  0.3403
   81MOL    C7121031   1.056   5.558   1.112  0.3272  0.5101 -0.0086
   81MOL    H7221032   0.944   5.527   1.508 -0.2346 -0.5466  0.1947
   81MOL    H7321033   1.004   5.431   1.388 -1.2835  0.8913 -2.4162
   81MOL    H7421034   0.955   5.728   1.397  2.0151 -0.1845  1.2870
   81MOL    H7521035   1.059   5.839   1.084  0.2414  1.8012  3.2594
   81MOL    H7621036   0.911   5.861   1.190  1.7719  1.4251 -0.1959
   81MOL    H7721037   0.907   5.767   1.044 -0.5773 -0.3042  0.6348
   81MOL    H7821038   0.990   5.532   1.029  2.0878 -0.0716 -1.2797
   81MOL    H7921039   1.064   5.470   1.176  2.1454  1.5120  1.1874
   81MOL    C8021040   1.204   5.581   1.067  0.2264 -0.2476 -0.1530
   81MOL    C8121041   1.268   5.449   1.023 -0.0007 -0.5764  0.4264
   81MOL    C8221042   1.396   5.432   0.985  0.4837 -0.0337 -0.1978
   81MOL    C8321043   1.493   5.555   0.979  0.4918 -0.1443  0.0161
   81MOL    C8421044   1.460   5.297   0.961 -0.1486  0.0661  0.4368
   81MOL    H8521045   1.257   5.621   1.153  0.1296  0.6886 -0.5217
   81MOL    H8621046   1.209   5.655   0.987  0.9139  0.1930  0.2923
   81MOL    H8721047   1.203   5.364   1.037 -0.2430 -0.2410  1.4002
   81MOL    H8821048   1.530   5.571   0.877 -0.7450 -1.4916 -0.6505
   81MOL    H8921049   1.574   5.563   1.052  0.9049  2.4340 -0.6558
   81MOL    H9021050   1.437   5.647   0.996  1.6529  0.2797  1.6818
   81MOL    H9121051   1.397   5.217   1.000 -0.5466 -0.2521 -0.8676
   81MOL    H9221052   1.555   5.293   1.015  1.1120  0.5871 -1.6904
   81MOL    C9321053   1.497   5.269   0.812  0.8467  0.2834 -0.9896
   81MOL    C9421054   1.578   5.140   0.789  0.1640 -0.4154 -0.5103
   81MOL    C9521055   1.710   5.127   0.782  0.2279 -0.0283 -0.1337
   81MOL    C9621056   1.766   4.985   0.764  0.3410  0.0260  0.2974
   81MOL    C9721057   1.809   5.238   0.797 -0.2502  0.0730  0.4688
   81MOL    H9821058   1.563   5.345   0.770  1.0590 -0.7034 -2.4929
   81MOL    H9921059   1.410   5.265   0.746  2.1077 -2.2560 -2.6167
   81MOL   H10021060   1.516   5.051   0.781 -0.3544 -0.0650 -0.4405
   81MOL   H10121061   1.688   4.912   0.742 -0.9305  1.1551  0.9984
   81MOL   H10221062   1.831   4.971   0.678 -0.0534  2.2635 -0.3896
   81MOL   H10321063   1.828   4.953   0.848  0.3197  0.5202  0.4996
   81MOL   H10421064   1.764   5.332   0.765 -0.0497  0.0316  0.0662
   81MOL   H10521065   1.893   5.228   0.728  0.5245  1.8528  1.1232
   81MOL   C10621066   1.870   5.255   0.935  1.3669  0.1168 -0.1579
   81MOL   C10721067   1.993   5.342   0.940 -0.3850  0.6100  0.0723
   81MOL   C10821068   2.120   5.301   0.941 -0.4014  0.6294  0.1512
   81MOL   C10921069   2.170   5.154   0.906 -0.4720  0.6155  0.5238
   81MOL   C11021070   2.235   5.397   0.958  0.0071 -0.5109  0.0381
   81MOL   H11121071   1.893   5.153   0.966 -1.9339  0.5602  4.0984
   81MOL   H11221072   1.802   5.284   1.015 -0.8563 -4.4110 -0.2342
   81MOL   H11321073   1.968   5.443   0.967 -0.5848  0.1785  1.5212
   81MOL   H11421074   2.085   5.085   0.903  0.0304  0.0705 -1.1417
   81MOL   H11521075   2.224   5.146   0.813 -1.4726 -2.1850  0.1372
   81MOL   H11621076   2.231   5.106   0.983 -0.0644 -1.1531 -0.8846
   81MOL   H11721077   2.205   5.492   0.913  1.0456 -0.6943 -1.0766
   81MOL   H11821078   2.316   5.359   0.897  0.0769 -1.9998  1.0424
   81MOL   C11921079   2.282   5.409   1.106 -0.3615 -0.3424 -0.0164
   81MOL   C12021080   2.404   5.491   1.122 -0.0153  0.4256 -0.2620
   81MOL   C12121081   2.512   5.473   1.202 -0.3820  0.4085 -0.1076
   81MOL   C12221082   2.634   5.559   1.196 -0.1292  1.0613  0.3706
   81MOL   C12321083   2.532   5.348   1.290 -0.4946 -0.2358 -0.4825
   81MOL   H12421084   2.288   5.308   1.146 -0.2427  0.5136  2.2072
   81MOL   H12521085   2.197   5.460   1.152 -0.2644 -0.8111  0.6877
   81MOL   H12621086   2.405   5.585   1.070 -0.2131 -0.1293 -1.2793
   81MOL   H12721087   2.692   5.567   1.288 -0.5732 -1.9385  0.9742
   81MOL   H12821088   2.607   5.663   1.177 -3.3874  0.3642  0.8332
   81MOL   H12921089   2.713   5.512   1.138 -1.6313 -2.5376  1.0800
   81MOL   H13021090   2.438   5.301   1.319 -0.6206  0.5210  0.3742
   81MOL   H13121091   2.573   5.391   1.381 -0.0201  0.1728 -0.8860
   81MOL   C13221092   2.620   5.235   1.230  0.0323  0.8158  0.3809
   81MOL   C13321093   2.585   5.200   1.086  0.1823 -0.3891 -0.4115
   81MOL   C13421094   2.664   5.194   0.977  0.0488  0.1612 -0.6161
   81MOL   C13521095   2.605   5.167   0.842 -0.4062  0.1187 -0.2643
   81MOL   C13621096   2.818   5.189   0.992  0.0581  0.1779  0.0091
   81MOL   H13721097   2.607   5.141   1.284 -2.0914  1.4895  1.0868
   81MOL   H13821098   2.719   5.274   1.252  0.4602  0.8196 -1.4892
   81MOL   H13921099   2.480   5.181   1.075  0.0759 -0.1596  0.1443
   81MOL   H14021100   2.498   5.187   0.847 -0.4068  0.3323 -0.9988
   81MOL   H14121101   2.629   5.065   0.811  1.0982 -0.2661  2.0584
   81MOL   H14221102   2.645   5.234   0.765  2.1784 -0.7245  0.3085
   81MOL   H14321103   2.866   5.097   0.960 -0.6966 -0.2802  0.1880
   81MOL   H14421104   2.838   5.189   1.099  1.2918  2.0961 -0.1849
   81MOL   C14521105   2.882   5.308   0.914 -0.2309  0.2100 -0.5378
   81MOL   C14621106   3.030   5.328   0.946 -0.3123  0.5071  0.8155
   81MOL   C14721107   3.090   5.441   1.000  0.1285 -0.0024 -0.2260
   81MOL   C14821108   3.240   5.452   1.026 -0.6686 -0.0266  0.1006
   81MOL   C14921109   3.014   5.563   1.043  0.3091 -0.3537 -0.5829
   81MOL   H15021110   2.821   5.398   0.909  0.0469  0.2840 -3.1230
   81MOL   H15121111   2.886   5.269   0.812  1.0186 -1.3428  0.0945
   81MOL   H15221112   3.094   5.241   0.932 -1.6560 -0.4438  0.4706
   81MOL   H15321113   3.265   5.375   1.100  2.9867  0.7712 -0.2001
   81MOL   H15421114   3.275   5.547   1.065  0.2674 -0.8163  1.2393
   81MOL   H15521115   3.302   5.434   0.938 -1.3183 -2.9603  0.1720
   81MOL   H15621116   2.909   5.566   1.013  0.1279  0.0758  0.0784
   81MOL   H15721117   3.052   5.656   1.001 -1.3903  2.5472  3.9419
   81MOL   C15821118   3.011   5.591   1.193  0.3496  0.0621 -0.2091
   81MOL   C15921119   2.936   5.725   1.231  0.2489  0.4165  0.2013
   81MOL   C16021120   2.979   5.818   1.319  0.4739  0.6574 -0.4004
   81MOL   C16121121   3.117   5.832   1.396  0.2187 -0.0575 -0.4680
   81MOL   C16221122   2.893   5.934   1.358 -0.0344 -0.5857  0.5510
   81MOL   H16321123   3.113   5.602   1.229 -0.1669 -1.2569  1.6969
   81MOL   H16421124   2.966   5.509   1.249  0.2533  1.2780  1.5269
   81MOL   H16521125   2.838   5.745   1.190 -0.2854  2.2247  2.2355
   81MOL   H16621126   3.172   5.739   1.404 -0.0548 -0.0897  1.0196
   81MOL   H16721127   3.098   5.866   1.497  0.3409 -2.0269  0.2188
   81MOL   H16821128   3.179   5.909   1.348  0.8532 -0.1615  0.1873
   81MOL   H16921129   2.846   5.977   1.269  2.8194 -1.4595 -1.4496
   81MOL   H17021130   2.958   6.016   1.388  1.1566 -1.1054 -0.5856
   81MOL   C17121131   2.789   5.909   1.461 -0.7752 -0.5394 -0.6636
   81MOL   C17221132   2.708   6.033   1.489 -0.1994  0.3727 -0.3398
   81MOL   C17321133   2.594   6.051   1.562  0.0849 -0.3044 -0.2811
   81MOL   C17421134   2.527   5.938   1.643 -0.2867 -1.0320  0.3756
   81MOL   C17521135   2.513   6.179   1.571 -0.3554  0.3805 -0.7065
   81MOL   H17621136   2.836   5.856   1.544 -1.9415 -1.8369 -0.8052
   81MOL   H17721137   2.726   5.823   1.435 -0.3964 -0.9040 -0.3856
   81MOL   H17821138   2.744   6.110   1.423 -1.6820  0.6092 -0.8985
   81MOL   H17921139   2.579   5.842   1.644  1.4865 -0.0766 -0.0666
   81MOL   H18021140   2.428   5.910   1.607 -0.4700  2.1713 -1.7953
   81MOL   H18121141   2.513   5.986   1.740  0.4054 -0.9293  0.4205
   81MOL   H18221142   2.411   6.158   1.540  0.1029 -1.3450 -1.1055
   81MOL   H18321143   2.557   6.254   1.505  1.9400 -0.0004  0.3264
   81MOL   C18421144   2.499   6.236   1.706  0.2042 -0.2850 -0.4448
   81MOL   C18521145   2.430   6.372   1.708  0.6710 -0.1156  0.5605
   81MOL   C18621146   2.468   6.499   1.733  0.8288  0.0188 -0.1493
   81MOL   C18721147   2.380   6.617   1.695 -0.1428  1.1105  0.2907
   81MOL   C18821148   2.604   6.532   1.787 -0.0255  0.8680  0.0010
   81MOL   H18921149   2.601   6.231   1.744  0.3608 -2.9979 -1.1192
   81MOL   H19021150   2.441   6.184   1.783 -0.4004  1.4855  0.3256
   81MOL   H19121151   2.332   6.367   1.663  0.2725  0.1023  1.3898
   81MOL   H19221152   2.354   6.684   1.777 -2.2290  1.1526 -0.3957
   81MOL   H19321153   2.281   6.598   1.655  1.0986 -4.1023 -0.6166
   81MOL   H19421154   2.440   6.678   1.628  2.5664 -0.3844  1.2308
   81MOL   H19521155   2.634   6.438   1.833  2.2362  0.9867 -1.1638
   81MOL   H19621156   2.594   6.600   1.872  1.9806  2.1893 -0.7721
   81MOL   C19721157   2.700   6.576   1.678  0.4598  0.1776  0.0838
   81MOL   C19821158   2.784   6.456   1.621  0.2426  0.4369  0.5617
   81MOL   C19921159   2.911   6.456   1.596  0.7784 -0.7043  0.6206
   81MOL   C20021160   2.964   6.348   1.507  0.7354 -0.4519  0.2378
   81MOL   C20121161   3.017   6.555   1.632 -0.1620 -0.2371  0.0410
   81MOL   H20221162   2.767   6.650   1.722  0.3483 -0.6035  1.5961
   81MOL   H20321163   2.646   6.618   1.593 -0.4718 -0.8378  0.1593
   81MOL   H20421164   2.717   6.382   1.578  2.0056  0.1379 -1.7487
   81MOL   H20521165   3.030   6.279   1.561 -0.0078 -1.0101  0.4499
   81MOL   H20621166   3.008   6.391   1.417 -1.3837  0.4447 -0.4027
   81MOL   H20721167   2.879   6.285   1.482 -0.4284  1.0647  0.3059
   81MOL   H20821168   3.113   6.506   1.646  0.4590  0.2094 -2.5178
   81MOL   H20921169   2.992   6.596   1.730  1.2918  0.6259  0.0582
   81MOL   C21021170   3.028   6.670   1.532  0.5823 -0.6175  0.5510
   81MOL   C21121171   3.158   6.748   1.542  0.1901  0.2789 -0.4004
   81MOL   C21221172   3.255   6.758   1.445  0.6140  0.8648  0.0820
   81MOL   C21321173   3.394   6.818   1.486  0.2310 -0.6526 -0.3056
   81MOL   C21421174   3.251   6.707   1.299  0.2262  0.1264  0.5106
   81MOL   H21521175   2.950   6.745   1.549  1.1336  0.5918 -2.0046
   81MOL   H21621176   3.013   6.623   1.435 -2.8393  1.7062 -0.1433
   81MOL   H21721177   3.175   6.784   1.643  1.8524  3.1372 -1.6264
   81MOL   H21821178   3.387   6.844   1.592 -0.1419 -2.4120  0.1188
   81MOL   H21921179   3.418   6.903   1.423  1.6893  0.1162  1.2385
   81MOL   H22021180   3.480   6.752   1.484  1.6761  1.2046 -1.4132
   81MOL   H22121181   3.257   6.791   1.230 -1.2703 -1.7297 -1.9750
   81MOL   H22221182   3.150   6.671   1.279  0.4021 -0.4974  0.7471
   81MOL   C22321183   3.343   6.584   1.275  0.7530 -0.2266  0.3692
   81MOL   C22421184   3.296   6.449   1.333 -0.2631 -0.7507  0.0138
   81MOL   C22521185   3.346   6.330   1.312 -0.0877 -0.2368  0.6826
   81MOL   C22621186   3.289   6.200   1.372  0.0702 -0.5548 -0.0093
   81MOL   C22721187   3.465   6.304   1.221  0.0251  0.1549  0.6706
   81MOL   H22821188   3.445   6.596   1.313  1.0650 -2.1356  0.1955
   81MOL   H22921189   3.366   6.582   1.169 -1.2144  0.7087 -0.0939
   81MOL   H23021190   3.208   6.465   1.393  0.9770  1.5763  1.2832
   81MOL   H23121191   3.213   6.226   1.446 -1.9010  0.1402 -2.2143
   81MOL   H23221192   3.357   6.143   1.435 -0.1080 -0.7894 -0.0271
   81MOL   H23321193   3.249   6.126   1.303  1.5416 -3.5501  2.2219
   81MOL   H23421194   3.467   6.384   1.147 -0.9217  0.7911  1.3215
   81MOL   H23521195   3.447   6.208   1.172  2.2842  0.5937 -1.1161
   81MOL   C23621196   3.600   6.292   1.298 -0.0867  0.5112 -0.0087
   81MOL   C23721197   3.717   6.249   1.212 -0.6540 -0.5474  1.0882
   81MOL   C23821198   3.833   6.195   1.254 -0.0794  0.0685  0.8237
   81MOL   C23921199   3.931   6.131   1.155  0.0249 -0.4646 -0.1295
   81MOL   C24021200   3.876   6.189   1.403 -0.1652  0.1019 -0.2669
   81MOL   H24121201   3.586   6.216   1.374 -0.9786  0.1148 -0.5586
   81MOL   H24221202   3.621   6.390   1.340 -0.8624  0.6754  0.0001
   81MOL   H24321203   3.696   6.261   1.107 -2.5437  0.0256  1.5086
   81MOL   H24421204   4.034   6.133   1.190  0.0545  0.0328 -0.2330
   81MOL   H24521205   3.940   6.179   1.057 -0.1355 -0.7107 -0.2663
   81MOL   H24621206   3.900   6.028   1.140 -2.0348 -0.1629  1.7972
   81MOL   H24721207   3.796   6.233   1.463 -0.2071  0.7171 -0.7704
   81MOL   H24821208   3.966   6.246   1.425  0.4205 -0.9293  0.0316
   81MOL   C24921209   3.889   6.039   1.438 -0.3277 -0.3811  0.5636
   81MOL   C25021210   3.783   5.946   1.393 -0.5252  0.1814  0.3540
   81MOL   C25121211   3.677   5.903   1.469  0.1449 -0.6907  0.2338
   81MOL   C25221212   3.574   5.813   1.405 -0.2439 -0.8511 -0.0045
   81MOL   C25321213   3.656   5.950   1.608  0.3388 -0.5382 -0.3836
   81MOL   H25421214   3.911   6.027   1.545  1.8802  1.8357  0.4126
   81MOL   H25521215   3.984   6.008   1.395  0.8218 -0.3224  2.9279
   81MOL   H25621216   3.781   5.911   1.291  0.5480 -0.8503  0.6809
   81MOL   H25721217   3.613   5.750   1.326 -1.3630 -2.0843  0.4017
   81MOL   H25821218   3.495   5.873   1.359  0.5695  1.4929  1.5367
   81MOL   H25921219   3.534   5.747   1.482  0.8320  0.0091  1.3280
   81MOL   H26021220   3.724   5.907   1.681 -0.2962 -0.6818  0.1205
   81MOL   H26121221   3.553   5.935   1.640  0.0768  1.8934  0.0707
   81MOL   H26221222   3.665   6.059   1.615  1.4667 -0.5611 -1.2589
   82MOL     C121223   7.188   7.059   2.378 -0.1000 -0.2026 -0.2378
   82MOL     C221224   7.243   6.965   2.266 -0.2326  0.2447 -0.4027
   82MOL     C321225   7.207   6.967   2.138  0.4545  0.5055  0.1097
   82MOL     C421226   7.263   6.872   2.028  0.0439 -0.0380 -0.4200
   82MOL     C521227   7.116   7.069   2.075 -0.1692  0.0429 -0.3675
   82MOL     H621228   7.274   7.069   2.444  0.2153  0.7752 -0.7828
   82MOL     H721229   7.170   7.149   2.319 -3.0056 -0.1591  0.6187
   82MOL     H821230   7.305   6.881   2.294  0.2760  0.8265  0.2342
   82MOL     H921231   7.180   6.805   2.007  0.1547 -0.5792  0.8142
   82MOL    H1021232   7.335   6.802   2.070 -2.9234 -2.5226  0.6566
   82MOL    H1121233   7.316   6.911   1.941  2.1381 -2.5424 -0.3255
   82MOL    H1221234   7.166   7.089   1.980 -2.4369 -0.1086 -1.6250
   82MOL    H1321235   7.116   7.167   2.123  1.6557  0.5950 -1.4523
   82MOL    H1421236   7.106   7.026   2.441  0.4370  1.9319  1.6339
   82MOL    C1521237   6.967   7.017   2.063  0.3191 -0.3132 -0.5748
   82MOL    C1621238   6.875   7.128   1.993 -0.4806 -0.5116 -0.6768
   82MOL    C1721239   6.759   7.185   2.041 -0.2069 -0.4726 -0.2783
   82MOL    C1821240   6.679   7.284   1.954 -0.1618  0.4397 -0.0322
   82MOL    C1921241   6.700   7.152   2.180 -0.4143  0.4390 -0.4188
   82MOL    H2021242   6.918   6.985   2.155  0.6319 -0.3087 -0.4089
   82MOL    H2121243   6.950   6.936   1.992 -1.0698  0.4236 -1.1225
   82MOL    H2221244   6.915   7.161   1.899  1.6230 -1.0163  0.0034
   82MOL    H2321245   6.667   7.375   2.013  0.2901  1.8366 -2.0307
   82MOL    H2421246   6.578   7.245   1.943 -0.0511 -0.1526  0.9492
   82MOL    H2521247   6.737   7.305   1.864  0.7734 -0.4938  0.3294
   82MOL    H2621248   6.728   7.053   2.217 -1.9823 -0.2897 -1.1074
   82MOL    H2721249   6.593   7.137   2.162 -0.3643  0.6398 -0.8912
   82MOL    C2821250   6.714   7.261   2.287 -0.1477 -0.2828  0.2907
   82MOL    C2921251   6.847   7.272   2.346 -0.0466  0.3782 -0.4617
   82MOL    C3021252   6.869   7.297   2.479 -0.0286 -0.3156 -0.1878
   82MOL    C3121253   7.011   7.311   2.531  0.3646  0.2087  0.2726
   82MOL    C3221254   6.766   7.317   2.584  0.6328 -0.1122  0.0911
   82MOL    H3321255   6.646   7.241   2.370  1.1300 -3.0393  0.7331
   82MOL    H3421256   6.683   7.361   2.256  0.2417 -0.3233 -0.2247
   82MOL    H3521257   6.936   7.260   2.286  1.7544  0.0872  2.1864
   82MOL    H3621258   7.004   7.403   2.590 -3.7598 -0.3758  0.8237
   82MOL    H3721259   7.079   7.318   2.446 -1.2284  0.1224 -1.0273
   82MOL    H3821260   7.041   7.232   2.600  0.2270  1.0291  1.2823
   82MOL    H3921261   6.807   7.297   2.683  0.8748 -0.9580 -0.1700
   82MOL    H4021262   6.689   7.239   2.576  0.0261  0.5144 -0.2063
   82MOL    C4121263   6.711   7.459   2.588 -0.6725 -0.2178  0.0382
   82MOL    C4221264   6.643   7.487   2.721  0.8349  0.0693  0.2949
   82MOL    C4321265   6.624   7.611   2.768  0.4161 -0.3009 -0.0363
   82MOL    C4421266   6.554   7.635   2.895 -0.0608 -0.8658 -0.7329
   82MOL    C4521267   6.649   7.739   2.688 -0.4453 -0.7077  0.0016
   82MOL    H4621268   6.653   7.485   2.499  1.6406 -1.0361 -1.7744
   82MOL    H4721269   6.797   7.520   2.563  0.3155 -1.6124 -0.0410
   82MOL    H4821270   6.618   7.401   2.782 -4.4024  0.5941 -0.8673
   82MOL    H4921271   6.468   7.699   2.876  0.7599  0.2905 -0.5726
   82MOL    H5021272   6.617   7.681   2.971 -0.3174 -0.6954 -0.6249
   82MOL    H5121273   6.518   7.545   2.945 -1.4991  0.3323  0.4267
   82MOL    H5221274   6.562   7.804   2.701  1.7390  2.6969 -1.7034
   82MOL    H5321275   6.668   7.712   2.584  2.1121 -0.7605  0.4490
   82MOL    C5421276   6.772   7.809   2.739  0.0810  0.1749 -0.7173
   82MOL    C5521277   6.811   0.040   2.642  0.0119  0.3965 -0.4240
   82MOL    C5621278   6.935   0.064   2.593 -0.6862  0.7056 -0.8144
   82MOL    C5721279   6.964   0.176   2.499  0.4009 -0.4700  0.6353
   82MOL    C5821280   7.061   7.867   2.642  0.9371 -0.4994 -0.3555
   82MOL    H5921281   6.858   7.744   2.752 -0.0939  0.3460  1.4002
   82MOL    H6021282   6.747   7.844   2.839 -1.6233 -0.6057 -0.8451
   82MOL    H6121283   6.732   0.106   2.611 -0.0159  0.2863 -0.5889
   82MOL    H6221284   6.866   0.222   2.484  0.7099 -0.6077 -1.8932
   82MOL    H6321285   7.009   0.138   2.408 -0.2447 -1.0969  0.5809
   82MOL    H6421286   7.039   0.247   2.533 -0.0547  0.2993  0.0528
   82MOL    H6521287   7.130   7.868   2.557  1.1506 -1.0761 -0.1916
   82MOL    H6621288   7.042   7.760   2.652  1.4059 -0.4665  1.0939
   82MOL    C6721289   7.123   0.067   2.762  0.0188  0.2102  0.3244
   82MOL    C6821290   7.248   7.873   2.809 -0.2883  0.4407 -0.4633
   82MOL    C6921291   7.374   0.043   2.829 -0.4715 -0.2984  0.0240
   82MOL    C7021292   7.491   7.844   2.886  0.6288  0.6729  0.1252
   82MOL    C7121293   7.409   0.191   2.804 -0.1937 -0.3816  0.1088
   82MOL    H7221294   7.050   0.060   2.842 -0.0562 -1.1338  0.1479
   82MOL    H7321295   7.126   0.175   2.751  4.1109  0.4037  2.3262
   82MOL    H7421296   7.232   7.772   2.845 -0.5514  0.7680  0.3282
   82MOL    H7521297   7.557   7.828   2.800  1.8141  1.4187  0.8741
   82MOL    H7621298   7.463   7.753   2.938  1.9475  0.7679  1.0352
   82MOL    H7721299   7.546   0.032   2.953  0.2901  0.3618  0.7177
   82MOL    H7821300   7.342   0.218   2.722 -0.3588 -0.1963  0.3035
   82MOL    H7921301   7.510   0.206   2.766 -0.4597 -0.6072 -0.7064
   82MOL    C8021302   7.384   0.270   2.932  0.1555  0.0254  0.0052
   82MOL    C8121303   7.440   0.405   2.900  0.3068  0.7547 -0.3652
   82MOL    C8221304   7.553   0.458   2.949 -0.6422  0.3172  0.4165
   82MOL    C8321305   7.646   0.399   3.056  0.0242 -0.1498 -1.0301
   82MOL    C8421306   7.601   0.584   2.891  0.1209 -0.2054 -0.6185
   82MOL    H8521307   7.426   0.225   3.023 -0.4170 -0.5280  0.0005
   82MOL    H8621308   7.277   0.273   2.953 -0.2876 -3.2114 -1.4462
   82MOL    H8721309   7.392   0.461   2.821 -0.8483  1.6362  0.9489
   82MOL    H8821310   7.629   0.456   3.148 -2.4912 -1.1367 -0.8357
   82MOL    H8921311   7.749   0.409   3.022  0.3765  2.0973  0.5305
   82MOL    H9021312   7.633   0.295   3.083 -0.6113  0.2375  0.1917
   82MOL    H9121313   7.657   0.641   2.965 -0.9407  0.9755 -0.7044
   82MOL    H9221314   7.518   0.650   2.865 -1.3203 -1.8736 -0.3839
   82MOL    C9321315   7.692   0.558   2.766 -0.2196  0.7509  0.8665
   82MOL    C9421316   7.747   0.671   2.678 -0.1955  0.6112 -0.2830
   82MOL    C9521317   7.861   0.663   2.608 -0.0835  0.2334  0.1315
   82MOL    C9621318   0.037   0.789   2.541 -0.2692  0.1438 -0.3009
   82MOL    C9721319   0.073   0.543   2.610 -0.5165 -0.2866  0.7117
   82MOL    H9821320   7.627   0.489   2.713 -1.1283  1.0644  1.5769
   82MOL    H9921321   7.784   0.513   2.804 -1.1659 -1.0029  1.1219
   82MOL   H10021322   7.687   0.761   2.671  1.6637  1.8253 -0.7834
   82MOL   H10121323   0.113   0.841   2.599 -0.5531  0.4613 -0.2140
   82MOL   H10221324   0.073   0.775   2.439  1.5470  2.8973 -0.0703
   82MOL   H10321325   7.836   0.863   2.531 -0.8221 -0.4070  0.0156
   82MOL   H10421326   0.091   0.510   2.508  0.9983 -0.1534  0.9219
   82MOL   H10521327   0.045   0.449   2.658 -0.7707 -1.1756 -1.1564
   82MOL   C10621328   0.203   0.566   2.690 -0.0846  0.4530 -0.3976
   82MOL   C10721329   0.291   0.437   2.695 -0.4591 -0.1951  0.0133
   82MOL   C10821330   0.351   0.380   2.801  0.3414  0.4074 -0.0905
   82MOL   C10921331   0.334   0.425   2.949  0.1301 -0.2371 -0.5368
   82MOL   C11021332   0.427   0.246   2.788 -0.6211  1.4348 -0.5813
   82MOL   H11121333   0.168   0.582   2.792 -0.7575 -0.8520 -0.4079
   82MOL   H11221334   0.263   0.642   2.640 -0.0004  1.6848  1.5181
   82MOL   H11321335   0.295   0.395   2.596 -3.7571  1.0900 -0.7369
   82MOL   H11421336   0.284   0.346   3.005 -3.3308  1.7639 -0.5996
   82MOL   H11521337   0.432   0.429   2.995 -1.0047  2.4441  1.8320
   82MOL   H11621338   0.272   0.512   2.971  1.0128 -0.0304  1.2622
   82MOL   H11721339   0.374   0.171   2.728 -0.9301  1.6240 -0.5466
   82MOL   H11821340   0.438   0.198   2.885  1.9978  1.1081 -1.0152
   82MOL   C11921341   0.567   0.262   2.731  0.2328 -0.2367 -0.0835
   82MOL   C12021342   0.641   0.377   2.785  0.0456 -0.2558  0.0604
   82MOL   C12121343   0.711   0.376   2.901  0.0216  0.1024  0.2461
   82MOL   C12221344   0.801   0.498   2.951 -0.3531  0.1373 -0.0239
   82MOL   C12321345   0.736   0.245   2.983  0.2636 -0.0516  0.0046
   82MOL   H12421346   0.565   0.273   2.622 -0.0738  0.0983 -0.0467
   82MOL   H12521347   0.625   0.171   2.746  0.8716  0.3414  1.0326
   82MOL   H12621348   0.624   0.468   2.729  2.8956 -1.0043 -2.1619
   82MOL   H12721349   0.887   0.510   2.886 -2.7475  0.4990 -3.2971
   82MOL   H12821350   0.828   0.492   3.056 -2.0856 -2.5942  0.3351
   82MOL   H12921351   0.746   0.590   2.932 -1.0675 -0.7232 -2.3005
   82MOL   H13021352   0.660   0.169   2.968  1.4924 -1.1754 -0.5683
   82MOL   H13121353   0.717   0.273   3.087  0.5856  0.3906 -0.0531
   82MOL   C13221354   0.883   0.200   2.980  0.5055  0.4722  0.3816
   82MOL   C13321355   0.904   0.094   3.091  0.1141  0.0119 -0.0958
   82MOL   C13421356   0.964   7.853   3.083 -0.2845  0.4501  0.4343
   82MOL   C13521357   0.966   7.765   3.201  0.0767  0.2300  0.0239
   82MOL   C13621358   1.031   7.793   2.953  0.6563  0.2599  0.5125
   82MOL   H13721359   0.954   0.282   2.986 -0.0546  1.3531 -3.4696
   82MOL   H13821360   0.907   0.157   2.883 -2.3264 -0.3161 -0.0311
   82MOL   H13921361   0.860   0.116   3.187  1.1570  2.4576 -0.1500
   82MOL   H14021362   1.034   7.682   3.182  0.2184  0.4565 -0.4575
   82MOL   H14121363   0.870   7.741   3.246  0.6022 -1.7909  0.1447
   82MOL   H14221364   1.013   7.829   3.276 -0.9873  2.8757 -1.5070
   82MOL   H14321365   1.131   7.755   2.973  0.3640 -0.1991  1.1254
   82MOL   H14421366   1.053   7.870   2.879  0.6163 -0.4792 -0.2801
   82MOL   C14521367   0.939   7.694   2.876 -0.5288 -0.3725 -0.3833
   82MOL   C14621368   0.816   7.756   2.803  0.0428 -0.2459 -0.4389
   82MOL   C14721369   0.692   7.708   2.812 -0.4154  0.1301  0.1293
   82MOL   C14821370   0.578   7.777   2.729 -0.1522 -0.2849  0.1635
   82MOL   C14921371   0.645   7.591   2.899 -0.0631 -0.5294  0.2392
   82MOL   H15021372   0.905   7.611   2.937  0.8577  0.4687  1.5680
   82MOL   H15121373   1.003   7.652   2.798 -0.4243 -1.1104  0.1041
   82MOL   H15221374   0.842   7.841   2.740  2.4475  0.7778  1.8133
   82MOL   H15321375   0.524   7.835   2.804 -0.2199 -0.2645  0.0989
   82MOL   H15421376   0.515   7.700   2.684  0.4528 -0.2456 -0.7633
   82MOL   H15521377   0.622   7.839   2.651 -0.0325 -1.2126 -0.5136
   82MOL   H15621378   0.548   7.627   2.931 -0.2520  1.1403 -2.1241
   82MOL   H15721379   0.702   7.592   2.993  1.3882 -0.0538 -0.6327
   82MOL   C15821380   0.634   7.461   2.821  0.4452 -0.0911  0.2146
   82MOL   C15921381   0.763   7.418   2.747  1.4066  1.0122 -0.3093
   82MOL   C16021382   0.788   7.421   2.617 -0.0907 -0.6358  0.1486
   82MOL   C16121383   0.686   7.464   2.515  0.6301  0.6878  0.1577
   82MOL   C16221384   0.925   7.377   2.564  0.2375  0.7538 -0.1293
   82MOL   H16321385   0.563   7.463   2.739  2.0372  1.1488 -1.1915
   82MOL   H16421386   0.605   7.381   2.889  0.3147  0.7955  1.2251
   82MOL   H16521387   0.842   7.397   2.818  1.5230 -0.0184 -0.7325
   82MOL   H16621388   0.612   7.532   2.559 -2.7674 -1.3324 -2.1939
   82MOL   H16721389   0.622   7.386   2.475 -1.3693  2.5471 -0.4060
   82MOL   H16821390   0.729   7.493   2.419  3.0314 -0.1130  0.9706
   82MOL   H16921391   1.002   7.372   2.640 -0.7018  2.6413  0.9728
   82MOL   H17021392   0.968   7.452   2.498  0.8251  0.5724  0.0423
   82MOL   C17121393   0.914   7.244   2.477  0.3805 -0.1549  0.0233
   82MOL   C17221394   1.047   7.187   2.430 -0.3117  0.1017 -0.2751
   82MOL   C17321395   1.068   7.150   2.304 -0.1499  0.2916  0.2953
   82MOL   C17421396   0.967   7.158   2.194  0.2878  0.1470  0.5839
   82MOL   C17521397   1.202   7.104   2.252  0.8606  0.3307 -0.1749
   82MOL   H17621398   0.852   7.274   2.392  0.1855  1.5415  0.7312
   82MOL   H17721399   0.863   7.165   2.530 -1.5269  0.4523 -0.8863
   82MOL   H17821400   1.122   7.177   2.507  1.3348  0.6137 -1.7697
   82MOL   H17921401   0.870   7.128   2.232 -0.3982 -0.7545 -1.7539
   82MOL   H18021402   0.981   7.081   2.118 -1.5597 -0.6003  0.9770
   82MOL   H18121403   0.959   7.259   2.152 -1.1998  0.0796  0.6802
   82MOL   H18221404   1.278   7.122   2.328 -0.7983 -1.0051  1.8616
   82MOL   H18321405   1.231   7.164   2.165 -0.5938  1.5535  0.1687
   82MOL   C18421406   1.202   6.954   2.226  0.7892 -0.4896  0.1290
   82MOL   C18521407   1.346   6.918   2.211  0.2695  0.7796 -0.3236
   82MOL   C18621408   1.421   6.821   2.270  0.3046 -0.0798  0.0506
   82MOL   C18721409   1.566   6.805   2.237 -0.0962  0.4700 -0.7272
   82MOL   C18821410   1.370   6.710   2.359 -0.5881  0.5878 -0.3318
   82MOL   H18921411   1.153   6.920   2.134 -0.1928  0.1429  0.4139
   82MOL   H19021412   1.159   6.898   2.310  1.7103 -1.3663  0.0253
   82MOL   H19121413   1.401   6.977   2.139 -0.3781 -1.5979 -2.8700
   82MOL   H19221414   1.586   6.715   2.179  0.3862  0.4219 -0.4865
   82MOL   H19321415   1.627   6.809   2.327 -1.3553  1.3013  0.1175
   82MOL   H19421416   1.599   6.887   2.172  0.1073 -0.2805 -1.5776
   82MOL   H19521417   1.279   6.734   2.414 -0.3185 -1.6609  1.1887
   82MOL   H19621418   1.453   6.681   2.423 -0.2793  0.7019 -0.6838
   82MOL   C19721419   1.322   6.587   2.279 -0.3425 -0.0717  0.2704
   82MOL   C19821420   1.196   6.609   2.194  0.4846 -0.6008 -0.8617
   82MOL   C19921421   1.169   6.572   2.068  0.7720  0.2848  0.4497
   82MOL   C20021422   1.028   6.598   2.008  0.3297 -0.1117  0.3499
   82MOL   C20121423   1.259   6.488   1.979  0.4036  0.8283 -0.0963
   82MOL   H20221424   1.298   6.507   2.349  1.7860  1.0629  2.3404
   82MOL   H20321425   1.406   6.557   2.216 -0.0615  1.2192  0.0176
   82MOL   H20421426   1.112   6.653   2.247 -0.0966  0.4713 -2.6295
   82MOL   H20521427   0.972   6.505   2.000 -0.9956  0.6612  0.5831
   82MOL   H20621428   1.033   6.629   1.904  1.1305 -2.7117 -0.4028
   82MOL   H20721429   0.974   6.678   2.059  2.9652  0.8486  1.7651
   82MOL   H20821430   1.208   6.413   1.919  0.7351 -0.7224  1.4974
   82MOL   H20921431   1.334   6.432   2.036  1.2681  2.4434  0.4140
   82MOL   C21021432   1.340   6.575   1.884  0.2085  0.2273  0.5159
   82MOL   C21121433   1.425   6.480   1.800 -0.4018  0.4793 -0.3999
   82MOL   C21221434   1.542   6.509   1.737 -0.2502 -0.1032 -0.2917
   82MOL   C21321435   1.620   6.403   1.652  0.6051 -0.5608 -0.0328
   82MOL   C21421436   1.602   6.650   1.737  0.5627 -0.2819 -0.3525
   82MOL   H21521437   1.400   6.651   1.934  1.0004 -0.9189  1.3311
   82MOL   H21621438   1.255   6.610   1.826  0.5705  0.6615  0.2366
   82MOL   H21721439   1.382   6.382   1.786  1.1982 -0.3268  0.1673
   82MOL   H21821440   1.613   6.438   1.550 -0.6632 -0.7259 -0.0176
   82MOL   H21921441   1.585   6.300   1.667 -1.6053  0.1899  0.1998
   82MOL   H22021442   1.723   6.408   1.688  0.4398  2.0462  0.1282
   82MOL   H22121443   1.708   6.639   1.763  0.6331  1.8746  0.3369
   82MOL   H22221444   1.570   6.716   1.817  0.4738  1.1480 -1.5555
   82MOL   C22321445   1.581   6.734   1.604  0.3249  0.2017  0.3273
   82MOL   C22421446   1.647   6.866   1.624  0.0197  0.8200  0.2157
   82MOL   C22521447   1.699   6.947   1.528  0.1583  0.4769  0.6597
   82MOL   C22621448   1.759   7.077   1.561 -0.3432 -1.0757  0.0504
   82MOL   C22721449   1.729   6.898   1.382 -0.3799 -0.0422 -0.2042
   82MOL   H22821450   1.474   6.753   1.589  0.3786 -0.6464 -1.2178
   82MOL   H22921451   1.615   6.669   1.524  2.7076 -2.3806  3.3002
   82MOL   H23021452   1.642   6.912   1.721  1.2611 -2.8119  2.0749
   82MOL   H23121453   1.868   7.072   1.569 -0.3569 -0.6252  0.6283
   82MOL   H23221454   1.707   7.124   1.645 -0.1776  1.5076 -1.2315
   82MOL   H23321455   1.737   7.147   1.480  1.2916 -0.8000 -0.1680
   82MOL   H23421456   1.702   6.794   1.365  0.7796 -0.0217 -2.3201
   82MOL   H23521457   1.833   6.918   1.359  0.4889 -0.5728  3.0390
   82MOL   C23621458   1.635   6.966   1.280  0.4854 -0.0627  0.6587
   82MOL   C23721459   1.650   6.927   1.132  0.0362  0.0370  0.1507
   82MOL   C23821460   1.601   6.992   1.026 -0.3080  0.4284  0.2696
   82MOL   C23921461   1.626   6.936   0.879 -0.1312 -0.3887 -0.2050
   82MOL   C24021462   1.524   7.125   1.047  0.4782 -0.1150  0.2040
   82MOL   H24121463   1.659   7.072   1.279 -2.2160  0.5949  2.1984
   82MOL   H24221464   1.531   6.948   1.307  0.4374  1.6861  1.6779
   82MOL   H24321465   1.700   6.834   1.111  1.7644  1.1950 -0.9937
   82MOL   H24421466   1.680   6.841   0.878  1.0718  0.2826  0.5392
   82MOL   H24521467   1.683   7.009   0.823 -2.5427  1.4090 -0.4049
   82MOL   H24621468   1.530   6.937   0.826 -0.2943 -2.9849 -0.0497
   82MOL   H24721469   1.491   7.145   1.149  1.7417  1.8980  0.2461
   82MOL   H24821470   1.427   7.115   0.999  0.0358  0.3915  0.9785
   82MOL   C24921471   1.612   7.243   1.008  0.5365 -0.0692  0.7060
   82MOL   C25021472   1.535   7.369   0.965 -0.3442  0.0248  0.2112
   82MOL   C25121473   1.582   7.472   0.888  0.0810 -0.1461  0.3063
   82MOL   C25221474   1.495   7.585   0.860 -0.1068 -0.3472  0.1685
   82MOL   C25321475   1.721   7.474   0.838  0.1729  0.8552  0.6598
   82MOL   H25421476   1.681   7.216   0.928 -0.1634 -0.4205  0.2207
   82MOL   H25521477   1.674   7.265   1.096  1.5971 -1.5866  0.3691
   82MOL   H25621478   1.442   7.383   1.017  0.9348 -0.4442  2.7250
   82MOL   H25721479   1.408   7.570   0.924 -0.3880  0.9233  0.1014
   82MOL   H25821480   1.466   7.580   0.755 -1.7479 -2.4262  0.6740
   82MOL   H25921481   1.538   7.681   0.888  0.3180 -0.2423 -0.8457
   82MOL   H26021482   1.777   7.552   0.891  1.5636 -0.6036  1.3608
   82MOL   H26121483   1.728   7.499   0.732  2.8593  2.0558  1.0777
   82MOL   H26221484   1.772   7.378   0.834 -0.3237  0.6544 -2.3805
   83MOL     C121485   0.309   6.920   6.498  0.3624  0.2152 -0.7511
   83MOL     C221486   0.438   6.991   6.472  0.2480  0.4494  0.5570
   83MOL     C321487   0.543   7.004   6.556  0.1012  0.3088 -0.1451
   83MOL     C421488   0.666   7.092   6.522  0.0763  0.5122  0.1142
   83MOL     C521489   0.553   6.938   6.690 -0.3697  0.6404 -0.3581
   83MOL     H621490   0.241   6.984   6.442  2.8156 -0.3612 -4.6129
   83MOL     H721491   0.303   6.817   6.461  1.1999 -0.3822  0.7363
   83MOL     H821492   0.445   7.044   6.378 -0.0758  1.2615  0.9798
   83MOL     H921493   0.765   7.053   6.544  0.4589  1.6012  0.3596
   83MOL    H1021494   0.666   7.181   6.584 -1.2550  1.5576 -1.3369
   83MOL    H1121495   0.663   7.112   6.414 -0.8096 -2.1925 -0.4031
   83MOL    H1221496   0.651   6.891   6.697 -0.7496 -0.5644 -2.4929
   83MOL    H1321497   0.486   6.852   6.686  0.8711 -0.3963  0.8274
   83MOL    H1421498   0.274   6.919   6.601 -0.5607  1.0563 -1.0507
   83MOL    C1521499   0.543   7.035   6.814  0.3994 -0.2437 -0.5890
   83MOL    C1621500   0.522   6.970   6.949 -0.1095 -0.4172  0.7703
   83MOL    C1721501   0.587   7.005   7.060 -0.4315 -0.0490  1.0860
   83MOL    C1821502   0.568   6.932   7.189 -0.3145  0.6032  0.6410
   83MOL    C1921503   0.694   7.114   7.071 -0.0851  0.9462  0.6968
   83MOL    H2021504   0.460   7.104   6.797  0.8913  0.9746  1.7277
   83MOL    H2121505   0.635   7.094   6.814 -1.5128  2.8653 -0.4680
   83MOL    H2221506   0.452   6.889   6.957 -0.7555  0.1572  0.9145
   83MOL    H2321507   0.535   6.996   7.270 -0.7767  0.7276  0.3551
   83MOL    H2421508   0.662   6.900   7.236 -0.0514  1.2683  0.5706
   83MOL    H2521509   0.494   6.852   7.190  0.4586 -0.1216  1.8678
   83MOL    H2621510   0.687   7.159   7.169 -0.5377  2.3609  0.0252
   83MOL    H2721511   0.679   7.190   6.994  1.6741 -0.2604 -0.8890
   83MOL    C2821512   0.833   7.054   7.055  0.6209 -0.0820  0.0774
   83MOL    C2921513   0.934   7.160   7.026 -0.9153 -0.1760 -0.7344
   83MOL    C3021514   1.025   7.215   7.108  0.0294 -0.9096 -0.3346
   83MOL    C3121515   1.105   7.336   7.054 -0.2439 -0.0358  0.7504
   83MOL    C3221516   1.047   7.181   7.253  1.2046  0.3133 -0.8044
   83MOL    H3321517   0.829   6.982   6.973  2.1133 -3.1490  2.5800
   83MOL    H3421518   0.857   6.999   7.146 -0.5185  3.4619  2.5927
   83MOL    H3521519   0.924   7.203   6.928  2.2427  1.1768 -0.5201
   83MOL    H3621520   1.058   7.369   6.962  2.4458 -1.2895 -1.1435
   83MOL    H3721521   1.204   7.310   7.016  0.9007  1.5290  2.5594
   83MOL    H3821522   1.120   7.417   7.126  0.7130  0.5730 -0.1267
   83MOL    H3921523   0.987   7.097   7.286  2.2333  0.3007  1.0797
   83MOL    H4021524   1.000   7.263   7.306 -0.6652 -0.6045 -0.9875
   83MOL    C4121525   1.190   7.163   7.288  0.1856  0.4173  0.1921
   83MOL    C4221526   1.209   7.063   7.407 -0.1945 -0.2311  0.2810
   83MOL    C4321527   1.273   7.089   7.522 -0.8708 -0.4596  0.1918
   83MOL    C4421528   1.285   6.977   7.625 -0.5805  0.2811 -0.3270
   83MOL    C4521529   1.340   7.218   7.558  0.1123  0.5207 -0.7416
   83MOL    H4621530   1.229   7.263   7.306 -0.7619  0.9103 -0.4467
   83MOL    H4721531   1.242   7.124   7.201  2.4460  2.9276  0.3697
   83MOL    H4821532   1.174   6.962   7.392 -0.6169 -0.3481  1.9744
   83MOL    H4921533   1.391   6.966   7.649 -0.5175  1.9686  0.2317
   83MOL    H5021534   1.246   6.884   7.585 -1.4132  0.3701  0.2881
   83MOL    H5121535   1.219   6.995   7.709 -0.4414  2.3767 -0.6297
   83MOL    H5221536   1.308   7.239   7.660  0.7176  1.6695 -0.7775
   83MOL    H5321537   1.296   7.300   7.501 -1.1845  0.3158 -0.0317
   83MOL    C5421538   1.494   7.225   7.548  0.6180  0.0457 -0.6696
   83MOL    C5521539   1.560   7.336   7.623  0.1007 -0.1636  0.1723
   83MOL    C5621540   1.669   7.408   7.593  0.0741 -0.8048  0.1682
   83MOL    C5721541   1.733   7.509   7.689 -0.0394  0.2925 -0.2650
   83MOL    C5821542   1.757   7.379   7.474 -0.6839  0.4545  0.0623
   83MOL    H5921543   1.520   7.216   7.443 -2.4966  3.1323 -1.8036
   83MOL    H6021544   1.536   7.140   7.601 -1.8325 -0.9385 -0.2240
   83MOL    H6121545   1.513   7.362   7.717 -1.6349  0.3673 -0.8061
   83MOL    H6221546   1.712   7.605   7.642 -0.5039 -0.4418 -1.5663
   83MOL    H6321547   1.841   7.507   7.704  0.1908  1.0292 -1.7925
   83MOL    H6421548   1.692   7.502   7.790  0.1679 -1.3102 -0.2774
   83MOL    H6521549   1.725   7.286   7.428 -1.3556 -0.2158  1.8358
   83MOL    H6621550   1.856   7.355   7.514 -1.1077 -0.4603  0.5814
   83MOL    C6721551   1.770   7.485   7.366 -0.7495 -0.2960  0.3438
   83MOL    C6821552   1.872   7.440   7.256 -0.1833  0.7744 -0.1756
   83MOL    C6921553   1.842   7.393   7.134 -1.2692  0.4493  0.2017
   83MOL    C7021554   1.954   7.353   7.034  1.0780 -0.6319 -0.3951
   83MOL    C7121555   1.703   7.364   7.081 -0.8582 -0.2389  0.1769
   83MOL    H7221556   1.796   7.584   7.403  1.5686 -1.1703  1.1665
   83MOL    H7321557   1.675   7.497   7.315 -0.6066 -0.4415  0.0353
   83MOL    H7421558   1.972   7.446   7.295 -0.2270  1.2192 -0.1274
   83MOL    H7521559   1.959   7.429   6.955  1.5123 -0.6092 -0.3442
   83MOL    H7621560   1.940   7.251   6.998  0.5175 -0.2698 -1.2159
   83MOL    H7721561   2.051   7.361   7.084  0.5467 -0.1693  0.5722
   83MOL    H7821562   1.620   7.363   7.151  0.2293 -0.1710  1.4725
   83MOL    H7921563   1.709   7.258   7.056  0.2359 -0.1123 -0.1547
   83MOL    C8021564   1.659   7.444   6.961  0.4729  0.4125  0.3603
   83MOL    C8121565   1.647   7.584   6.994 -0.3568  0.6395  0.3603
   83MOL    C8221566   1.545   7.651   7.063 -0.0190 -0.3346  0.7935
   83MOL    C8321567   1.411   7.598   7.102 -0.6345 -0.0252  0.6124
   83MOL    C8421568   1.556   7.799   7.088  0.7222 -0.1669  0.6110
   83MOL    H8521569   1.564   7.402   6.928  1.0733  0.1097 -1.0059
   83MOL    H8621570   1.720   7.436   6.871 -2.9188 -2.4183 -1.7712
   83MOL    H8721571   1.738   7.639   6.975  0.8108 -0.1987  3.2452
   83MOL    H8821572   1.413   7.491   7.085  0.3643 -0.1271  1.2941
   83MOL    H8921573   1.333   7.632   7.034  0.1822 -0.1139 -0.3723
   83MOL    H9021574   1.387   7.639   7.200 -1.4095  0.6268  0.1561
   83MOL    H9121575   1.454   7.839   7.089  0.3522 -1.0470 -0.0746
   83MOL    H9221576   1.618   7.838   7.008  1.6336  1.1698  1.9446
   83MOL    C9321577   1.625   7.826   7.223 -0.0345 -0.2902  0.1046
   83MOL    C9421578   1.666   0.090   7.227  0.2253  0.0777 -0.2507
   83MOL    C9521579   1.606   0.190   7.291  0.1851 -0.4566 -0.2407
   83MOL    C9621580   1.657   0.333   7.284 -0.3438  0.1566 -0.2587
   83MOL    C9721581   1.485   0.179   7.386 -0.3586  0.6889 -0.0601
   83MOL    H9821582   1.703   7.750   7.227 -1.1664 -1.4884 -0.4491
   83MOL    H9921583   1.546   7.797   7.292 -1.2359  0.3827 -0.9618
   83MOL   H10021584   1.748   0.120   7.163  0.1503  0.0102 -0.3771
   83MOL   H10121585   1.586   0.382   7.217 -2.8202 -2.2466  0.4984
   83MOL   H10221586   1.660   0.390   7.377 -0.3191  3.3826 -2.1508
   83MOL   H10321587   1.758   0.339   7.245 -1.2277 -1.9299 -3.0611
   83MOL   H10421588   1.510   0.212   7.487  1.4269 -1.6976  0.3153
   83MOL   H10521589   1.471   0.072   7.395  0.8352  0.5429  0.0803
   83MOL   C10621590   1.353   0.246   7.343 -1.1538  1.3172  0.1299
   83MOL   C10721591   1.305   0.223   7.201 -0.1656  0.1157  0.5489
   83MOL   C10821592   1.233   0.121   7.152 -0.2969  0.4768  0.5568
   83MOL   C10921593   1.179   0.011   7.237 -1.0122  0.1429  0.2136
   83MOL   C11021594   1.194   0.105   7.006  0.2230  0.2156  0.3997
   83MOL   H11121595   1.374   0.352   7.358 -0.0808  1.0232  0.7558
   83MOL   H11221596   1.266   0.220   7.403 -2.1202  0.8006 -1.4630
   83MOL   H11321597   1.351   0.293   7.133  2.0281  0.2548  2.0995
   83MOL   H11421598   1.185   0.035   7.343  2.0110  0.0756  0.1133
   83MOL   H11521599   1.078   7.868   7.203 -0.5229 -1.9174  0.0329
   83MOL   H11621600   1.238   7.799   7.228  0.5593  1.1841 -0.2996
   83MOL   H11721601   1.093   0.141   6.992 -0.1498 -0.3270  1.6461
   83MOL   H11821602   1.203   7.876   6.993 -0.2663 -0.1090  2.5805
   83MOL   C11921603   1.279   0.170   6.900 -0.1403 -0.1305 -0.5987
   83MOL   C12021604   1.232   0.137   6.763 -0.2000  0.5962 -0.0623
   83MOL   C12121605   1.194   0.222   6.663  0.3622  0.7082  0.2507
   83MOL   C12221606   1.158   0.179   6.518  0.1542  0.5168 -0.5309
   83MOL   C12321607   1.193   0.374   6.673 -0.5884  0.6625  0.6654
   83MOL   H12421608   1.377   0.123   6.913 -0.4649 -0.7104 -0.2227
   83MOL   H12521609   1.273   0.276   6.925 -1.4191 -1.0481  3.3921
   83MOL   H12621610   1.238   0.033   6.734 -1.1465  0.8098 -1.0581
   83MOL   H12721611   1.229   0.209   6.441  2.0668  1.3149  1.4963
   83MOL   H12821612   1.058   0.221   6.503 -0.7297 -0.6638  1.7488
   83MOL   H12921613   1.146   0.070   6.517  3.7074  0.0657 -2.8521
   83MOL   H13021614   1.244   0.413   6.585  0.4016 -0.0643  0.9028
   83MOL   H13121615   1.264   0.400   6.752  0.4829  0.6411 -0.2726
   83MOL   C13221616   1.047   0.418   6.692 -0.4693  0.7034 -0.1133
   83MOL   C13321617   1.037   0.537   6.785 -0.6574  0.3495  0.4782
   83MOL   C13421618   0.968   0.653   6.768 -0.3847  0.6958  0.2033
   83MOL   C13521619   0.979   0.767   6.860 -0.0065  0.1636 -0.5008
   83MOL   C13621620   0.880   0.685   6.650  0.2264  0.6397 -0.6224
   83MOL   H13721621   0.984   0.351   6.751  0.4605  0.5224  0.6922
   83MOL   H13821622   0.998   0.437   6.596  0.1275  1.0940 -0.3448
   83MOL   H13921623   1.099   0.522   6.873  1.5873 -1.5193 -1.3391
   83MOL   H14021624   1.016   0.855   6.808  2.1223 -0.5149 -0.1812
   83MOL   H14121625   1.043   0.757   6.947 -1.0312  1.7275  0.4688
   83MOL   H14221626   0.882   0.785   6.905  0.5334  1.2273  0.2567
   83MOL   H14321627   0.786   0.732   6.679  0.1386  1.4154 -2.1135
   83MOL   H14421628   0.836   0.597   6.603  1.6643 -0.6334  0.3760
   83MOL   C14521629   0.943   0.780   6.551  0.9659 -0.0915  0.2062
   83MOL   C14621630   0.855   0.791   6.423 -0.0504 -0.3285 -0.3053
   83MOL   C14721631   0.872   0.719   6.306 -0.4398  0.0961 -0.6615
   83MOL   C14821632   0.773   0.734   6.194 -0.0886 -0.0147 -0.1917
   83MOL   C14921633   1.007   0.650   6.282  0.9322 -0.2289  0.4122
   83MOL   H15021634   1.049   0.757   6.537  0.4233 -1.4945 -1.6324
   83MOL   H15121635   0.940   0.878   6.600  0.3800  0.8169 -1.6000
   83MOL   H15221636   0.762   0.843   6.443  0.9067  0.5116  2.1658
   83MOL   H15321637   0.677   0.761   6.239 -1.6828 -2.6890 -1.8384
   83MOL   H15421638   0.757   0.633   6.156 -1.5952 -0.0610  0.5026
   83MOL   H15521639   0.812   0.798   6.116  2.7234 -2.8309 -1.1710
   83MOL   H15621640   0.993   0.583   6.197 -1.9073  0.0207  0.6459
   83MOL   H15721641   1.034   0.602   6.376 -0.2031 -1.0959  0.3136
   83MOL   C15821642   1.120   0.753   6.253  0.3827 -0.2161  0.5986
   83MOL   C15921643   1.258   0.698   6.205  0.1740  0.8937 -0.7565
   83MOL   C16021644   1.316   0.717   6.085  1.0588 -0.0919  0.1942
   83MOL   C16121645   1.247   0.773   5.964 -0.0889  0.7727 -0.2473
   83MOL   C16221646   1.458   0.671   6.064 -0.0921 -0.8127  0.5686
   83MOL   H16321647   1.136   0.809   6.346 -1.2620 -0.5046  1.0621
   83MOL   H16421648   1.091   0.827   6.178  2.7450 -1.1437 -1.3000
   83MOL   H16521649   1.312   0.649   6.285  0.7043  2.5386 -0.0664
   83MOL   H16621650   1.150   0.816   5.990  0.0721  1.2267 -0.4048
   83MOL   H16721651   1.239   0.682   5.904 -0.5424  0.2032  0.6652
   83MOL   H16821652   1.311   0.846   5.915 -1.1804 -0.0187 -2.9651
   83MOL   H16921653   1.523   0.672   6.152  0.1727  0.1245  0.3662
   83MOL   H17021654   1.513   0.726   5.989 -0.4466  1.0731  1.6678
   83MOL   C17121655   1.459   0.525   6.022 -0.0728  0.4342  0.7434
   83MOL   C17221656   1.597   0.460   6.042 -0.0064  0.0922 -0.4407
   83MOL   C17321657   1.629   0.348   6.106  0.0116  0.2613  0.3097
   83MOL   C17421658   1.533   0.252   6.172 -0.8478  0.9985 -0.4058
   83MOL   C17521659   1.774   0.308   6.109  0.2248  0.4362 -0.4385
   83MOL   H17621660   1.431   0.516   5.917 -0.2986  0.2542  0.8185
   83MOL   H17721661   1.381   0.471   6.076  0.9791 -3.4223 -1.4416
   83MOL   H17821662   1.671   0.517   5.988  0.0599 -0.1637 -0.6188
   83MOL   H17921663   1.451   0.315   6.208 -1.5519 -0.6028  0.8356
   83MOL   H18021664   1.579   0.204   6.259  1.1578 -0.0306 -1.9947
   83MOL   H18121665   1.517   0.176   6.096  0.1518 -0.5889  0.9358
   83MOL   H18221666   1.817   0.338   6.013  0.0814 -0.4782 -0.7930
   83MOL   H18321667   1.773   0.200   6.103  1.5751  0.3990 -0.1936
   83MOL   C18421668   1.836   0.365   6.241 -0.3759  0.6968 -0.0660
   83MOL   C18521669   1.988   0.334   6.228 -0.9053 -0.1892 -0.0685
   83MOL   C18621670   2.067   0.265   6.314 -0.4830 -0.5374 -0.4148
   83MOL   C18721671   2.217   0.246   6.292 -0.6619  0.1337 -0.0327
   83MOL   C18821672   2.022   0.207   6.451 -0.0194 -0.1485  0.0097
   83MOL   H18921673   1.796   0.314   6.328 -1.3845  2.3624  0.4607
   83MOL   H19021674   1.818   0.471   6.253 -4.2111  0.3475 -2.1108
   83MOL   H19121675   2.040   0.373   6.141  2.2183 -2.4258  0.6928
   83MOL   H19221676   2.274   0.291   6.373  1.0215 -0.8857 -0.6139
   83MOL   H19321677   2.257   0.293   6.202  0.4614 -0.5327  0.1045
   83MOL   H19421678   2.235   0.141   6.269  0.2515 -0.1887  2.0754
   83MOL   H19521679   1.934   0.265   6.479 -0.0745 -0.7185  1.0654
   83MOL   H19621680   2.092   0.237   6.529  0.3417 -0.2785 -0.2637
   83MOL   C19721681   2.010   0.054   6.453 -0.1167  0.3443  0.8803
   83MOL   C19821682   1.887   7.876   6.383  0.5458 -0.1839  0.5125
   83MOL   C19921683   1.875   7.757   6.320 -0.3068 -0.0618  0.3076
   83MOL   C20021684   1.742   7.708   6.264 -0.1362  0.2573  0.2149
   83MOL   C20121685   2.000   7.671   6.303 -0.3194  0.4976  0.1327
   83MOL   H20221686   2.007   0.007   6.551 -0.4006 -0.7295  0.3632
   83MOL   H20321687   2.099   0.014   6.404 -1.3232 -0.2751 -0.8555
   83MOL   H20421688   1.800   0.061   6.390  1.0414  0.6566 -0.6901
   83MOL   H20521689   1.720   7.615   6.315  1.1428 -0.1593  0.0232
   83MOL   H20621690   1.745   7.674   6.161  0.5783 -1.3015  0.7389
   83MOL   H20721691   1.656   7.775   6.269  0.1160  0.6178 -0.2648
   83MOL   H20821692   2.092   7.729   6.292 -1.0618  1.0920 -3.6630
   83MOL   H20921693   1.979   7.624   6.207  0.8723 -0.6458  0.4330
   83MOL   C21021694   2.000   7.557   6.403  0.4225 -0.7820 -0.0279
   83MOL   C21121695   2.074   7.441   6.350 -0.6617 -0.3097 -0.0959
   83MOL   C21221696   2.206   7.434   6.340  0.0649  0.0160 -0.2667
   83MOL   C21321697   2.257   7.302   6.294 -0.2497 -0.0136  0.0562
   83MOL   C21421698   2.307   7.546   6.372  0.0790 -0.3514  0.8032
   83MOL   H21521699   1.898   7.521   6.410  0.1379 -0.0617 -0.4473
   83MOL   H21621700   2.038   7.594   6.498 -1.0923  0.5433  0.0852
   83MOL   H21721701   2.004   7.365   6.318 -1.1894 -0.5669  1.6385
   83MOL   H21821702   2.326   7.307   6.210 -0.0045  2.3945  0.3585
   83MOL   H21921703   2.171   7.242   6.263 -0.4481 -0.7969  2.0458
   83MOL   H22021704   2.312   7.265   6.380  0.4312  1.4472  0.2708
   83MOL   H22121705   2.389   7.498   6.425 -1.3405 -2.6959  0.9332
   83MOL   H22221706   2.269   7.624   6.438  1.3673  2.4663 -1.6839
   83MOL   C22321707   2.361   7.608   6.238  0.0550  0.0206 -0.2259
   83MOL   C22421708   2.484   7.693   6.286  0.5275 -0.8958  0.1316
   83MOL   C22521709   2.549   7.784   6.214 -0.6656 -0.2234 -0.3281
   83MOL   C22621710   2.658   7.867   6.273 -0.0530  0.5105  0.0388
   83MOL   C22721711   2.519   7.820   6.068 -0.2018 -1.0758  0.0417
   83MOL   H22821712   2.287   7.681   6.205 -0.1054 -0.0357  0.0046
   83MOL   H22921713   2.399   7.537   6.165  0.6917 -0.5475  0.6529
   83MOL   H23021714   2.512   7.670   6.388 -1.9927 -1.3600  0.7588
   83MOL   H23121715   2.755   7.855   6.223 -0.1271  1.3117 -0.2950
   83MOL   H23221716   2.666   7.843   6.379  0.1783 -1.1984 -0.3410
   83MOL   H23321717   2.640   0.095   6.267  0.4610  0.7112  1.9283
   83MOL   H23421718   2.467   7.739   6.016  1.0303 -1.1291 -1.1179
   83MOL   H23521719   2.616   7.829   6.019 -1.3980 -0.5359 -2.3195
   83MOL   C23621720   2.426   0.058   6.041  0.7332 -0.0265 -0.3431
   83MOL   C23721721   2.436   0.093   5.896  0.7075 -0.2071 -0.3703
   83MOL   C23821722   2.351   0.068   5.800 -0.3645  0.0381 -0.3645
   83MOL   C23921723   2.378   0.101   5.652  0.5844 -0.0235  0.1789
   83MOL   C24021724   2.213   0.002   5.829  0.2617  0.0338 -0.0619
   83MOL   H24121725   2.471   0.149   6.082  1.4751 -0.1258 -0.9213
   83MOL   H24221726   2.325   0.054   6.081 -0.1356  2.3879 -2.2135
   83MOL   H24321727   2.529   0.140   5.865  0.1243  0.3121 -1.3660
   83MOL   H24421728   2.462   0.171   5.651 -0.1495  0.8505 -1.7689
   83MOL   H24521729   2.285   0.144   5.616  1.4486 -0.1890 -2.3508
   83MOL   H24621730   2.398   0.008   5.598  0.5413  0.0829 -0.0204
   83MOL   H24721731   2.208   7.821   5.920  2.8894 -0.3253 -0.1135
   83MOL   H24821732   2.196   7.809   5.749  1.3972  0.3944 -0.6514
   83MOL   C24921733   2.094   0.098   5.840  0.0459 -0.5554 -0.1271
   83MOL   C25021734   1.964   0.040   5.886 -0.4246 -0.2017 -0.0637
   83MOL   C25121735   1.843   0.048   5.830 -0.1576 -0.3485  0.3655
   83MOL   C25221736   1.731   7.856   5.900 -0.5211 -0.1376  0.2636
   83MOL   C25321737   1.816   0.114   5.692 -0.1908 -1.1134  0.0755
   83MOL   H25421738   2.084   0.150   5.744  1.6534 -3.3817 -1.9217
   83MOL   H25521739   2.126   0.178   5.906 -0.8628  0.5863 -1.0553
   83MOL   H25621740   1.963   7.865   5.980  4.0376 -1.0720 -0.3998
   83MOL   H25721741   1.735   7.862   6.008  0.1389  1.4827  0.1687
   83MOL   H25821742   1.725   7.750   5.876  1.9725 -0.4889  1.0063
   83MOL   H25921743   1.638   0.025   5.872 -1.4209 -1.3359  1.1796
   83MOL   H26021744   1.735   0.186   5.693  1.0356  0.3065  2.1105
   83MOL   H26121745   1.794   0.034   5.622 -1.9363 -1.5979  1.1555
   83MOL   H26221746   1.904   0.169   5.657 -0.8799  0.3231  0.5854
   84MOL     C121747   1.727   5.809   3.627  0.1003 -0.2415 -0.5788
   84MOL     C221748   1.596   5.875   3.604 -0.6755 -0.2203 -0.0236
   84MOL     C321749   1.491   5.815   3.539  0.1050  0.2066  0.7424
   84MOL     C421750   1.361   5.887   3.524 -0.7737  0.1046 -0.1161
   84MOL     C521751   1.494   5.684   3.465 -0.0457 -0.2157  0.2551
   84MOL     H621752   1.743   5.801   3.734  1.1723 -2.7180 -0.8835
   84MOL     H721753   1.731   5.707   3.588  0.4549 -0.0586 -1.0241
   84MOL     H821754   1.584   5.971   3.652  1.2248  0.1390 -0.2198
   84MOL     H921755   1.300   5.867   3.612 -0.1376 -0.3571  0.2274
   84MOL    H1021756   1.299   5.848   3.444 -1.3022  3.5820 -1.4944
   84MOL    H1121757   1.369   5.995   3.510 -1.6120  0.1744 -0.0599
   84MOL    H1221758   1.593   5.640   3.460 -0.9460 -2.2594 -0.1687
   84MOL    H1321759   1.471   5.693   3.359  1.9942  2.1165 -0.0203
   84MOL    H1421760   1.806   5.878   3.596 -2.0986  2.5294 -0.1286
   84MOL    C1521761   1.400   5.585   3.542  0.7563  0.1731  0.1623
   84MOL    C1621762   1.458   5.528   3.670  0.1211  0.2276 -0.6386
   84MOL    C1721763   1.437   5.406   3.724  0.7517  0.9103  0.1945
   84MOL    C1821764   1.506   5.383   3.860  0.2404 -0.0874 -0.3936
   84MOL    C1921765   1.336   5.308   3.675  0.2115 -1.2178 -0.7961
   84MOL    H2021766   1.370   5.505   3.473 -1.0408 -0.3530  1.5366
   84MOL    H2121767   1.308   5.630   3.579 -0.0972 -0.5986 -0.9552
   84MOL    H2221768   1.516   5.596   3.730 -0.1293 -0.3713  0.2946
   84MOL    H2321769   1.554   5.473   3.897  0.5043 -1.0436  1.6929
   84MOL    H2421770   1.580   5.303   3.857  0.5256  0.1883 -0.8838
   84MOL    H2521771   1.417   5.371   3.923 -0.3026 -2.0855 -1.4769
   84MOL    H2621772   1.369   5.207   3.700  2.7499  0.0451  1.1882
   84MOL    H2721773   1.324   5.299   3.567  1.4231 -1.5553 -0.9088
   84MOL    C2821774   1.196   5.333   3.734  0.1101 -0.2784  0.7927
   84MOL    C2921775   1.097   5.221   3.712 -0.5511 -0.7577  0.4133
   84MOL    C3021776   0.995   5.230   3.631 -0.5061  1.1393 -0.6336
   84MOL    C3121777   0.901   5.108   3.621  0.3470  0.2689 -0.7620
   84MOL    C3221778   0.963   5.358   3.537 -0.0274  0.5287 -0.1651
   84MOL    H3321779   1.159   5.429   3.698  0.3885  0.0306  1.3209
   84MOL    H3421780   1.195   5.350   3.842  0.3761 -0.8863  0.8925
   84MOL    H3521781   1.109   5.127   3.763 -2.3844 -0.5414  1.2720
   84MOL    H3621782   0.875   5.075   3.722 -3.0400  0.5710 -1.4737
   84MOL    H3721783   0.959   5.025   3.582  1.3272  0.8461 -0.5356
   84MOL    H3821784   0.816   5.124   3.555 -1.0375 -2.4494  0.2740
   84MOL    H3921785   0.945   5.330   3.433 -2.3565  1.3140 -0.0066
   84MOL    H4021786   1.042   5.433   3.531  1.4838 -0.8176  1.9268
   84MOL    C4121787   0.828   5.424   3.583 -0.1916  0.2633  0.2766
   84MOL    C4221788   0.776   5.503   3.461 -0.1726 -0.5383 -0.0480
   84MOL    C4321789   0.664   5.492   3.386 -0.3716  0.0043  0.1515
   84MOL    C4421790   0.638   5.567   3.257 -0.0605  0.0952 -0.5629
   84MOL    C4521791   0.552   5.390   3.404  0.3692 -0.3853 -0.7801
   84MOL    H4621792   0.828   5.484   3.674 -3.1979 -1.9942  1.8375
   84MOL    H4721793   0.750   5.349   3.599  0.6771 -0.5551  0.6651
   84MOL    H4821794   0.851   5.579   3.443 -0.2741 -0.3741  0.2095
   84MOL    H4921795   0.724   5.631   3.239 -0.8095  1.1136 -0.5450
   84MOL    H5021796   0.546   5.624   3.267 -0.2195 -0.0335 -1.2407
   84MOL    H5121797   0.631   5.505   3.167  1.8435  0.4749 -0.9809
   84MOL    H5221798   0.459   5.431   3.364 -0.7682 -1.4166  0.7333
   84MOL    H5321799   0.536   5.380   3.512 -2.3697  0.0881 -1.0942
   84MOL    C5421800   0.591   5.246   3.352 -0.3912  0.2678 -0.0260
   84MOL    C5521801   0.474   5.147   3.363 -0.5335  0.4817  0.1662
   84MOL    C5621802   0.445   5.042   3.284 -0.3698 -0.1281  0.7813
   84MOL    C5721803   0.333   4.948   3.309 -0.0030  0.8326  0.5933
   84MOL    C5821804   0.517   5.006   3.151 -0.0504  0.6667 -0.1009
   84MOL    H5921805   0.669   5.203   3.415 -0.6632 -1.5438 -0.8899
   84MOL    H6021806   0.629   5.254   3.250  2.1873  0.3112  0.9026
   84MOL    H6121807   0.405   5.159   3.445 -1.0121  1.0188 -0.3064
   84MOL    H6221808   0.290   4.955   3.409  0.4286 -1.4289  0.9602
   84MOL    H6321809   0.372   4.847   3.312  0.3808  0.9502 -0.3110
   84MOL    H6421810   0.260   4.964   3.229 -0.2667 -0.0209  0.6613
   84MOL    H6521811   0.528   4.899   3.137 -1.1316  0.6463 -0.8353
   84MOL    H6621812   0.616   5.051   3.154 -0.4126  1.4717 -0.1065
   84MOL    C6721813   0.441   5.064   3.035 -0.1131  0.2202 -0.2445
   84MOL    C6821814   0.396   5.211   3.051 -0.3342 -0.2236 -0.2742
   84MOL    C6921815   0.444   5.322   2.995 -0.7170  0.4799 -0.0990
   84MOL    C7021816   0.371   5.447   3.023  0.3614 -0.3626 -0.1551
   84MOL    C7121817   0.568   5.330   2.906  0.3076 -0.8457  0.9574
   84MOL    H7221818   0.363   4.996   3.001  0.3349 -0.2669 -0.2935
   84MOL    H7321819   0.508   5.057   2.950  1.8708  2.3928  1.0726
   84MOL    H7421820   0.310   5.212   3.116  0.6396  0.9791  1.0216
   84MOL    H7521821   0.278   5.433   3.078 -0.9889 -1.0648 -2.5471
   84MOL    H7621822   0.347   5.497   2.929 -0.3492  1.1208  0.7847
   84MOL    H7721823   0.431   5.520   3.079 -0.1485 -0.4624  0.5379
   84MOL    H7821824   0.637   5.250   2.931  1.7008 -0.4606 -1.5300
   84MOL    H7921825   0.613   5.428   2.924  0.8821 -0.7793 -0.7670
   84MOL    C8021826   0.527   5.320   2.755  0.2706 -0.8049  0.0411
   84MOL    C8121827   0.651   5.357   2.662  0.3370 -0.2472 -0.0753
   84MOL    C8221828   0.707   5.285   2.563  0.2063 -0.7257 -0.0586
   84MOL    C8321829   0.659   5.141   2.530 -0.4478  1.0114  0.2302
   84MOL    C8421830   0.822   5.359   2.482  0.1243 -0.2607  0.2636
   84MOL    H8521831   0.443   5.387   2.736  1.5294  0.3688 -1.5102
   84MOL    H8621832   0.505   5.215   2.735 -0.0012 -0.8740  0.6756
   84MOL    H8721833   0.678   5.461   2.675  0.8400 -0.4234  0.3148
   84MOL    H8821834   0.605   5.081   2.603  3.1128 -2.3001  0.2973
   84MOL    H8921835   0.747   5.083   2.503 -2.6976 -2.6313  0.4543
   84MOL    H9021836   0.592   5.156   2.445 -0.1323 -3.5388 -0.9491
   84MOL    H9121837   0.919   5.308   2.480 -0.5876 -1.6794  1.0418
   84MOL    H9221838   0.844   5.458   2.522  1.6916 -0.2191 -0.6759
   84MOL    C9321839   0.786   5.372   2.332 -0.5515  0.6924 -0.3372
   84MOL    C9421840   0.665   5.460   2.301 -0.2379  0.0527  0.5772
   84MOL    C9521841   0.634   5.521   2.188 -0.3960  0.4972  0.3073
   84MOL    C9621842   0.492   5.570   2.168  0.5802 -0.5878 -0.1271
   84MOL    C9721843   0.720   5.551   2.071 -0.9661 -0.2068 -0.4970
   84MOL    H9821844   0.771   5.277   2.281  0.2955 -0.1064  0.8863
   84MOL    H9921845   0.866   5.419   2.274 -2.5750  1.9914 -2.1425
   84MOL   H10021846   0.585   5.448   2.372 -0.8871 -0.4848 -0.2394
   84MOL   H10121847   0.470   5.602   2.066 -1.8149  2.3303  1.2386
   84MOL   H10221848   0.425   5.484   2.182 -1.0660  0.4934 -1.1641
   84MOL   H10321849   0.476   5.652   2.238  0.3183  0.2112 -1.1078
   84MOL   H10421850   0.661   5.524   1.983 -2.0928  1.6947 -0.3492
   84MOL   H10521851   0.814   5.497   2.077 -0.3392  0.7887 -1.3398
   84MOL   C10621852   0.769   5.698   2.069  0.4489  0.1243  0.3512
   84MOL   C10721853   0.844   5.723   1.937 -0.5438  0.5994 -0.4208
   84MOL   C10821854   0.820   5.818   1.842 -0.3000 -0.3013 -0.0676
   84MOL   C10921855   0.704   5.915   1.840  0.1801  0.6056 -0.4998
   84MOL   C11021856   0.900   5.824   1.716 -0.4018  0.3318 -0.3487
   84MOL   H11121857   0.835   5.724   2.152  1.3132  1.4238 -0.7072
   84MOL   H11221858   0.682   5.764   2.079 -0.0733 -0.3477 -0.9293
   84MOL   H11321859   0.920   5.653   1.904 -1.0725  0.9583 -2.4966
   84MOL   H11421860   0.644   5.877   1.757  0.9477 -0.9892 -0.3517
   84MOL   H11521861   0.642   5.912   1.929  1.9268 -0.9236  0.7155
   84MOL   H11621862   0.734   6.019   1.829 -1.4522  1.0872 -0.5429
   84MOL   H11721863   0.837   5.813   1.628 -0.4186  1.1809 -0.4513
   84MOL   H11821864   0.968   5.739   1.714 -2.6261 -1.4874 -0.7450
   84MOL   C11921865   0.985   5.954   1.705  0.3308  0.7686  0.5552
   84MOL   C12021866   1.107   5.939   1.607 -0.0354  0.9955  0.2127
   84MOL   C12121867   1.192   6.039   1.568  0.8627 -0.4134 -0.0576
   84MOL   C12221868   1.312   6.026   1.472 -0.2593 -0.2751  0.9534
   84MOL   C12321869   1.168   6.178   1.623 -0.1499 -0.0417  0.4700
   84MOL   H12421870   1.016   6.004   1.797 -0.9792  0.2710  1.2763
   84MOL   H12521871   0.922   6.032   1.661  1.5909  2.1993  1.2322
   84MOL   H12621872   1.135   5.845   1.561 -2.4695  0.5273 -0.4208
   84MOL   H12721873   1.274   6.072   1.380  0.1384  0.7883  1.3173
   84MOL   H12821874   1.331   5.920   1.456  0.1849 -0.4119  2.3772
   84MOL   H12921875   1.406   6.051   1.520  0.6736 -2.3002  0.2262
   84MOL   H13021876   1.263   6.224   1.650  0.4382 -1.3615  0.6942
   84MOL   H13121877   1.123   6.179   1.722 -0.7921  0.7624  0.1675
   84MOL   C13221878   1.083   6.263   1.529  0.2891  0.0884 -0.1956
   84MOL   C13321879   1.071   6.400   1.591  0.3061 -0.1225 -0.8985
   84MOL   C13421880   1.101   6.512   1.521 -0.2453  0.1853  0.5256
   84MOL   C13521881   1.104   6.644   1.595 -0.5199 -0.1140 -0.0659
   84MOL   C13621882   1.134   6.522   1.375 -0.1540 -0.3575 -0.4538
   84MOL   H13721883   0.983   6.223   1.516  0.7826 -0.4142 -2.8448
   84MOL   H13821884   1.135   6.255   1.433  0.5756  3.1446 -0.3290
   84MOL   H13921885   1.042   6.411   1.694  1.2971 -1.0663 -0.4993
   84MOL   H14021886   1.075   6.643   1.700 -1.4860  0.1333 -0.3249
   84MOL   H14121887   1.041   6.721   1.550  0.9805  0.2941 -1.5313
   84MOL   H14221888   1.205   6.685   1.585 -0.7808  0.5339 -0.1128
   84MOL   H14321889   1.064   6.586   1.320 -2.3963 -1.7797  0.6477
   84MOL   H14421890   1.112   6.428   1.325  0.6513 -2.2360  2.6060
   84MOL   C14521891   1.277   6.564   1.348 -0.1401 -0.6460 -0.7368
   84MOL   C14621892   1.306   6.613   1.206  0.6416  0.1022 -0.5062
   84MOL   C14721893   1.410   6.574   1.127 -0.3248  0.5658  0.3574
   84MOL   C14821894   1.427   6.636   0.982  0.2271  0.7198 -0.6694
   84MOL   C14921895   1.516   6.471   1.154 -0.3979 -0.5203  0.3704
   84MOL   H15021896   1.338   6.476   1.369  0.1455 -1.1082 -3.2998
   84MOL   H15121897   1.305   6.646   1.414  1.0210 -1.6029 -0.0209
   84MOL   H15221898   1.238   6.690   1.173  0.1663 -0.2160 -0.2686
   84MOL   H15321899   1.342   6.699   0.957 -0.5259 -0.0693 -0.1498
   84MOL   H15421900   1.424   6.547   0.918  0.6792  0.1999  0.0258
   84MOL   H15521901   1.518   6.695   0.972 -0.1167  1.1604 -1.2364
   84MOL   H15621902   1.561   6.425   1.066  1.6610  1.3208  0.4297
   84MOL   H15721903   1.469   6.395   1.216 -2.4062  0.0146 -0.4526
   84MOL   C15821904   1.640   6.522   1.229  0.8043  1.4255  0.2511
   84MOL   C15921905   1.741   6.412   1.260  0.1613  0.3114  0.3370
   84MOL   C16021906   1.831   6.356   1.175 -0.0764 -0.2323 -0.4741
   84MOL   C16121907   1.842   6.396   1.033  0.4706 -0.3898 -0.1922
   84MOL   C16221908   1.926   6.242   1.208  1.0425 -0.3594 -0.2297
   84MOL   H16321909   1.609   6.563   1.325 -1.8644 -1.3024  0.6253
   84MOL   H16421910   1.691   6.603   1.176  0.3433  0.7008 -1.3133
   84MOL   H16521911   1.728   6.371   1.359 -1.3328  0.6961  0.3189
   84MOL   H16621912   1.799   6.493   1.008  2.1722  0.6268  0.7846
   84MOL   H16721913   1.782   6.319   0.984  0.9361 -0.4458 -0.6722
   84MOL   H16821914   1.942   6.403   0.990  0.8999  2.5759  1.1515
   84MOL   H16921915   1.920   6.166   1.129 -0.8758 -1.3403  0.8251
   84MOL   H17021916   1.889   6.196   1.299  0.3738  0.5545 -0.0371
   84MOL   C17121917   2.068   6.300   1.227 -0.5805 -0.7254 -0.3057
   84MOL   C17221918   2.163   6.191   1.290  0.2993  0.1700 -0.0175
   84MOL   C17321919   2.272   6.130   1.240 -0.0166 -0.4734 -0.2006
   84MOL   C17421920   2.323   6.160   1.101 -0.4411  0.0635  0.2696
   84MOL   C17521921   2.338   6.015   1.319 -0.8772  0.3972 -0.0367
   84MOL   H17621922   2.058   6.392   1.286 -0.9512 -2.2344  2.0370
   84MOL   H17721923   2.095   6.319   1.123 -0.1860  2.5211  0.3330
   84MOL   H17821924   2.131   6.163   1.389 -1.8807 -0.8224 -0.9599
   84MOL   H17921925   2.426   6.127   1.092 -0.8805 -1.5807  1.2254
   84MOL   H18021926   2.333   6.265   1.072 -0.6990 -0.2377 -0.9383
   84MOL   H18121927   2.262   6.125   1.018  0.6462  0.7564 -0.8414
   84MOL   H18221928   2.296   6.013   1.419 -0.2967 -1.2317  0.1935
   84MOL   H18321929   2.446   6.031   1.324 -0.7509 -0.3235 -0.3840
   84MOL   C18421930   2.312   5.876   1.258 -0.0940  0.3984 -0.2166
   84MOL   C18521931   2.344   5.772   1.362 -0.2147  0.4675  1.2035
   84MOL   C18621932   2.260   5.679   1.415 -1.0340  0.0017  0.5291
   84MOL   C18721933   2.303   5.569   1.510 -0.0384 -0.3361 -0.0703
   84MOL   C18821934   2.113   5.668   1.374 -0.0719 -0.7343  0.7380
   84MOL   H18921935   2.371   5.856   1.168 -0.7693 -0.6650 -0.4384
   84MOL   H19021936   2.208   5.876   1.226 -1.0764 -2.2098  2.7046
   84MOL   H19121937   2.448   5.762   1.388  0.0972  1.2898  0.3141
   84MOL   H19221938   2.233   5.578   1.593  0.2343  0.0364  0.1229
   84MOL   H19321939   2.406   5.580   1.543  0.3457 -0.4714 -1.1805
   84MOL   H19421940   2.284   5.470   1.469 -1.7721  0.6311 -1.7283
   84MOL   H19521941   2.103   5.561   1.354  3.1145 -1.0831  0.7923
   84MOL   H19621942   2.101   5.716   1.278  3.2253 -0.8291  0.2153
   84MOL   C19721943   2.010   5.715   1.480 -0.9261  0.5032  0.6552
   84MOL   C19821944   2.020   5.865   1.513  0.1765  0.5930 -0.0930
   84MOL   C19921945   2.026   5.922   1.635  0.0952 -0.7354 -0.1912
   84MOL   C20021946   2.022   6.074   1.652 -0.0841 -0.0293  0.0095
   84MOL   C20121947   2.037   5.849   1.771 -0.7174 -0.3002 -0.0011
   84MOL   H20221948   2.022   5.657   1.572 -3.1743  0.7962  1.1745
   84MOL   H20321949   1.908   5.689   1.450 -0.7101  0.0490  0.3179
   84MOL   H20421950   2.019   5.929   1.426 -1.9159  1.4079  0.5140
   84MOL   H20521951   2.003   6.100   1.756 -0.5386 -0.7398  0.1018
   84MOL   H20621952   1.934   6.115   1.602 -0.1866 -1.7010 -1.2095
   84MOL   H20721953   2.116   6.126   1.631 -0.1641  0.5795  1.1073
   84MOL   H20821954   2.033   5.740   1.764 -0.5705 -0.3404  0.5246
   84MOL   H20921955   1.948   5.878   1.826  0.4336 -0.2769  1.8999
   84MOL   C21021956   2.170   5.880   1.843  0.1176  0.5406  0.3824
   84MOL   C21121957   2.166   5.830   1.988 -0.2571  0.5818 -0.1974
   84MOL   C21221958   2.208   5.902   2.097 -0.4563  0.1762  1.1800
   84MOL   C21321959   2.190   5.829   2.232 -0.3899  0.1202 -0.6025
   84MOL   C21421960   2.238   6.055   2.089  0.3913 -0.8096  0.3970
   84MOL   H21521961   2.192   5.986   1.834 -1.2867  0.7716 -0.5166
   84MOL   H21621962   2.256   5.833   1.795 -1.0481  0.2402 -1.4432
   84MOL   H21721963   2.136   5.728   2.008 -1.9674  1.5060  2.2073
   84MOL   H21821964   2.287   5.820   2.279 -0.1960  0.5360 -0.9165
   84MOL   H21921965   2.152   5.728   2.217 -0.0184  0.0183 -0.8591
   84MOL   H22021966   2.128   5.891   2.297 -0.6363  0.0658 -0.7805
   84MOL   H22121967   2.191   6.116   2.165  0.1241  1.0365 -1.2025
   84MOL   H22221968   2.182   6.091   2.002  1.2730  0.2270  0.2628
   84MOL   C22321969   2.377   6.096   2.069 -0.5007  0.1673 -0.5373
   84MOL   C22421970   2.394   6.251   2.068  0.1182 -0.7973 -0.0207
   84MOL   C22521971   2.466   6.329   2.151 -0.0894  0.0817 -0.2831
   84MOL   C22621972   2.478   6.483   2.132  0.8036 -0.1495 -0.6350
   84MOL   C22721973   2.548   6.271   2.264 -0.2883  0.2485  0.1730
   84MOL   H22821974   2.423   6.053   1.980  0.9922  0.3921  0.1175
   84MOL   H22921975   2.434   6.048   2.148 -0.4952  1.0796  0.0134
   84MOL   H23021976   2.324   6.302   2.003 -0.2272 -1.2904 -0.0381
   84MOL   H23121977   2.480   6.533   2.229 -0.6905 -0.7962 -0.2494
   84MOL   H23221978   2.396   6.518   2.069 -0.7075 -0.4746  1.1084
   84MOL   H23321979   2.565   6.512   2.073  0.6809 -1.2275 -1.3578
   84MOL   H23421980   2.499   6.180   2.298 -0.7866  0.6032  0.4161
   84MOL   H23521981   2.540   6.330   2.355  1.2547 -0.1997  0.6136
   84MOL   C23621982   2.697   6.257   2.243  0.1395  0.1771  0.2273
   84MOL   C23721983   2.767   6.393   2.239 -0.4695  0.2538  0.2329
   84MOL   C23821984   2.847   6.445   2.144 -0.0847  0.2308  0.1430
   84MOL   C23921985   2.913   6.576   2.163  0.2595  0.4117  0.0135
   84MOL   C24021986   2.886   6.384   2.010  0.2692  0.2829  0.6537
   84MOL   H24121987   2.718   6.200   2.152 -0.6749 -2.8978  1.8990
   84MOL   H24221988   2.743   6.198   2.322  1.0679 -2.1405 -1.9558
   84MOL   H24321989   2.753   6.459   2.323  0.6158  0.7671  0.0176
   84MOL   H24421990   2.895   6.643   2.079 -1.2752 -0.5370 -0.4321
   84MOL   H24521991   3.020   6.566   2.143 -0.1657  0.3859 -2.3506
   84MOL   H24621992   2.900   6.613   2.265  1.5160 -2.4846  1.3066
   84MOL   H24721993   2.849   6.444   1.927 -1.4881 -4.5131 -2.2464
   84MOL   H24821994   2.825   6.298   1.982  0.7669  0.6427 -1.6615
   84MOL   C24921995   3.039   6.353   1.997 -0.2661 -0.4740  0.0607
   84MOL   C25021996   3.059   6.240   1.890 -0.1248 -0.3032 -0.3255
   84MOL   C25121997   3.174   6.219   1.824  0.3767  0.9326 -0.5709
   84MOL   C25221998   3.199   6.093   1.760  0.4005 -0.0438  0.2137
   84MOL   C25321999   3.288   6.319   1.802 -0.6818 -0.3578  0.3288
   84MOL   H25422000   3.086   6.319   2.089  0.8978  1.5826  0.2459
   84MOL   H25522001   3.093   6.446   1.978  0.5769 -1.1867 -1.1882
   84MOL   H25622002   2.981   6.165   1.885  0.1967 -0.5258 -2.0189
   84MOL   H25722003   3.124   6.019   1.786 -0.0134 -0.1751 -1.3730
   84MOL   H25822004   3.291   6.046   1.795  0.3714 -1.2465 -1.2877
   84MOL   H25922005   3.196   6.095   1.652 -1.0811  0.9899  0.2717
   84MOL   H26022006   3.282   6.399   1.875 -1.3158 -0.4327  0.3626
   84MOL   H26122007   3.272   6.370   1.707  3.4459  0.0424 -0.2117
   84MOL   H26222008   3.385   6.270   1.800 -0.1930  0.4927  1.9565
   85MOL     C122009   4.466   0.869   5.418  0.3998  0.0937 -0.1665
   85MOL     C222010   4.323   0.899   5.389  0.7437 -0.0738  0.0830
   85MOL     C322011   4.246   1.012   5.425  0.8163  0.3577  0.4126
   85MOL     C422012   4.098   1.022   5.395  0.0072  0.1022 -0.3947
   85MOL     C522013   4.299   1.125   5.522 -0.3479  0.4121  0.3377
   85MOL     H622014   4.538   0.871   5.336  1.5851 -1.5103  0.8226
   85MOL     H722015   4.509   0.946   5.482  0.5054  0.3412 -0.5322
   85MOL     H822016   4.274   0.823   5.330  0.1870  1.0128 -0.8720
   85MOL     H922017   4.064   1.121   5.367  0.5203  0.1478 -0.8770
   85MOL    H1022018   4.037   0.977   5.473  0.6486 -0.0491  0.0196
   85MOL    H1122019   4.081   0.965   5.303 -0.1568  0.9687 -0.9029
   85MOL    H1222020   4.399   1.102   5.559 -0.3494  0.6553  0.4935
   85MOL    H1322021   4.236   1.132   5.611  1.4472 -0.2290  1.7019
   85MOL    H1422022   4.464   0.777   5.476  0.6439  1.9147  2.8522
   85MOL    C1522023   4.303   1.267   5.452  0.0547 -0.0377 -0.2042
   85MOL    C1622024   4.340   1.381   5.547 -0.3373  0.2242 -0.5136
   85MOL    C1722025   4.256   1.470   5.601  0.4759 -0.4788 -0.0720
   85MOL    C1822026   4.327   1.578   5.688  0.0765 -0.2286 -0.2262
   85MOL    C1922027   4.106   1.472   5.589  0.0501 -0.2374  0.7255
   85MOL    H2022028   4.216   1.291   5.392  1.7400  0.6746 -2.4206
   85MOL    H2122029   4.384   1.260   5.379 -1.6826  3.6482 -2.6592
   85MOL    H2222030   4.444   1.392   5.571 -0.5026  0.7871 -0.0398
   85MOL    H2322031   4.272   1.664   5.652  1.4272  0.2337 -1.2106
   85MOL    H2422032   4.433   1.594   5.667  0.4532 -1.6838  0.4742
   85MOL    H2522033   4.298   1.562   5.792  0.6739 -0.5426 -0.1045
   85MOL    H2622034   4.067   1.508   5.684  0.4665  0.4942  0.6215
   85MOL    H2722035   4.054   1.377   5.575 -2.6777  1.3486 -0.3066
   85MOL    C2822036   4.065   1.555   5.466 -0.4587  0.3960 -0.5935
   85MOL    C2922037   3.915   1.568   5.436  0.2649  0.1743 -0.7855
   85MOL    C3022038   3.834   1.667   5.460 -0.1033 -0.0238  0.5050
   85MOL    C3122039   3.683   1.656   5.434  0.4800 -0.9185 -0.4015
   85MOL    C3222040   3.876   1.806   5.516  0.2463  0.3515 -0.8368
   85MOL    H3322041   4.090   1.511   5.370 -1.8138 -1.2089 -0.2401
   85MOL    H3422042   4.110   1.655   5.466  0.1954  0.1040  0.5679
   85MOL    H3522043   3.876   1.472   5.406 -1.2430  0.9768 -1.4944
   85MOL    H3622044   3.651   1.749   5.386  0.4718  1.0550  3.2538
   85MOL    H3722045   3.626   1.667   5.526 -0.9135  0.0472 -1.3678
   85MOL    H3822046   3.661   1.570   5.371 -1.4826  0.3375 -1.4628
   85MOL    H3922047   3.969   1.798   5.571  0.1050 -0.6222 -0.7382
   85MOL    H4022048   3.810   1.833   5.599  0.4760 -0.4871 -0.3775
   85MOL    C4122049   3.895   1.905   5.395 -0.3634  0.6819 -0.2457
   85MOL    C4222050   3.912   2.046   5.435  0.6195 -0.1638 -0.0805
   85MOL    C4322051   3.808   2.125   5.475 -0.0255 -0.4828  0.8816
   85MOL    C4422052   3.841   2.270   5.518 -0.1342 -0.3124 -0.6354
   85MOL    C4522053   3.662   2.083   5.468  0.1552  0.5780  0.3488
   85MOL    H4622054   3.809   1.902   5.327 -0.7613 -1.1692  0.3089
   85MOL    H4722055   3.971   1.879   5.322 -0.2991 -0.8533  0.3565
   85MOL    H4822056   4.013   2.082   5.445  0.2419  0.6312  0.9628
   85MOL    H4922057   3.945   2.278   5.549 -0.7709  3.3372  0.8016
   85MOL    H5022058   3.771   2.299   5.596  0.3199  3.9242 -1.6631
   85MOL    H5122059   3.829   2.343   5.438  0.0905 -0.4758 -0.8180
   85MOL    H5222060   3.617   2.116   5.562 -1.4064  1.1957 -0.6015
   85MOL    H5322061   3.661   1.974   5.467  1.8079  0.5455  1.3631
   85MOL    C5422062   3.580   2.141   5.354 -0.2125 -0.1101 -0.8750
   85MOL    C5522063   3.437   2.155   5.397  0.6321  0.4752  0.0770
   85MOL    C5622064   3.373   2.264   5.448 -0.1682  0.6317 -0.5202
   85MOL    C5722065   3.230   2.239   5.490  0.1516 -0.2369 -0.3350
   85MOL    C5822066   3.428   2.404   5.449  0.4245  0.0054  0.3583
   85MOL    H5922067   3.574   2.067   5.274  1.1878 -0.4405 -0.6869
   85MOL    H6022068   3.618   2.241   5.331  0.7387 -0.3228 -0.2792
   85MOL    H6122069   3.377   2.066   5.386  0.6884  0.4720 -0.2137
   85MOL    H6222070   3.199   2.145   5.445 -3.1834  1.4974 -1.7937
   85MOL    H6322071   3.158   2.311   5.452  1.1400  0.5668 -0.7253
   85MOL    H6422072   3.221   2.233   5.598 -1.9684 -0.4444 -0.5016
   85MOL    H6522073   3.536   2.411   5.459  0.4762 -1.4853  0.9290
   85MOL    H6622074   3.396   2.455   5.540  1.1454 -2.4685  2.0335
   85MOL    C6722075   3.381   2.486   5.333  0.2918 -0.1271  0.6081
   85MOL    C6822076   3.405   2.637   5.355 -0.4396 -0.4531  0.0127
   85MOL    C6922077   3.524   2.694   5.325  0.1860  0.3027 -0.3434
   85MOL    C7022078   3.544   2.838   5.358 -0.0346 -0.1521  0.1880
   85MOL    C7122079   3.643   2.626   5.263  0.1419 -0.2327  0.3613
   85MOL    H7222080   3.272   2.476   5.340  0.0448  2.4538  0.8749
   85MOL    H7322081   3.407   2.458   5.231  1.1344 -1.0828  1.0771
   85MOL    H7422082   3.327   2.691   5.407 -1.5341 -1.1247 -0.8905
   85MOL    H7522083   3.454   2.874   5.408 -0.2868 -1.6431  0.8438
   85MOL    H7622084   3.578   2.910   5.283  0.9902 -0.7676  0.0472
   85MOL    H7722085   3.615   2.844   5.440  0.9685 -2.0458 -0.5162
   85MOL    H7822086   3.636   2.518   5.269  0.1997 -0.2945 -0.5809
   85MOL    H7922087   3.733   2.663   5.313 -0.6348 -0.0984  1.6753
   85MOL    C8022088   3.654   2.645   5.108  0.3552 -0.3825  0.2852
   85MOL    C8122089   3.780   2.582   5.057  0.4773 -0.7293  0.3055
   85MOL    C8222090   3.831   2.606   4.938  0.3003 -0.3997  1.0206
   85MOL    C8322091   3.766   2.703   4.837  0.1945 -0.0407  0.0215
   85MOL    C8422092   3.957   2.532   4.895 -0.7788  0.4798  0.1139
   85MOL    H8522093   3.659   2.751   5.081 -1.6640 -0.3653 -0.0947
   85MOL    H8622094   3.568   2.601   5.058 -0.7491  2.2711 -0.2188
   85MOL    H8722095   3.835   2.513   5.119  1.9411  0.9447  0.9190
   85MOL    H8822096   3.715   2.646   4.759  0.2199 -1.1886  0.8273
   85MOL    H8922097   3.834   2.773   4.788  0.2618 -1.2392 -1.6107
   85MOL    H9022098   3.692   2.770   4.880  0.0611  0.9145 -1.6577
   85MOL    H9122099   3.950   2.524   4.787  0.3817  1.2550 -0.0244
   85MOL    H9222100   3.951   2.429   4.931  0.6150  0.4937  0.3953
   85MOL    C9322101   4.083   2.622   4.922 -0.2479 -0.4038 -0.1081
   85MOL    C9422102   4.200   2.549   4.865  0.0224 -0.6342 -0.2492
   85MOL    C9522103   4.290   2.602   4.781  0.7850 -0.5081 -0.0456
   85MOL    C9622104   4.418   2.536   4.748  0.2104  0.0794  0.3112
   85MOL    C9722105   4.276   2.741   4.719 -0.3257 -0.9028 -0.7461
   85MOL    H9822106   4.081   2.622   5.031 -0.1076  1.7612 -0.0948
   85MOL    H9922107   4.071   2.720   4.877  0.9510 -1.1694 -2.1697
   85MOL   H10022108   4.216   2.447   4.896  0.3865 -0.2144  0.9600
   85MOL   H10122109   4.411   2.428   4.759 -1.1140  0.2104  0.8538
   85MOL   H10222110   4.464   2.558   4.652  0.8268  0.6547  0.7345
   85MOL   H10322111   4.489   2.581   4.818 -0.4774 -1.1096  1.8059
   85MOL   H10422112   4.173   2.775   4.716  0.1821  0.9085  1.0100
   85MOL   H10522113   4.307   2.730   4.615  0.2327 -1.0227 -0.5706
   85MOL   C10622114   4.364   2.850   4.785 -0.1670 -0.6865 -0.1530
   85MOL   C10722115   4.330   2.988   4.729 -0.3317 -0.0377  0.7372
   85MOL   C10822116   4.304   3.097   4.807  0.0866  0.1929 -0.3297
   85MOL   C10922117   4.368   3.112   4.943  0.0706  0.1377  0.3045
   85MOL   C11022118   4.258   3.224   4.748  0.0329  0.4743  0.0565
   85MOL   H11122119   4.466   2.817   4.764 -0.4694 -1.5547 -0.3178
   85MOL   H11222120   4.349   2.855   4.892  0.4549  2.1138 -0.1659
   85MOL   H11322121   4.310   3.000   4.624 -1.9125 -1.7512  0.8068
   85MOL   H11422122   4.433   3.200   4.945  0.9015 -0.3109 -3.0185
   85MOL   H11522123   4.283   3.114   5.011 -0.6330 -2.2277 -0.4550
   85MOL   H11622124   4.430   3.028   4.974 -1.5721 -1.9721 -1.8840
   85MOL   H11722125   4.238   3.217   4.641  0.8314 -0.3371 -0.0447
   85MOL   H11822126   4.327   3.307   4.764  0.0308  0.3687  0.6363
   85MOL   C11922127   4.125   3.268   4.816  0.0546 -0.4994  0.3592
   85MOL   C12022128   4.065   3.405   4.783 -0.2307  0.4527  0.1078
   85MOL   C12122129   3.982   3.476   4.856 -0.4285  0.3122 -0.1276
   85MOL   C12222130   3.938   3.606   4.790 -0.3732  0.1900 -0.4153
   85MOL   C12322131   3.921   3.436   4.983  0.4851  0.6885 -0.0936
   85MOL   H12422132   4.151   3.282   4.921 -0.8318 -1.2091  0.6704
   85MOL   H12522133   4.043   3.198   4.828  0.7885 -1.4286 -0.0346
   85MOL   H12622134   4.095   3.454   4.691  1.2094 -1.3943 -0.4549
   85MOL   H12722135   3.892   3.587   4.693 -1.0026  3.6252 -0.8844
   85MOL   H12822136   4.025   3.667   4.766 -0.7947  1.9346  2.2314
   85MOL   H12922137   3.878   3.673   4.852 -0.2798  1.3894 -1.6013
   85MOL   H13022138   3.944   3.330   4.995  0.7618  0.4452 -2.5388
   85MOL   H13122139   3.815   3.428   4.963  0.3759  2.7253 -0.3588
   85MOL   C13222140   3.941   3.533   5.096 -0.0131  0.4930 -0.3201
   85MOL   C13322141   3.875   3.492   5.224  0.3463  0.0921 -0.3884
   85MOL   C13422142   3.934   3.417   5.326  0.4892  0.3735 -0.7474
   85MOL   C13522143   3.846   3.391   5.450 -0.1045  0.5067 -0.1471
   85MOL   C13622144   4.068   3.346   5.326  0.3331  0.3348  0.3997
   85MOL   H13722145   3.905   3.633   5.071 -2.4066 -0.4490 -0.7548
   85MOL   H13822146   4.047   3.541   5.121 -0.2633 -1.7354  1.5838
   85MOL   H13922147   3.775   3.531   5.234  0.3324 -0.2695  1.0123
   85MOL   H14022148   3.820   3.286   5.462  0.7371  0.3804  0.6574
   85MOL   H14122149   3.752   3.444   5.439 -0.4250 -0.6053 -3.1095
   85MOL   H14222150   3.898   3.423   5.540  0.6634 -1.8155  0.2836
   85MOL   H14322151   4.105   3.357   5.428  1.8428 -3.0323  0.2579
   85MOL   H14422152   4.138   3.393   5.258 -0.6690 -0.2117 -1.0504
   85MOL   C14522153   4.058   3.198   5.288 -0.3390 -0.1807 -0.2281
   85MOL   C14622154   4.185   3.114   5.290  0.0443  0.3766 -0.7176
   85MOL   C14722155   4.199   2.988   5.239  0.0244 -0.9807  0.8415
   85MOL   C14822156   4.333   2.911   5.248 -0.5639 -0.3387 -0.3256
   85MOL   C14922157   4.091   2.919   5.158 -0.4042 -0.3810  0.1763
   85MOL   H15022158   4.036   3.189   5.181 -1.5106  1.3261 -0.1356
   85MOL   H15122159   3.981   3.158   5.353  0.5928  0.7064  1.4419
   85MOL   H15222160   4.272   3.150   5.343 -1.0865  1.6803  0.2823
   85MOL   H15322161   4.418   2.979   5.254 -0.5479 -0.5291  2.6972
   85MOL   H15422162   4.347   2.875   5.146 -3.8815 -0.8940 -0.6184
   85MOL   H15522163   4.353   2.822   5.309  1.7680 -1.3593 -2.4938
   85MOL   H15622164   4.145   2.890   5.068 -0.3634 -1.3797  0.5204
   85MOL   H15722165   4.023   2.998   5.127 -1.5186 -0.4577  2.3168
   85MOL   C15822166   4.011   2.810   5.228  0.5629  0.6951  0.0621
   85MOL   C15922167   3.957   2.849   5.367  0.2336  0.2792 -1.1145
   85MOL   C16022168   3.971   2.787   5.486  0.2853  0.3391  0.0237
   85MOL   C16122169   4.046   2.657   5.507 -0.4885 -0.3141  0.2178
   85MOL   C16222170   3.908   2.841   5.612  0.2118 -0.5764  0.4596
   85MOL   H16322171   4.067   2.716   5.238  1.2073  0.8289 -1.9343
   85MOL   H16422172   3.926   2.783   5.165  0.3219 -1.5765  1.3082
   85MOL   H16522173   3.893   2.936   5.360 -0.9349 -0.6835 -2.8513
   85MOL   H16622174   4.133   2.649   5.441  0.5964 -0.1052  1.5800
   85MOL   H16722175   3.979   2.575   5.483 -0.2596 -1.0773  2.0768
   85MOL   H16822176   4.077   2.640   5.610 -2.4023 -0.2097  0.8172
   85MOL   H16922177   3.850   2.769   5.670 -1.4577  0.6129  0.2963
   85MOL   H17022178   3.835   2.917   5.582 -0.3670 -0.6665  1.6069
   85MOL   C17122179   4.013   2.911   5.699  0.3594  0.0309 -0.3267
   85MOL   C17222180   4.004   2.883   5.855  0.3897 -0.2232  0.0279
   85MOL   C17322181   4.103   2.835   5.929  0.0887 -0.4558 -0.0820
   85MOL   C17422182   4.246   2.810   5.887 -0.1402  0.7492  0.2208
   85MOL   C17522183   4.076   2.799   6.071 -0.8721  0.7344 -0.3377
   85MOL   H17622184   4.002   3.018   5.681 -3.0001 -0.4495 -1.3423
   85MOL   H17722185   4.112   2.882   5.664  0.1908  0.5544 -1.2556
   85MOL   H17822186   3.905   2.899   5.893  0.1312 -0.3102 -0.6181
   85MOL   H17922187   4.318   2.813   5.969 -0.9116  1.9840  0.8697
   85MOL   H18022188   4.273   2.886   5.814  0.6130  0.9446  0.6986
   85MOL   H18122189   4.239   2.717   5.831  1.6528  0.0625  1.1051
   85MOL   H18222190   4.083   2.885   6.137 -0.5621 -0.9028  1.8365
   85MOL   H18322191   4.150   2.724   6.103 -1.7899 -0.8706 -1.8981
   85MOL   C18422192   3.943   2.733   6.106 -0.1547  0.2318 -0.1039
   85MOL   C18522193   3.934   2.676   6.249  0.0721  0.1371  0.3285
   85MOL   C18622194   3.889   2.556   6.287  0.4271  0.8916 -0.8322
   85MOL   C18722195   3.868   2.514   6.431  0.2590  0.0254 -0.1926
   85MOL   C18822196   3.845   2.449   6.181 -0.2290 -0.3054  0.4967
   85MOL   H18922197   3.934   2.646   6.042  0.2751  1.5681 -2.0461
   85MOL   H19022198   3.861   2.805   6.097  1.4330  2.1782  0.6133
   85MOL   H19122199   3.954   2.735   6.337  0.1534 -0.4642  0.7164
   85MOL   H19222200   3.830   2.588   6.501 -0.5222 -1.0254  0.5105
   85MOL   H19322201   3.958   2.482   6.482 -1.3957 -3.5736  0.6207
   85MOL   H19422202   3.792   2.437   6.441  0.6229  0.0035  2.9087
   85MOL   H19522203   3.850   2.469   6.074 -0.3162  1.5686  0.8249
   85MOL   H19622204   3.736   2.443   6.181 -0.2106 -0.6076  0.4153
   85MOL   C19722205   3.886   2.310   6.204  0.1411 -0.4499 -0.0900
   85MOL   C19822206   3.856   2.228   6.082  0.8124 -0.3535 -1.0616
   85MOL   C19922207   3.760   2.138   6.062  0.2891 -0.1454  0.1963
   85MOL   C20022208   3.756   2.065   5.935 -0.7829 -0.4968  0.6557
   85MOL   C20122209   3.641   2.103   6.149 -0.1447 -0.0565 -0.0846
   85MOL   H20222210   3.831   2.266   6.288 -0.7283 -1.1768 -1.0150
   85MOL   H20322211   3.989   2.286   6.230  0.0422 -1.6682 -0.7843
   85MOL   H20422212   3.925   2.249   6.002  0.3771  3.8500 -0.4073
   85MOL   H20522213   3.651   2.076   5.907 -1.2253  0.1049  2.4580
   85MOL   H20622214   3.782   1.961   5.954  1.7390 -0.0436 -0.2281
   85MOL   H20722215   3.830   2.105   5.866  0.2563 -1.7618  1.0176
   85MOL   H20822216   3.545   2.088   6.099 -1.5708 -0.8385  2.7900
   85MOL   H20922217   3.604   2.191   6.202  0.6414 -0.2868  0.8671
   85MOL   C21022218   3.677   1.984   6.249 -0.3607  0.2456  0.2921
   85MOL   C21122219   3.547   1.943   6.330  0.3128  0.9301  0.8450
   85MOL   C21222220   3.515   1.944   6.461 -0.3595 -0.1797 -0.5132
   85MOL   C21322221   3.380   1.909   6.513 -0.4751 -0.1208  1.0172
   85MOL   C21422222   3.617   1.975   6.568 -0.4892 -0.3003  0.1574
   85MOL   H21522223   3.759   2.011   6.316  0.8360  0.8783 -1.4110
   85MOL   H21622224   3.719   1.899   6.194 -1.2081 -0.2553  0.4075
   85MOL   H21722225   3.474   1.917   6.255  1.6867  2.4159 -1.0774
   85MOL   H21822226   3.315   1.875   6.432 -0.3511  2.0402 -0.0229
   85MOL   H21922227   3.334   1.990   6.570  0.2248  0.0174  1.3946
   85MOL   H22022228   3.387   1.828   6.585  1.1857 -0.6662  0.2624
   85MOL   H22122229   3.718   1.979   6.525 -0.9312  0.3043 -0.8442
   85MOL   H22222230   3.620   1.890   6.637 -2.1283 -0.4927  0.0144
   85MOL   C22322231   3.587   2.116   6.625  0.2792  0.4358  0.5519
   85MOL   C22422232   3.556   2.218   6.518  0.0801  0.2407 -0.1839
   85MOL   C22522233   3.448   2.300   6.508 -0.3241 -0.0464  0.5472
   85MOL   C22622234   3.429   2.387   6.388  0.1216  0.4535 -0.1870
   85MOL   C22722235   3.326   2.293   6.600 -0.0336  1.0811 -0.0027
   85MOL   H22822236   3.666   2.145   6.694 -0.3269 -0.7370  1.7570
   85MOL   H22922237   3.496   2.107   6.685 -0.5048 -2.9715 -1.0622
   85MOL   H23022238   3.638   2.227   6.449 -1.1150 -0.3065 -1.6980
   85MOL   H23122239   3.384   2.479   6.424  1.4533  0.2968  1.9766
   85MOL   H23222240   3.363   2.336   6.317 -0.5950 -0.6324  1.2390
   85MOL   H23322241   3.528   2.407   6.346 -0.0837  1.1314 -0.3581
   85MOL   H23422242   3.304   2.187   6.605  0.4315  1.0514  1.5197
   85MOL   H23522243   3.246   2.344   6.546  2.3480  1.0638 -3.7484
   85MOL   C23622244   3.345   2.345   6.738 -0.2613  0.2431  0.9584
   85MOL   C23722245   3.227   2.309   6.826  0.2179 -0.6350 -0.8371
   85MOL   C23822246   3.230   2.221   6.928 -0.6343  0.2126 -0.5915
   85MOL   C23922247   3.110   2.190   7.004  0.0065  0.3191  0.4087
   85MOL   C24022248   3.354   2.146   6.976 -0.5403 -0.0516 -0.3743
   85MOL   H24122249   3.346   2.452   6.716 -0.8534 -0.5135 -3.0976
   85MOL   H24222250   3.445   2.313   6.767 -0.0748 -0.4902 -0.4511
   85MOL   H24322251   3.133   2.354   6.797 -0.5334 -2.6578 -1.6697
   85MOL   H24422252   3.072   2.096   6.964 -1.9555  0.1254  2.5756
   85MOL   H24522253   3.032   2.266   7.005 -1.2374 -0.9078 -1.0496
   85MOL   H24622254   3.141   2.177   7.108 -1.3634  1.3993  0.9635
   85MOL   H24722255   3.371   2.173   7.081 -0.3504 -0.0672 -0.4003
   85MOL   H24822256   3.442   2.176   6.920 -0.7904  0.6772 -0.3903
   85MOL   C24922257   3.340   1.994   6.974 -0.7004  0.0814  0.0415
   85MOL   C25022258   3.481   1.926   6.968 -0.2599  0.2950  0.0348
   85MOL   C25122259   3.520   1.802   6.929  0.9932 -1.1979 -0.3106
   85MOL   C25222260   3.665   1.773   6.929 -0.4950  0.4187 -0.2692
   85MOL   C25322261   3.428   1.692   6.894  0.1006 -0.7477 -0.1583
   85MOL   H25422262   3.277   1.979   6.887 -0.7016 -0.4497  0.1316
   85MOL   H25522263   3.285   1.964   7.063 -2.0819 -1.7569 -1.4129
   85MOL   H25622264   3.565   1.990   6.994 -0.4130  0.4334  0.1869
   85MOL   H25722265   3.728   1.855   6.965  1.2280 -2.2674  3.0903
   85MOL   H25822266   3.700   1.754   6.827  0.2267  0.9083 -0.1250
   85MOL   H25922267   3.688   1.685   6.989 -0.4959  0.9140  0.4620
   85MOL   H26022268   3.460   1.639   6.804  2.9295 -0.1254  0.4649
   85MOL   H26122269   3.323   1.719   6.880 -0.2606 -2.5993 -1.2246
   85MOL   H26222270   3.441   1.613   6.968 -2.5782 -2.7422 -1.6772
   86MOL     C122271   1.949   4.476   1.298 -0.2904 -0.2906 -0.1685
   86MOL     C222272   2.091   4.420   1.317 -0.6099 -0.0829  0.5153
   86MOL     C322273   2.182   4.413   1.218  0.6526 -0.4399  0.0875
   86MOL     C422274   2.316   4.352   1.237  0.1986 -0.0048  0.3675
   86MOL     C522275   2.153   4.455   1.079 -0.4120  0.0212 -0.3654
   86MOL     H622276   1.897   4.497   1.391 -0.4427  0.2984 -0.3831
   86MOL     H722277   1.941   4.563   1.232 -2.2790  1.0580  1.7727
   86MOL     H822278   2.113   4.384   1.416 -1.8946 -1.8164  0.2016
   86MOL     H922279   2.391   4.432   1.228  0.7777 -0.3880  1.5985
   86MOL    H1022280   2.349   4.273   1.170 -0.4792 -1.0093  1.2091
   86MOL    H1122281   2.337   4.316   1.338  0.7556  0.8257  0.5539
   86MOL    H1222282   2.048   4.454   1.051  0.3941 -1.9296 -3.5217
   86MOL    H1322283   2.181   4.370   1.017 -1.3111 -1.5114  1.2637
   86MOL    H1422284   1.881   4.404   1.251 -0.9978 -1.0291  1.9239
   86MOL    C1522285   2.216   4.595   1.055 -0.9508  1.1088  1.3414
   86MOL    C1622286   2.153   4.655   0.935  0.1677  0.0984  0.1369
   86MOL    C1722287   2.213   4.705   0.831  0.8595  0.4499 -0.8597
   86MOL    C1822288   2.138   4.764   0.723  0.1130  0.6053 -0.3952
   86MOL    C1922289   2.363   4.717   0.818 -0.3890  0.5986 -0.3211
   86MOL    H2022290   2.324   4.583   1.044 -1.3180 -0.7320 -0.4891
   86MOL    H2122291   2.204   4.661   1.141 -0.6073  0.1601  2.1294
   86MOL    H2222292   2.046   4.667   0.945  0.2343 -0.0811  1.1098
   86MOL    H2322293   2.158   4.723   0.624 -1.1068 -2.0920  0.4352
   86MOL    H2422294   2.162   4.870   0.714 -0.0419  0.5108 -2.0127
   86MOL    H2522295   2.031   4.748   0.735  0.0318 -0.6335 -2.5202
   86MOL    H2622296   2.388   4.691   0.715  0.0846 -0.1465 -0.0232
   86MOL    H2722297   2.400   4.628   0.867  0.6899  0.8744 -0.6255
   86MOL    C2822298   2.427   4.851   0.877  0.1526  0.4087 -0.0079
   86MOL    C2922299   2.412   4.869   1.025 -0.1309  0.6988 -0.5835
   86MOL    C3022300   2.499   4.830   1.116 -1.5372 -0.5075 -0.8309
   86MOL    C3122301   2.468   4.871   1.260  0.2471 -0.3524  0.1775
   86MOL    C3222302   2.619   4.744   1.091 -0.1021 -0.0392  0.2106
   86MOL    H3322303   2.388   4.944   0.836 -1.7683 -0.6878 -0.7012
   86MOL    H3422304   2.534   4.844   0.859  0.1908 -0.2350  0.4365
   86MOL    H3522305   2.324   4.926   1.052 -0.3270  0.5324 -0.8633
   86MOL    H3622306   2.554   4.921   1.304  1.3792 -0.1152 -2.2171
   86MOL    H3722307   2.447   4.782   1.319  0.8073 -1.2447 -0.9482
   86MOL    H3822308   2.394   4.950   1.276  0.3559 -0.4208  1.0696
   86MOL    H3922309   2.587   4.670   1.018 -1.7797  2.7653 -2.0259
   86MOL    H4022310   2.632   4.680   1.178  0.6929  0.7877  0.7076
   86MOL    C4122311   2.736   4.825   1.059  0.0002 -0.4183 -0.3322
   86MOL    C4222312   2.860   4.739   1.055 -0.2181  0.0746  0.4338
   86MOL    C4322313   2.927   4.688   0.952 -0.1035 -0.4469  0.2566
   86MOL    C4422314   3.038   4.587   0.975 -0.0435  0.3931  0.2528
   86MOL    C4522315   2.901   4.719   0.798 -0.1474 -0.5577 -0.1966
   86MOL    H4622316   2.757   4.893   1.142 -1.4149  1.6213 -1.6184
   86MOL    H4722317   2.724   4.883   0.968 -2.3387  0.0465  0.2428
   86MOL    H4822318   2.897   4.709   1.152  2.1137  1.7886  0.1351
   86MOL    H4922319   3.135   4.636   0.982  0.3708 -0.3485 -0.3362
   86MOL    H5022320   3.039   4.511   0.898  1.2934  1.4487 -0.8142
   86MOL    H5122321   3.032   4.532   1.069  1.8994  0.1543  0.2571
   86MOL    H5222322   2.990   4.748   0.743 -1.2011  1.0259 -1.0871
   86MOL    H5322323   2.843   4.811   0.799 -0.4415 -0.7088  3.9045
   86MOL    C5422324   2.836   4.605   0.718  0.7801 -0.7698  0.3150
   86MOL    C5522325   2.752   4.636   0.594  0.3988 -0.6185  0.2729
   86MOL    C5622326   2.777   4.598   0.465  0.1223 -0.2417 -0.0126
   86MOL    C5722327   2.683   4.618   0.348  0.4102 -0.4354  0.5798
   86MOL    C5822328   2.910   4.544   0.421  0.1815 -0.5954 -0.4486
   86MOL    H5922329   2.777   4.554   0.794 -0.7442  0.8171  0.2110
   86MOL    H6022330   2.926   4.550   0.688  0.6931 -0.9493  0.3818
   86MOL    H6122331   2.653   4.670   0.619 -0.4023 -0.3360 -3.0269
   86MOL    H6222332   2.589   4.668   0.373 -0.6784 -2.0750 -0.1096
   86MOL    H6322333   2.655   4.524   0.302  1.5770 -0.0811 -0.8665
   86MOL    H6422334   2.735   4.676   0.273  1.8117 -1.5478  0.6693
   86MOL    H6522335   2.981   4.567   0.502 -0.5223  1.7692 -0.4572
   86MOL    H6622336   2.951   4.599   0.336  1.2853  0.0318  0.4621
   86MOL    C6722337   2.914   4.395   0.404 -0.0267  0.7129 -0.2244
   86MOL    C6822338   3.051   4.341   0.389 -0.2979  0.0018 -0.5377
   86MOL    C6922339   3.103   4.230   0.447 -0.0018  0.0089  0.4980
   86MOL    C7022340   3.251   4.186   0.422 -0.5420  0.8241  0.1312
   86MOL    C7122341   3.020   4.141   0.538 -0.4897 -0.0403  0.2895
   86MOL    H7222342   2.862   4.373   0.311  0.4176 -2.0245  0.1481
   86MOL    H7322343   2.877   4.358   0.499 -2.9747  1.1579 -1.1609
   86MOL    H7422344   3.119   4.402   0.332 -0.4581  2.1114  1.4342
   86MOL    H7522345   3.312   4.262   0.373 -0.0009  1.6061  1.9815
   86MOL    H7622346   3.253   4.098   0.358  0.8964  1.9975 -1.4975
   86MOL    H7722347   3.304   4.163   0.514  2.6378 -0.7096 -1.9817
   86MOL    H7822348   2.970   4.186   0.624 -1.0185 -1.1881  0.5934
   86MOL    H7922349   3.090   4.069   0.579  0.0482  0.4931  0.3215
   86MOL    C8022350   2.915   4.060   0.460 -0.0642  0.5172 -0.6324
   86MOL    C8122351   2.857   3.943   0.536 -0.0753  0.2293  0.4489
   86MOL    C8222352   2.727   3.922   0.577 -0.2744 -0.9535 -0.3119
   86MOL    C8322353   2.619   4.027   0.547  0.8486  0.5980  0.7589
   86MOL    C8422354   2.681   3.807   0.660  0.5393  0.0280  0.3293
   86MOL    H8522355   2.970   4.025   0.372 -1.8928 -1.6727 -0.9546
   86MOL    H8622356   2.836   4.124   0.420 -0.1912 -0.3536 -1.8149
   86MOL    H8722357   2.932   3.878   0.579  0.5864  0.0306 -0.9686
   86MOL    H8822358   2.655   4.129   0.539  0.5581  0.6476  0.1254
   86MOL    H8922359   2.556   4.030   0.636  0.7993  3.1170  0.6707
   86MOL    H9022360   2.551   4.000   0.467 -0.6170  0.1561  2.1272
   86MOL    H9122361   2.645   3.859   0.749  2.8334 -0.3040  1.4829
   86MOL    H9222362   2.758   3.745   0.706  0.7746  1.0270  1.3313
   86MOL    C9322363   2.571   3.729   0.587  0.1920  0.2356 -0.2460
   86MOL    C9422364   2.507   3.629   0.680 -1.0589 -0.1792 -0.8913
   86MOL    C9522365   2.531   3.498   0.691  0.1833  0.2671 -0.1701
   86MOL    C9622366   2.456   3.413   0.788 -0.0849  0.6772  0.4186
   86MOL    C9722367   2.643   3.423   0.614  0.0564  0.3301  0.2724
   86MOL    H9822368   2.621   3.691   0.498  0.7220  0.9402 -0.2557
   86MOL    H9922369   2.495   3.793   0.541 -2.0127 -0.9831  1.5596
   86MOL   H10022370   2.446   3.690   0.745  1.5363  0.2713  1.1826
   86MOL   H10122371   2.523   3.362   0.856  1.6832  1.4341 -0.7326
   86MOL   H10222372   2.378   3.460   0.848  0.0506  1.1279  0.2463
   86MOL   H10322373   2.404   3.331   0.738 -0.3948 -0.1611  2.1046
   86MOL   H10422374   2.690   3.487   0.539 -1.7354  0.4506 -0.7801
   86MOL   H10522375   2.604   3.342   0.553 -1.6042  0.3175  1.3140
   86MOL   C10622376   2.761   3.373   0.705 -0.2050  0.2885  0.2133
   86MOL   C10722377   2.869   3.302   0.631 -0.0792 -0.2582 -0.3725
   86MOL   C10822378   2.984   3.352   0.595 -0.4552 -0.2046 -0.8593
   86MOL   C10922379   3.022   3.501   0.613  0.1543 -0.1746 -0.3028
   86MOL   C11022380   3.095   3.268   0.549  0.3812 -0.3986  0.0953
   86MOL   H11122381   2.716   3.313   0.784  1.5632  0.9234  1.7410
   86MOL   H11222382   2.805   3.462   0.750 -0.0913  0.3545 -0.0231
   86MOL   H11322383   2.862   3.195   0.621  0.4736 -0.2526 -0.8297
   86MOL   H11422384   3.063   3.512   0.713 -3.1189 -1.1516  1.2229
   86MOL   H11522385   3.088   3.528   0.531  1.3698 -2.2071 -0.0118
   86MOL   H11622386   2.934   3.565   0.606 -0.3943 -0.5701  2.5516
   86MOL   H11722387   3.117   3.319   0.455 -2.4646 -1.5328 -1.2601
   86MOL   H11822388   3.065   3.168   0.516 -0.5935 -0.1090  0.0857
   86MOL   C11922389   3.202   3.248   0.658  0.7048  0.4287 -0.1181
   86MOL   C12022390   3.302   3.138   0.618  0.3649 -0.5749  0.3156
   86MOL   C12122391   3.425   3.115   0.677 -0.0834  0.3894 -0.0510
   86MOL   C12222392   3.514   3.006   0.629  0.2275 -0.0654  0.6035
   86MOL   C12322393   3.485   3.202   0.788  0.7816  0.3500  0.4949
   86MOL   H12422394   3.158   3.235   0.757 -2.4151 -0.4377 -1.5337
   86MOL   H12522395   3.252   3.344   0.670 -0.2278  0.8286  0.6465
   86MOL   H12622396   3.276   3.081   0.530  0.7915 -0.6427  0.2352
   86MOL   H12722397   3.478   2.913   0.672 -0.6284  0.2532  0.5928
   86MOL   H12822398   3.616   3.009   0.667  0.5790 -0.3954 -0.2936
   86MOL   H12922399   3.515   3.004   0.520 -0.7029  0.1201  0.5878
   86MOL   H13022400   3.437   3.299   0.803 -1.3707 -0.5738 -0.3432
   86MOL   H13122401   3.585   3.218   0.748  0.4026  1.0580 -0.1781
   86MOL   C13222402   3.493   3.122   0.913  1.0877  0.0011  1.3328
   86MOL   C13322403   3.528   3.195   1.029 -0.9700 -0.2477  0.0637
   86MOL   C13422404   3.652   3.234   1.064 -0.1556  0.9165 -0.9138
   86MOL   C13522405   3.692   3.317   1.182 -0.2345 -1.3243 -0.1500
   86MOL   C13622406   3.774   3.194   0.978 -0.4062  0.5990 -0.6025
   86MOL   H13722407   3.569   3.045   0.899  0.5563 -0.2171 -0.5544
   86MOL   H13822408   3.396   3.074   0.926  1.9745 -1.9977  0.7946
   86MOL   H13922409   3.439   3.230   1.080 -1.6562  0.1955 -1.4099
   86MOL   H14022410   3.608   3.356   1.239  0.9931 -0.8140  1.3397
   86MOL   H14122411   3.741   3.401   1.132  0.5385 -0.2460  2.3578
   86MOL   H14222412   3.767   3.276   1.249 -0.3380  0.6921  1.2262
   86MOL   H14322413   3.836   3.283   0.979  1.0976 -0.4238 -0.2017
   86MOL   H14422414   3.748   3.177   0.873  1.0989  0.1248 -0.9155
   86MOL   C14522415   3.860   3.073   1.025 -0.4483 -0.3776  0.0984
   86MOL   C14622416   3.809   2.941   0.977  0.5245  0.2594 -0.4337
   86MOL   C14722417   3.742   2.850   1.046  0.2476  0.4384 -0.5354
   86MOL   C14822418   3.713   2.709   0.985  0.6260  0.3036  0.6033
   86MOL   C14922419   3.708   2.848   1.192 -0.3171 -0.7419  0.5276
   86MOL   H15022420   3.864   3.077   1.134  0.3781 -1.3778  0.1115
   86MOL   H15122421   3.960   3.085   0.984 -0.6889  0.9890 -0.1091
   86MOL   H15222422   3.828   2.919   0.873  0.3125  0.9703 -0.6278
   86MOL   H15322423   3.684   2.714   0.880  0.7106  0.0547  0.5695
   86MOL   H15422424   3.624   2.670   1.036  1.2207  0.1639  1.5513
   86MOL   H15522425   3.783   2.633   1.018  0.7997  0.0705 -0.3158
   86MOL   H15622426   3.761   2.933   1.236 -1.1000  1.1471 -2.0497
   86MOL   H15722427   3.739   2.756   1.241 -0.2350 -1.9389 -1.7190
   86MOL   C15822428   3.557   2.871   1.219 -0.1547 -0.7503 -0.1097
   86MOL   C15922429   3.518   2.864   1.367  1.0279 -0.1865 -0.3026
   86MOL   C16022430   3.443   2.951   1.444 -0.2379 -0.3562  0.2802
   86MOL   C16122431   3.371   3.080   1.397 -0.2702 -0.0080  0.0320
   86MOL   C16222432   3.424   2.915   1.590  0.8330 -0.0596  0.0291
   86MOL   H16322433   3.502   2.788   1.173 -0.0799 -0.3340 -0.9398
   86MOL   H16422434   3.539   2.972   1.182  1.8840  0.0119  0.9111
   86MOL   H16522435   3.547   2.772   1.416  1.4644 -0.5128 -1.1432
   86MOL   H16622436   3.393   3.166   1.459  1.7172 -0.8270  0.5062
   86MOL   H16722437   3.267   3.048   1.403 -1.1494  2.4768 -1.5344
   86MOL   H16822438   3.397   3.109   1.295 -0.1036  1.1456  0.3992
   86MOL   H16922439   3.436   2.808   1.606  3.0968 -0.1341 -1.8993
   86MOL   H17022440   3.323   2.926   1.629  0.7259 -0.2731 -0.1839
   86MOL   C17122441   3.530   2.994   1.670  0.0142  0.4058 -0.1300
   86MOL   C17222442   3.561   2.929   1.802  0.5052  0.3776  0.0619
   86MOL   C17322443   3.533   2.975   1.930 -0.1844  0.6628  0.8383
   86MOL   C17422444   3.475   3.107   1.952 -0.2298 -0.3199  0.1821
   86MOL   C17522445   3.581   2.893   2.053  0.0954 -0.6824 -0.3037
   86MOL   H17622446   3.497   3.097   1.682 -0.9871 -0.0394  1.0343
   86MOL   H17722447   3.622   2.992   1.611  0.6511  0.4536  0.8513
   86MOL   H17822448   3.607   2.831   1.794 -0.2060  0.2113 -2.2308
   86MOL   H17922449   3.415   3.109   2.043 -0.9089 -1.4630 -0.2301
   86MOL   H18022450   3.406   3.132   1.871  3.4458  0.5432 -2.8809
   86MOL   H18122451   3.545   3.190   1.960 -0.1157 -0.2947 -0.9368
   86MOL   H18222452   3.628   2.801   2.018 -0.3385 -0.6288 -1.0350
   86MOL   H18322453   3.493   2.859   2.107  0.0342 -0.2099 -0.1008
   86MOL   C18422454   3.663   2.982   2.153  0.1245  0.6201  0.5153
   86MOL   C18522455   3.727   2.899   2.268  0.3286 -0.3535  0.2313
   86MOL   C18622456   3.833   2.942   2.333 -0.0159 -0.3597 -0.3678
   86MOL   C18722457   3.894   2.863   2.449  0.0511 -0.0803  0.0916
   86MOL   C18822458   3.894   3.079   2.315  0.0285 -0.5600 -0.6356
   86MOL   H18922459   3.591   3.047   2.201 -0.8257  1.6177 -2.1942
   86MOL   H19022460   3.742   3.033   2.098 -0.4258 -0.5643 -1.4260
   86MOL   H19122461   3.676   2.806   2.284 -0.8092  0.1481 -0.3836
   86MOL   H19222462   3.910   2.939   2.526  0.5817 -0.5263  0.4240
   86MOL   H19322463   3.996   2.825   2.437  0.5240  1.1652  0.1032
   86MOL   H19422464   3.845   2.778   2.496 -0.1636 -0.6428 -1.1113
   86MOL   H19522465   3.896   3.108   2.210  1.9601 -0.2208 -0.5247
   86MOL   H19622466   3.998   3.083   2.348  0.1251  0.1666 -1.0282
   86MOL   C19722467   3.813   3.183   2.382  0.0488 -0.5364  0.1602
   86MOL   C19822468   3.883   3.315   2.379  0.4584  0.4938 -0.5043
   86MOL   C19922469   3.857   3.407   2.281 -0.0502  0.4391  0.1048
   86MOL   C20022470   3.923   3.546   2.284  0.1928 -0.0902 -0.3471
   86MOL   C20122471   3.777   3.368   2.144 -0.1196  0.3039 -0.7297
   86MOL   H20222472   3.791   3.176   2.489 -1.1024  0.4330  0.0092
   86MOL   H20322473   3.714   3.190   2.335 -0.7342 -2.4536  1.4565
   86MOL   H20422474   3.940   3.336   2.468 -1.2818  2.1824  0.2331
   86MOL   H20522475   3.965   3.572   2.381 -0.2426  3.2852 -1.0101
   86MOL   H20622476   3.865   3.633   2.254 -0.2138  0.8198  2.8937
   86MOL   H20722477   3.998   3.551   2.205  0.1305 -1.1455 -0.4770
   86MOL   H20822478   3.681   3.420   2.138 -0.4848 -0.0895  1.3043
   86MOL   H20922479   3.756   3.262   2.140 -0.5566  0.2253  2.2532
   86MOL   C21022480   3.849   3.421   2.015  0.0564  0.7349 -0.6194
   86MOL   C21122481   3.791   3.353   1.890 -0.0076 -0.2652  0.4753
   86MOL   C21222482   3.754   3.405   1.769  0.3664  0.7772 -0.4768
   86MOL   C21322483   3.728   3.310   1.654  0.1319 -0.0092 -0.0803
   86MOL   C21422484   3.757   3.553   1.729 -0.4413 -0.9122 -0.1391
   86MOL   H21522485   3.957   3.424   2.025  0.0015 -1.9442  1.2694
   86MOL   H21622486   3.832   3.529   2.009 -2.9035  0.4645  1.6419
   86MOL   H21722487   3.807   3.247   1.904  1.2061 -0.2118 -0.3979
   86MOL   H21822488   3.619   3.309   1.652 -0.0180 -0.0922  3.4362
   86MOL   H21922489   3.746   3.203   1.667 -3.4730 -0.5391  1.0666
   86MOL   H22022490   3.778   3.346   1.565 -2.3300 -0.6636 -1.7786
   86MOL   H22122491   3.858   3.571   1.691 -0.1858  1.3695  1.5128
   86MOL   H22222492   3.739   3.613   1.818 -0.5123  0.8713 -1.3139
   86MOL   C22322493   3.652   3.604   1.620 -0.0855 -0.7707 -0.5007
   86MOL   C22422494   3.712   3.713   1.528 -0.5972 -0.4184  1.1047
   86MOL   C22522495   3.687   3.734   1.393 -0.0443 -0.0747 -0.2265
   86MOL   C22622496   3.773   3.827   1.312 -0.0885  0.1530  0.6820
   86MOL   C22722497   3.580   3.653   1.319  0.1219  0.1305  0.0989
   86MOL   H22822498   3.564   3.640   1.673 -0.0348 -1.5751  0.1233
   86MOL   H22922499   3.624   3.516   1.562 -0.0754 -1.6887  0.8762
   86MOL   H23022500   3.783   3.781   1.573 -1.3542  0.7232  0.5736
   86MOL   H23122501   3.728   3.908   1.254 -1.2797 -0.3668  0.8706
   86MOL   H23222502   3.829   3.769   1.240 -1.6245 -0.0177 -0.4117
   86MOL   H23322503   3.842   3.866   1.386  0.4932 -2.0460  1.3049
   86MOL   H23422504   3.513   3.604   1.389 -0.1989  0.0988 -0.2281
   86MOL   H23522505   3.632   3.575   1.263  0.1965  0.6773 -0.6042
   86MOL   C23622506   3.480   3.725   1.224  0.4084 -0.3085 -0.4419
   86MOL   C23722507   3.374   3.636   1.162  0.3489  0.7210  0.2581
   86MOL   C23822508   3.385   3.577   1.036  0.5281  0.3433  0.0624
   86MOL   C23922509   3.258   3.514   0.972 -0.0640  0.6026 -0.0095
   86MOL   C24022510   3.507   3.577   0.951  0.3100  0.1730  0.2228
   86MOL   H24122511   3.530   3.776   1.141  2.7424 -0.5191  0.7946
   86MOL   H24222512   3.429   3.809   1.272 -0.6026 -0.2912 -1.5313
   86MOL   H24322513   3.288   3.641   1.227  0.3868 -0.5639  0.4142
   86MOL   H24422514   3.295   3.450   0.891 -1.2157 -0.8319  0.5671
   86MOL   H24522515   3.197   3.597   0.936 -1.8029 -0.8026 -0.3571
   86MOL   H24622516   3.213   3.460   1.056 -0.6001  1.0226 -0.0259
   86MOL   H24722517   3.531   3.472   0.934  1.9550  0.4352  0.7997
   86MOL   H24822518   3.592   3.612   1.010 -0.1737  1.1406  0.3589
   86MOL   C24922519   3.502   3.648   0.815 -0.4582  0.1222  0.4418
   86MOL   C25022520   3.493   3.798   0.811  0.3191  0.1983 -0.7273
   86MOL   C25122521   3.413   3.872   0.734 -0.1528  0.1192  0.0638
   86MOL   C25222522   3.438   4.019   0.739 -0.8681 -0.0554 -0.4256
   86MOL   C25322523   3.303   3.829   0.645 -0.4531  0.7296 -0.7155
   86MOL   H25422524   3.410   3.613   0.766  0.4633  0.2714 -1.4240
   86MOL   H25522525   3.580   3.610   0.749 -0.8851  1.9690 -1.1645
   86MOL   H25622526   3.569   3.843   0.873  1.4413 -3.4546  0.7127
   86MOL   H25722527   3.477   4.064   0.648  0.1481 -2.0782 -1.0263
   86MOL   H25822528   3.511   4.047   0.814 -0.0938  0.1621 -1.2631
   86MOL   H25922529   3.351   4.079   0.766 -1.7452 -1.3720 -0.2318
   86MOL   H26022530   3.202   3.868   0.665 -1.2570 -2.5322  1.9862
   86MOL   H26122531   3.279   3.724   0.657 -2.0093  1.3231  1.8371
   86MOL   H26222532   3.332   3.830   0.540 -0.3536 -2.7598 -0.7724
   87MOL     C122533   4.037   2.530   2.296  0.2795  0.2245 -0.0702
   87MOL     C222534   4.013   2.570   2.154 -0.4666  0.0885 -0.1872
   87MOL     C322535   3.897   2.556   2.083 -0.2528  0.4339 -0.0641
   87MOL     C422536   3.891   2.606   1.935 -0.9481  0.0897  0.0087
   87MOL     C522537   3.773   2.482   2.134  0.4264 -0.1025  0.6705
   87MOL     H622538   4.083   2.605   2.361  0.8757 -0.9115  0.8466
   87MOL     H722539   3.943   2.514   2.348  0.5115  2.1004  0.9608
   87MOL     H822540   4.096   2.617   2.103 -0.3620  0.2327  0.1106
   87MOL     H922541   3.800   2.666   1.932 -1.0201  0.0855  2.0039
   87MOL    H1022542   3.875   2.518   1.872 -1.9604  0.0668  0.2855
   87MOL    H1122543   3.978   2.659   1.898  0.7145 -1.2006  2.0019
   87MOL    H1222544   3.686   2.541   2.105  0.7654  1.6763  3.0927
   87MOL    H1322545   3.780   2.475   2.243  1.2677 -0.6535  0.5877
   87MOL    H1422546   4.091   2.436   2.314 -2.4680 -1.1729  1.1695
   87MOL    C1522547   3.770   2.347   2.059  0.2079 -0.1909 -0.1230
   87MOL    C1622548   3.684   2.246   2.131 -0.2950 -0.2688  0.1238
   87MOL    C1722549   3.725   2.137   2.195  0.4187  0.6010 -0.2457
   87MOL    C1822550   3.620   2.034   2.236 -0.3275 -0.0900  0.4689
   87MOL    C1922551   3.867   2.088   2.194 -0.1147 -1.0488 -0.4493
   87MOL    H2022552   3.872   2.307   2.057  0.9720  1.7396 -0.3751
   87MOL    H2122553   3.738   2.361   1.956 -2.7264  3.1253  1.1519
   87MOL    H2222554   3.578   2.264   2.129 -0.3903 -0.4249  2.6567
   87MOL    H2322555   3.519   2.074   2.231 -0.0157  0.6320 -0.1810
   87MOL    H2422556   3.649   1.995   2.334  1.0880  0.5753  0.3279
   87MOL    H2522557   3.637   1.953   2.164  0.8954 -0.0395  0.6808
   87MOL    H2622558   3.928   2.112   2.106  0.3478  0.5237  0.2728
   87MOL    H2722559   3.864   1.979   2.192  1.4773 -1.1170 -0.0412
   87MOL    C2822560   3.935   2.131   2.323 -0.4252 -0.0189  0.1999
   87MOL    C2922561   4.084   2.120   2.333  0.4863 -0.0669 -0.0559
   87MOL    C3022562   4.154   2.022   2.393  0.1215 -0.1630 -0.1396
   87MOL    C3122563   4.306   2.016   2.404  0.5394 -0.3565 -0.2215
   87MOL    C3222564   4.083   1.900   2.459 -0.3056 -0.2403 -0.5503
   87MOL    H3322565   3.883   2.087   2.408 -1.2301  1.2277  0.3553
   87MOL    H3422566   3.905   2.235   2.322 -0.6249 -0.0755  0.2664
   87MOL    H3522567   4.145   2.197   2.287  1.1276 -2.0220 -2.6688
   87MOL    H3622568   4.343   1.998   2.505 -0.0798 -0.2527  0.0285
   87MOL    H3722569   4.353   2.103   2.359  1.8966 -0.6543  0.5943
   87MOL    H3822570   4.349   1.939   2.340 -1.3810 -2.1271  0.5227
   87MOL    H3922571   4.146   1.812   2.445  3.1713  2.2159 -1.0606
   87MOL    H4022572   3.988   1.880   2.410 -0.2085 -0.0903 -0.8026
   87MOL    C4122573   4.047   1.925   2.607 -0.0360  0.3024  0.2640
   87MOL    C4222574   3.996   1.807   2.691 -0.2055  0.5483 -0.2724
   87MOL    C4322575   4.040   1.766   2.811 -0.1800 -0.8277 -0.1639
   87MOL    C4422576   3.989   1.637   2.861  0.6325  0.3743  0.9675
   87MOL    C4522577   4.142   1.837   2.903  0.0428 -0.0347  0.5849
   87MOL    H4622578   3.978   2.006   2.631 -0.5698 -0.0985  0.0749
   87MOL    H4722579   4.140   1.948   2.660  0.3047  0.8056 -0.5475
   87MOL    H4822580   3.937   1.738   2.634 -0.2289 -0.6142  1.1201
   87MOL    H4922581   3.906   1.666   2.925 -1.3817 -0.6499 -1.1016
   87MOL    H5022582   4.066   1.592   2.924 -0.3251 -1.0090  1.1770
   87MOL    H5122583   3.958   1.563   2.787 -0.5106  1.0632  0.7588
   87MOL    H5222584   4.114   1.810   3.005  1.8311 -1.0538  0.8137
   87MOL    H5322585   4.141   1.946   2.901  1.8047 -0.0259 -0.3571
   87MOL    C5422586   4.279   1.772   2.887 -0.5047 -0.3634 -1.3972
   87MOL    C5522587   4.377   1.817   2.995  0.4912 -0.5458 -0.4008
   87MOL    C5622588   4.452   1.753   3.091  0.1021  0.3377  0.0338
   87MOL    C5722589   4.523   1.826   3.202  0.0853 -0.2980 -0.6170
   87MOL    C5822590   4.457   1.605   3.091  0.6924 -0.2872 -0.4571
   87MOL    H5922591   4.333   1.785   2.793  3.0861  0.7973  0.7196
   87MOL    H6022592   4.271   1.665   2.907  2.3574 -0.2872  0.5493
   87MOL    H6122593   4.389   1.924   2.993  0.2197 -0.5355 -1.4241
   87MOL    H6222594   4.546   1.928   3.171 -0.4340 -0.0594 -0.2220
   87MOL    H6322595   4.623   1.787   3.220  0.7807  0.6286 -2.4130
   87MOL    H6422596   4.462   1.849   3.289  1.4315  1.9956 -0.2532
   87MOL    H6522597   4.553   1.572   3.132  0.2690 -1.4740 -0.3967
   87MOL    H6622598   4.466   1.561   2.992  2.8657 -2.5761  0.6860
   87MOL    C6722599   4.334   1.545   3.166  0.1518 -0.0751 -0.5458
   87MOL    C6822600   4.360   1.396   3.184 -0.3238 -0.2546  0.2082
   87MOL    C6922601   4.418   1.336   3.290  1.0936 -0.0662  0.7271
   87MOL    C7022602   4.440   1.189   3.293  0.0029 -0.6208  1.2444
   87MOL    C7122603   4.470   1.409   3.410 -0.6169  0.2130 -0.1012
   87MOL    H7222604   4.234   1.560   3.125 -0.4901 -0.1862  0.9594
   87MOL    H7322605   4.323   1.589   3.265  0.1400 -0.5507 -0.3331
   87MOL    H7422606   4.328   1.330   3.105 -3.2057 -0.8031  1.7615
   87MOL    H7522607   4.546   1.164   3.279 -0.3710 -1.4054 -0.2746
   87MOL    H7622608   4.374   1.141   3.221  0.3386 -0.1171  0.6003
   87MOL    H7722609   4.402   1.165   3.392  1.8268 -1.9289  1.6571
   87MOL    H7822610   4.425   1.364   3.498  1.4883  0.3686  1.0947
   87MOL    H7922611   4.441   1.514   3.404  0.5697  0.4216 -2.9442
   87MOL    C8022612   4.623   1.411   3.424  0.2252 -0.3278  0.1204
   87MOL    C8122613   4.676   1.512   3.526  0.5680  0.2157  0.1436
   87MOL    C8222614   4.766   1.610   3.501 -0.1850  0.1415  0.6426
   87MOL    C8322615   4.853   1.620   3.374 -0.0316 -0.6117  0.4593
   87MOL    C8422616   4.801   1.715   3.604 -0.1644 -0.2350 -0.1765
   87MOL    H8522617   4.674   1.415   3.328 -0.9630 -2.3131 -0.6379
   87MOL    H8622618   4.658   1.315   3.462  1.1071  0.7140  1.9710
   87MOL    H8722619   4.629   1.492   3.621 -0.7710  1.9787 -0.1273
   87MOL    H8822620   4.848   1.543   3.298  0.6996 -0.0795 -0.1381
   87MOL    H8922621   4.959   1.646   3.388  0.3195  0.9236 -4.3684
   87MOL    H9022622   4.802   1.703   3.326  0.4769 -1.9836 -2.5558
   87MOL    H9122623   4.891   1.697   3.662 -0.2307 -2.5930 -0.7623
   87MOL    H9222624   4.738   1.684   3.688  0.6530  1.1433  0.9719
   87MOL    C9322625   4.778   1.857   3.560  0.4366 -0.8478 -0.1407
   87MOL    C9422626   4.904   1.942   3.534 -0.6398  0.1588 -0.2610
   87MOL    C9522627   4.922   2.030   3.431  0.1557  0.7206 -0.1860
   87MOL    C9622628   5.040   2.119   3.423 -0.0168  0.6159  0.8705
   87MOL    C9722629   4.816   2.054   3.326  0.2330 -0.2159  0.4197
   87MOL    H9822630   4.726   1.910   3.639 -1.2239 -3.4216  0.5425
   87MOL    H9922631   4.716   1.862   3.470  1.1981  0.3410 -0.6171
   87MOL   H10022632   4.975   1.927   3.614  1.1335  1.5276 -1.5154
   87MOL   H10122633   5.106   2.105   3.509  2.0039 -1.3386 -0.9300
   87MOL   H10222634   5.099   2.079   3.341 -0.1074  0.7253  0.7516
   87MOL   H10322635   5.011   2.222   3.406 -1.6543  0.0690  0.2155
   87MOL   H10422636   4.739   1.978   3.314  0.8615 -0.9146  0.7478
   87MOL   H10522637   4.879   2.069   3.239  1.2022 -2.4490  0.7029
   87MOL   C10622638   4.736   2.180   3.351  0.2456 -0.2365  0.0143
   87MOL   C10722639   4.626   2.195   3.245  0.5127  0.4909 -0.6287
   87MOL   C10822640   4.633   2.259   3.132 -0.1123 -0.2813  0.0674
   87MOL   C10922641   4.757   2.346   3.101  0.1573  0.0612  0.3905
   87MOL   C11022642   4.513   2.251   3.041 -0.3424  0.1872  0.0309
   87MOL   H11122643   4.799   2.268   3.363  2.2526 -1.5820 -0.4969
   87MOL   H11222644   4.688   2.183   3.449 -0.4385 -1.1393 -0.2908
   87MOL   H11322645   4.541   2.134   3.273 -0.5219  1.9848 -0.4703
   87MOL   H11422646   4.756   2.399   3.006 -0.7933  0.5058  0.6405
   87MOL   H11522647   4.778   2.419   3.180 -0.1086  1.2626 -0.6396
   87MOL   H11622648   4.846   2.283   3.094 -0.7959 -1.2438 -0.1293
   87MOL   H11722649   4.450   2.340   3.035 -2.4876 -1.2532  0.5124
   87MOL   H11822650   4.441   2.186   3.091  1.2147 -0.1317  1.9111
   87MOL   C11922651   4.536   2.198   2.894  0.1230  0.1935  0.2307
   87MOL   C12022652   4.397   2.185   2.829  0.3131  0.1164  0.7495
   87MOL   C12122653   4.354   2.222   2.708 -0.2190 -0.1037 -0.2302
   87MOL   C12222654   4.198   2.239   2.674  0.0989  0.1211 -0.0999
   87MOL   C12322655   4.444   2.283   2.606 -0.3946 -0.4619  0.0022
   87MOL   H12422656   4.595   2.106   2.893  1.8868  1.3110 -0.8849
   87MOL   H12522657   4.586   2.269   2.828 -0.1845 -0.3107 -0.5589
   87MOL   H12622658   4.317   2.137   2.884 -0.6352  0.0383 -0.6506
   87MOL   H12722659   4.174   2.205   2.573 -0.6411  0.7135 -0.1238
   87MOL   H12822660   4.173   2.344   2.686  2.3674  0.5710  0.9894
   87MOL   H12922661   4.135   2.186   2.746 -1.3511  0.2147 -1.2764
   87MOL   H13022662   4.416   2.257   2.503  1.3684  0.0370 -0.6276
   87MOL   H13122663   4.540   2.230   2.607 -0.5625 -0.8279 -1.4047
   87MOL   C13222664   4.450   2.441   2.620  0.3014  0.2727 -0.8646
   87MOL   C13322665   4.552   2.487   2.520 -0.5123 -0.0426 -0.3514
   87MOL   C13422666   4.533   2.565   2.419  0.6336 -0.3834  0.1813
   87MOL   C13522667   4.655   2.610   2.343  0.0739  0.1730  0.1250
   87MOL   C13622668   4.401   2.625   2.372  0.0493 -0.9770  0.0711
   87MOL   H13722669   4.482   2.469   2.721 -3.2387  0.6463  0.2471
   87MOL   H13822670   4.351   2.482   2.600  0.5552  2.5262  2.1685
   87MOL   H13922671   4.649   2.450   2.550 -1.1881 -0.8024  0.9933
   87MOL   H14022672   4.634   2.620   2.236 -1.3505 -0.0438  0.3731
   87MOL   H14122673   4.730   2.533   2.360 -0.3111  0.1057  1.6226
   87MOL   H14222674   4.673   2.707   2.389  1.2112 -0.3841  0.8743
   87MOL   H14322675   4.323   2.561   2.413  0.4170 -1.4752  0.0027
   87MOL   H14422676   4.394   2.623   2.263 -1.0055 -1.1042  0.1368
   87MOL   C14522677   4.369   2.769   2.412  0.3305  0.3818 -0.5306
   87MOL   C14622678   4.373   2.794   2.569 -0.1084 -0.0512  0.4679
   87MOL   C14722679   4.462   2.874   2.634 -0.3264  0.3822  0.0498
   87MOL   C14822680   4.463   2.876   2.788 -0.2950 -0.6809 -0.2616
   87MOL   C14922681   4.555   2.974   2.571 -0.8736 -0.4284  0.3686
   87MOL   H15022682   4.275   2.803   2.367  0.0906  1.0449  0.4388
   87MOL   H15122683   4.440   2.836   2.363  0.9160 -0.2563 -0.5586
   87MOL   H15222684   4.303   2.736   2.628  0.9441 -0.7400  1.0572
   87MOL   H15322685   4.421   2.972   2.816  1.0031  0.4807 -2.1816
   87MOL   H15422686   4.557   2.876   2.843  0.8300  0.0063 -2.1415
   87MOL   H15522687   4.400   2.803   2.839 -0.2411  0.6786  1.8363
   87MOL   H15622688   4.607   2.941   2.480  2.4679 -1.5280  2.5651
   87MOL   H15722689   4.629   2.980   2.651  0.3049 -2.4345 -0.5179
   87MOL   C15822690   4.490   3.112   2.546  0.0475  0.1495  0.5165
   87MOL   C15922691   4.595   3.221   2.503 -0.6389 -0.7881 -0.0069
   87MOL   C16022692   4.587   3.302   2.388 -0.2330  0.1401  0.1818
   87MOL   C16122693   4.474   3.297   2.290  0.4217 -0.0079 -0.2368
   87MOL   C16222694   4.692   3.407   2.360 -0.3080  0.0876 -0.5843
   87MOL   H16322695   4.441   3.146   2.638 -1.1861  2.5100 -0.9766
   87MOL   H16422696   4.411   3.100   2.472 -0.8637 -1.0162  1.6307
   87MOL   H16522697   4.677   3.235   2.572  0.8516  2.5373 -2.3685
   87MOL   H16622698   4.500   3.228   2.211  0.0919 -0.3927 -0.0095
   87MOL   H16722699   4.460   3.385   2.227 -0.1351 -0.2369 -0.4326
   87MOL   H16822700   4.375   3.272   2.327  1.8780 -1.4129  2.8880
   87MOL   H16922701   4.757   3.432   2.443 -0.2987  0.7106 -0.7835
   87MOL   H17022702   4.631   3.495   2.345 -0.3833  0.2896  0.8368
   87MOL   C17122703   4.774   3.387   2.235  0.2795 -0.5788  0.0393
   87MOL   C17222704   4.925   3.402   2.254 -0.0019  0.3017 -0.4529
   87MOL   C17322705   5.007   3.435   2.156 -0.5185 -0.9261  0.6827
   87MOL   C17422706   4.967   3.480   2.011  0.6850 -0.1941  0.0739
   87MOL   C17522707   5.152   3.445   2.187  0.5257  0.0374 -0.6942
   87MOL   H17622708   4.742   3.471   2.174 -0.1834 -1.1769 -0.5596
   87MOL   H17722709   4.762   3.289   2.188  0.0901  0.1005 -1.3524
   87MOL   H17822710   4.957   3.369   2.352  2.6866  0.9689 -1.0790
   87MOL   H17922711   4.919   3.577   2.018  3.0181  0.8954  1.1490
   87MOL   H18022712   4.895   3.403   1.982  0.3948 -0.2849  1.0352
   87MOL   H18122713   5.057   3.488   1.949  2.1518  0.8094  2.2932
   87MOL   H18222714   5.211   3.404   2.105  1.2258  2.0227 -1.2046
   87MOL   H18322715   5.173   3.392   2.280 -0.5410 -0.2163 -0.5880
   87MOL   C18422716   5.193   3.590   2.199  0.1395  0.1845 -0.4512
   87MOL   C18522717   5.345   3.602   2.226 -0.6796  0.1241  0.1886
   87MOL   C18622718   5.437   3.652   2.137  0.2010  0.0858  0.0157
   87MOL   C18722719   5.587   3.663   2.180 -0.0202  0.0682  0.0127
   87MOL   C18822720   5.408   3.667   1.985  0.0908  0.3573  0.1143
   87MOL   H18922721   5.136   3.633   2.282 -0.1412 -1.4222  0.1913
   87MOL   H19022722   5.163   3.654   2.116 -0.6714  0.3167 -0.0616
   87MOL   H19122723   5.364   3.573   2.328 -1.6485  0.6531  0.5337
   87MOL   H19222724   5.622   3.756   2.135  0.9199 -0.3065 -0.0478
   87MOL   H19322725   5.647   3.581   2.140 -1.0895 -1.1041  0.7833
   87MOL   H19422726   5.599   3.667   2.288 -0.2945  1.3764  0.0007
   87MOL   H19522727   5.313   3.623   1.956 -1.1124  1.8066  1.7642
   87MOL   H19622728   5.489   3.623   1.926  1.0418  0.5569  1.2540
   87MOL   C19722729   5.389   3.820   1.952  0.4903  0.2876 -0.2624
   87MOL   C19822730   5.253   3.865   2.000 -0.3017  0.0337  0.2538
   87MOL   C19922731   5.149   3.902   1.921  0.3579 -0.5263 -0.2039
   87MOL   C20022732   5.012   3.928   1.981 -0.6228 -0.8429 -0.0670
   87MOL   C20122733   5.152   3.908   1.771  0.0885 -0.2107  0.2357
   87MOL   H20222734   5.388   3.824   1.843 -1.5762  0.6705 -0.2529
   87MOL   H20322735   5.473   3.884   1.979  0.2842  0.6545 -0.4733
   87MOL   H20422736   5.243   3.861   2.108  2.6990 -0.8777  0.5267
   87MOL   H20522737   4.936   3.861   1.941 -1.3557  0.2354 -0.5046
   87MOL   H20622738   4.984   4.031   1.959  1.9831 -0.0367  0.1550
   87MOL   H20722739   5.017   3.912   2.089  2.2120 -1.8528 -0.3017
   87MOL   H20822740   5.251   3.943   1.739 -0.2242  0.7553  0.3118
   87MOL   H20922741   5.091   3.993   1.741 -2.1160 -1.0240  2.3228
   87MOL   C21022742   5.114   3.776   1.709  0.0774  1.1681 -0.5353
   87MOL   C21122743   4.965   3.756   1.694  0.5994  0.1386 -0.0926
   87MOL   C21222744   4.893   3.779   1.581 -0.0773 -0.0972 -0.0350
   87MOL   C21322745   4.750   3.761   1.571  0.4311  0.0561 -0.1797
   87MOL   C21422746   4.952   3.843   1.459  0.1984  0.3493  0.4926
   87MOL   H21522747   5.151   3.692   1.769 -0.7837  0.4769 -0.9606
   87MOL   H21622748   5.170   3.765   1.616  0.5112 -1.6717  0.0114
   87MOL   H21722749   4.913   3.704   1.774  3.6396 -0.6095  1.4676
   87MOL   H21822750   4.723   3.709   1.663  1.4861 -2.2504 -1.1101
   87MOL   H21922751   4.736   3.699   1.482  0.6942 -0.2464 -0.0096
   87MOL   H22022752   4.696   3.855   1.574  0.8512  0.2411  2.2361
   87MOL   H22122753   5.039   3.904   1.481  0.6458 -0.1152  0.0124
   87MOL   H22222754   4.877   3.904   1.407  1.1571  0.3047 -0.9812
   87MOL   C22322755   4.995   3.743   1.351  0.0306 -0.3059  0.3006
   87MOL   C22422756   4.995   3.791   1.209 -0.1367  0.0523  0.1948
   87MOL   C22522757   5.095   3.772   1.122 -0.8654  1.2934  0.6147
   87MOL   C22622758   5.086   3.819   0.975 -0.5481  0.0588  0.5317
   87MOL   C22722759   5.221   3.694   1.160 -0.4506  0.0063  0.2421
   87MOL   H22822760   4.922   3.661   1.346  0.7737 -0.9641  0.1009
   87MOL   H22922761   5.082   3.691   1.392  0.7963  1.0307  0.4013
   87MOL   H23022762   4.921   3.852   1.159 -1.8191 -2.2125 -0.1608
   87MOL   H23122763   5.105   3.747   0.895  1.2349  0.4284  0.5971
   87MOL   H23222764   5.168   3.889   0.963  0.5884 -1.3702 -0.2220
   87MOL   H23322765   4.992   3.867   0.950 -0.7840 -1.1699 -0.9864
   87MOL   H23422766   5.234   3.680   1.267 -1.7183  1.4067  0.6015
   87MOL   H23522767   5.305   3.747   1.114  1.2740 -1.7502  1.2959
   87MOL   C23622768   5.214   3.553   1.089 -0.0120 -0.8153  0.0554
   87MOL   C23722769   5.335   3.459   1.114 -0.4495  0.8092 -0.6693
   87MOL   C23822770   5.387   3.382   1.015 -0.5297  0.4077 -0.2693
   87MOL   C23922771   5.492   3.280   1.056 -0.0473  0.3674  0.2930
   87MOL   C24022772   5.333   3.381   0.872 -0.0027 -0.0772  0.0600
   87MOL   H24122773   5.182   3.565   0.986  0.1938  0.1579  0.1047
   87MOL   H24222774   5.136   3.494   1.137 -0.7010 -0.3819 -0.5309
   87MOL   H24322775   5.367   3.448   1.216 -1.0616  0.2803 -0.5277
   87MOL   H24422776   5.548   3.235   0.974 -0.9379 -4.1641  2.0204
   87MOL   H24522777   5.431   3.203   1.102 -0.3562  0.4192 -0.0231
   87MOL   H24622778   5.564   3.337   1.115  1.3291  0.8033 -1.7257
   87MOL   H24722779   5.415   3.349   0.807 -0.5701  0.9376 -1.1702
   87MOL   H24822780   5.309   3.484   0.848 -1.5585 -0.9597 -2.3731
   87MOL   C24922781   5.221   3.291   0.842 -0.5436 -0.2804 -0.1394
   87MOL   C25022782   5.161   3.316   0.707 -0.0132 -0.0325  0.3103
   87MOL   C25122783   5.093   3.233   0.625 -0.4292  0.4623  0.1364
   87MOL   C25222784   5.025   3.299   0.500  0.6634  0.4556  0.0064
   87MOL   C25322785   5.064   3.090   0.659 -0.1147  0.0389 -0.4838
   87MOL   H25422786   5.146   3.303   0.920 -0.0817  0.9704  0.1142
   87MOL   H25522787   5.261   3.190   0.853  0.6536  0.0267 -1.4550
   87MOL   H25622788   5.162   3.420   0.678  1.1559  0.4742  2.1173
   87MOL   H25722789   5.040   3.406   0.514  1.6555  0.0853  2.0071
   87MOL   H25822790   4.919   3.280   0.488  0.3871  2.2366 -0.4840
   87MOL   H25922791   5.080   3.269   0.410 -2.4291 -0.3290 -1.7189
   87MOL   H26022792   5.149   3.038   0.703 -0.2142  0.3816  0.1068
   87MOL   H26122793   5.026   3.027   0.579  0.2889 -0.7808 -0.0379
   87MOL   H26222794   4.983   3.094   0.731 -0.0102 -1.0112 -0.2962
   88MOL     C122795   2.908   2.503   1.659  0.2776 -0.2209 -0.6410
   88MOL     C222796   2.855   2.396   1.568 -0.6606 -0.0354 -0.5602
   88MOL     C322797   2.920   2.320   1.483 -0.0023 -0.3714 -0.3936
   88MOL     C422798   2.843   2.224   1.393 -0.3859  0.0108  0.3277
   88MOL     C522799   3.074   2.329   1.447  0.1002 -0.3687 -0.1401
   88MOL     H622800   2.854   2.598   1.653 -1.0607 -0.9849 -0.8516
   88MOL     H722801   2.886   2.458   1.756 -2.0437  0.0503 -1.0118
   88MOL     H822802   2.751   2.373   1.585 -0.5406  0.3712  0.8103
   88MOL     H922803   2.848   2.260   1.290 -1.0825  0.4687  0.4488
   88MOL    H1022804   2.739   2.228   1.427 -0.7507  2.3153 -0.9693
   88MOL    H1122805   2.870   2.119   1.396 -0.5358 -0.0157  0.9795
   88MOL    H1222806   3.114   2.228   1.456 -0.4919 -0.7127 -1.3182
   88MOL    H1322807   3.122   2.396   1.519 -0.3817 -0.7092  0.5091
   88MOL    H1422808   3.017   2.511   1.658  0.3691 -1.5994 -2.2696
   88MOL    C1522809   3.109   2.365   1.301  0.4199 -0.3397  0.4120
   88MOL    C1622810   3.257   2.340   1.281 -0.7193 -0.3125  0.8292
   88MOL    C1722811   3.341   2.424   1.215 -0.8728  0.2579  0.6935
   88MOL    C1822812   3.489   2.380   1.188 -0.3964 -0.0550  0.1946
   88MOL    C1922813   3.299   2.561   1.146  0.1644 -0.4013  0.0149
   88MOL    H2022814   3.067   2.460   1.268 -1.0528 -1.1828 -0.2138
   88MOL    H2122815   3.063   2.287   1.240 -0.9137 -0.9140  2.1136
   88MOL    H2222816   3.288   2.242   1.313 -1.2187 -1.8060 -3.0691
   88MOL    H2322817   3.507   2.363   1.082 -0.2022  2.6336 -0.2238
   88MOL    H2422818   3.531   2.296   1.246  2.5567  2.1577  1.4051
   88MOL    H2522819   3.548   2.469   1.211  0.2645 -0.5753  0.5495
   88MOL    H2622820   3.348   2.638   1.205 -1.5910  1.1874 -0.5607
   88MOL    H2722821   3.192   2.581   1.151 -0.1926 -2.1200 -0.2566
   88MOL    C2822822   3.335   2.557   0.992 -0.9210  0.3948 -0.1215
   88MOL    C2922823   3.302   2.686   0.924  0.2356  0.7016  0.4172
   88MOL    C3022824   3.220   2.705   0.823  0.4199 -0.7335 -0.9283
   88MOL    C3122825   3.198   2.840   0.765 -0.2016  0.6909  0.1854
   88MOL    C3222826   3.129   2.593   0.769 -0.5033  0.0639  0.2608
   88MOL    H3322827   3.267   2.474   0.969 -3.4474  2.0703  1.0417
   88MOL    H3422828   3.437   2.530   0.967 -0.8265  0.3412  0.3163
   88MOL    H3522829   3.354   2.770   0.967 -3.0967  3.0077  0.1594
   88MOL    H3622830   3.098   2.859   0.725  0.5076  0.5924 -1.7153
   88MOL    H3722831   3.258   2.843   0.674 -1.4742 -1.7340 -0.7963
   88MOL    H3822832   3.223   2.920   0.834  2.4544  0.6998 -0.7493
   88MOL    H3922833   3.169   2.493   0.787 -0.2601  0.3026  1.0700
   88MOL    H4022834   3.137   2.597   0.661  1.7806 -3.0621  0.2326
   88MOL    C4122835   2.986   2.621   0.815 -0.6194  0.0838  0.0480
   88MOL    C4222836   2.903   2.502   0.783  0.7908  0.1732  0.0202
   88MOL    C4322837   2.838   2.422   0.873 -0.1135  0.1422  0.7793
   88MOL    C4422838   2.763   2.299   0.834  0.1810 -0.7215  0.2519
   88MOL    C4522839   2.836   2.447   1.022 -0.3974 -1.2468 -0.3228
   88MOL    H4622840   2.932   2.710   0.781 -0.8996 -0.8858 -2.0726
   88MOL    H4722841   2.997   2.635   0.923 -0.9153  4.0370 -0.3588
   88MOL    H4822842   2.902   2.475   0.678 -0.4914  0.8116 -0.1357
   88MOL    H4922843   2.804   2.213   0.888  1.9264 -1.4332 -2.0814
   88MOL    H5022844   2.756   2.280   0.727  1.8238 -0.2718  0.0461
   88MOL    H5122845   2.662   2.326   0.864 -0.4422 -1.1679 -1.3730
   88MOL    H5222846   2.940   2.471   1.041 -0.7572 -0.4507  0.6841
   88MOL    H5322847   2.829   2.345   1.060  2.1746 -0.8297  1.3977
   88MOL    C5422848   2.735   2.556   1.072  0.2812 -0.1804  0.2280
   88MOL    C5522849   2.760   2.580   1.221  0.2039 -0.2811 -0.0161
   88MOL    C5622850   2.751   2.701   1.281 -0.1773 -0.3604  0.3087
   88MOL    C5722851   2.767   2.713   1.431 -0.3224  0.4600 -0.0674
   88MOL    C5822852   2.742   2.836   1.213 -0.2732 -0.3481  0.4410
   88MOL    H5922853   2.630   2.528   1.073  0.7942 -2.3251 -1.9278
   88MOL    H6022854   2.742   2.648   1.014  0.1446 -1.8212 -2.4326
   88MOL    H6122855   2.778   2.496   1.286  1.8231 -0.1692 -0.2966
   88MOL    H6222856   2.698   2.790   1.467  1.6558  0.8580  3.0521
   88MOL    H6322857   2.868   2.736   1.466  0.6728 -1.9770 -1.2025
   88MOL    H6422858   2.741   2.626   1.490  2.1876 -1.3714 -1.5702
   88MOL    H6522859   2.692   2.907   1.279 -0.4823 -0.0622 -0.0272
   88MOL    H6622860   2.670   2.823   1.133  1.5610  0.1461 -1.3485
   88MOL    C6722861   2.882   2.881   1.165 -0.7666 -0.5298  0.0679
   88MOL    C6822862   2.867   3.001   1.083  0.2609 -0.3214  0.5759
   88MOL    C6922863   2.942   3.113   1.095 -0.5648 -0.4117  0.5431
   88MOL    C7022864   2.920   3.227   0.998 -0.4277 -0.2323  0.3372
   88MOL    C7122865   3.057   3.134   1.197  0.1143  0.4966  0.4436
   88MOL    H7222866   2.911   2.802   1.096 -1.3152  0.6854 -1.5931
   88MOL    H7322867   2.947   2.887   1.253 -0.5438 -1.8167 -0.0002
   88MOL    H7422868   2.784   2.992   1.016 -0.7442  2.1066  1.4167
   88MOL    H7522869   2.875   3.316   1.042 -1.8852 -0.1033 -1.3614
   88MOL    H7622870   2.846   3.194   0.925 -1.4605 -1.6800  1.9939
   88MOL    H7722871   3.009   3.254   0.942 -1.8583  2.9077 -0.5030
   88MOL    H7822872   3.134   3.195   1.148  0.1573  0.1984  0.1344
   88MOL    H7922873   3.103   3.044   1.238  0.9840  0.4526 -0.5927
   88MOL    C8022874   2.984   3.208   1.310 -0.5817 -0.2328 -0.5215
   88MOL    C8122875   3.076   3.255   1.422  0.0042 -0.1561  0.4281
   88MOL    C8222876   3.050   3.254   1.551 -0.2652  0.3423 -0.1407
   88MOL    C8322877   2.914   3.211   1.610  0.5945 -0.6184 -0.1021
   88MOL    C8422878   3.154   3.290   1.648  0.3282  0.4420  0.2348
   88MOL    H8522879   2.898   3.152   1.347 -0.6422 -0.4234 -0.9485
   88MOL    H8622880   2.937   3.297   1.269 -1.1934  0.7448  2.2212
   88MOL    H8722881   3.172   3.289   1.385 -0.9241  0.7487 -1.1510
   88MOL    H8822882   2.909   3.204   1.719  0.9732  1.8532  0.1129
   88MOL    H8922883   2.897   3.110   1.574 -1.6450 -0.2228 -0.2334
   88MOL    H9022884   2.833   3.270   1.567 -0.7323 -1.2458  1.4646
   88MOL    H9122885   3.253   3.293   1.604 -0.6510  2.2085 -1.8962
   88MOL    H9222886   3.158   3.207   1.720 -0.2585  0.4140  0.2349
   88MOL    C9322887   3.126   3.427   1.709  1.1412  0.4403  0.0882
   88MOL    C9422888   3.227   3.466   1.816  0.2868 -0.5158 -0.1643
   88MOL    C9522889   3.259   3.596   1.856 -0.0659  0.4187 -0.6248
   88MOL    C9622890   3.371   3.624   1.954 -0.0187 -0.0895  0.1203
   88MOL    C9722891   3.195   3.721   1.802  0.4390 -0.4708  0.4025
   88MOL    H9822892   3.033   3.419   1.765  1.7473 -2.1217  0.7722
   88MOL    H9922893   3.105   3.509   1.640  1.3560  0.8096  0.4556
   88MOL   H10022894   3.277   3.382   1.861 -0.6477 -0.5400  0.8572
   88MOL   H10122895   3.449   3.686   1.910  1.9963 -2.1720  0.6786
   88MOL   H10222896   3.338   3.660   2.052  1.4786  2.7823 -0.3626
   88MOL   H10322897   3.414   3.529   1.984  1.0917  0.5059  0.4320
   88MOL   H10422898   3.152   3.779   1.884 -1.0720 -1.0543  0.0401
   88MOL   H10522899   3.105   3.691   1.750 -0.0694  1.3271  0.1963
   88MOL   C10622900   3.275   3.815   1.707 -0.1334 -0.2035 -0.2583
   88MOL   C10722901   3.198   3.947   1.679 -0.4580  0.2933 -0.8338
   88MOL   C10822902   3.130   3.968   1.569 -0.7651 -0.2540 -0.0313
   88MOL   C10922903   3.123   3.856   1.466 -0.1137 -0.4761  0.4160
   88MOL   C11022904   3.052   4.095   1.532  0.6814  0.8922 -0.1933
   88MOL   H11122905   3.303   3.764   1.615  2.0909 -0.1379  0.3627
   88MOL   H11222906   3.374   3.835   1.748  0.4348 -4.1426  0.4729
   88MOL   H11322907   3.192   4.023   1.756  1.1445 -1.3830  0.9862
   88MOL   H11422908   3.091   3.759   1.502  2.1301 -1.8958 -1.2458
   88MOL   H11522909   3.040   3.887   1.402 -0.8579 -0.6472  1.2928
   88MOL   H11622910   3.214   3.851   1.405 -1.3536 -1.2245 -1.4278
   88MOL   H11722911   2.946   4.071   1.543  1.0755  0.4793  3.3730
   88MOL   H11822912   3.066   4.124   1.428  0.6855 -0.2210 -0.5093
   88MOL   C11922913   3.091   4.221   1.620  0.0568  0.3306  0.3703
   88MOL   C12022914   3.085   4.358   1.566  0.1140 -0.0267  0.0363
   88MOL   C12122915   3.037   4.475   1.620  0.1036  0.6711  0.6747
   88MOL   C12222916   3.062   4.605   1.543  0.2619 -0.0108 -0.0154
   88MOL   C12322917   2.967   4.481   1.759 -0.1571  0.2334 -0.2372
   88MOL   H12422918   3.198   4.211   1.639  0.4885 -0.8925 -2.3498
   88MOL   H12522919   3.046   4.210   1.718 -1.5325  1.0669 -0.2604
   88MOL   H12622920   3.137   4.374   1.474  1.1311 -1.6051  0.3247
   88MOL   H12722921   3.088   4.691   1.604 -1.4779  1.5333 -1.4028
   88MOL   H12822922   2.978   4.649   1.489  1.3679  1.0083 -0.9108
   88MOL   H12922923   3.138   4.596   1.465 -0.4121  1.0742 -0.8071
   88MOL   H13022924   2.903   4.393   1.760 -0.6306  0.5657 -0.6047
   88MOL   H13122925   2.897   4.565   1.765  0.7850  1.0160 -0.0642
   88MOL   C13222926   3.062   4.495   1.881  0.2833 -0.2014  0.1589
   88MOL   C13322927   2.983   4.504   2.008 -0.1560 -0.1520  0.4332
   88MOL   C13422928   2.969   4.598   2.102  0.2962 -1.1051 -0.0633
   88MOL   C13522929   2.865   4.589   2.216 -0.5144 -0.4895  0.3814
   88MOL   C13622930   3.048   4.724   2.107 -0.3336 -0.0648  0.5400
   88MOL   H13722931   3.117   4.586   1.860  2.6423 -1.6923 -0.3182
   88MOL   H13822932   3.132   4.412   1.892  0.4049  0.3362  4.0383
   88MOL   H13922933   2.912   4.423   2.018 -1.2485  0.7643  0.3164
   88MOL   H14022934   2.816   4.686   2.222 -0.4405 -0.4720  0.7346
   88MOL   H14122935   2.892   4.565   2.319  1.6637 -3.2344 -0.7669
   88MOL   H14222936   2.779   4.526   2.194 -1.0647  0.5027 -0.3537
   88MOL   H14322937   3.143   4.713   2.055  0.7554  0.7134  2.2936
   88MOL   H14422938   3.069   4.763   2.207  0.5729 -0.5945  0.5620
   88MOL   C14522939   2.993   4.838   2.031  0.3730 -0.1411 -0.1401
   88MOL   C14622940   3.079   4.967   2.029 -0.1480 -0.0139 -0.3320
   88MOL   C14722941   3.137   5.021   1.924  0.1966 -0.4507 -0.3085
   88MOL   C14822942   3.200   5.154   1.947 -0.1715 -0.3267 -0.3851
   88MOL   C14922943   3.143   4.963   1.784 -0.0996  0.2084  0.2809
   88MOL   H15022944   2.897   4.869   2.071  0.1643 -2.0476  0.8995
   88MOL   H15122945   2.984   4.809   1.926 -0.9996  0.0420 -0.0885
   88MOL   H15222946   3.095   5.009   2.127 -0.9775 -0.3062 -0.0645
   88MOL   H15322947   3.150   5.209   2.026  2.5363 -0.2452  1.3669
   88MOL   H15422948   3.195   5.222   1.862 -0.7856  0.4288  0.2458
   88MOL   H15522949   3.304   5.149   1.980 -0.3496 -1.2232  0.0435
   88MOL   H15622950   3.128   4.855   1.785 -1.3780  0.3845  1.5850
   88MOL   H15722951   3.245   4.976   1.746  0.0903 -1.2579  0.2552
   88MOL   C15822952   3.049   5.027   1.689  0.0147 -0.2479 -0.4856
   88MOL   C15922953   3.069   4.981   1.548 -0.0334  0.0199 -0.0145
   88MOL   C16022954   3.025   5.046   1.444 -0.2318 -0.3361 -1.2205
   88MOL   C16122955   2.963   5.187   1.457  0.0450  0.5623 -0.3298
   88MOL   C16222956   3.034   4.984   1.305 -0.0493  1.0115  0.2887
   88MOL   H16322957   3.069   5.134   1.694  2.1925 -0.7047  1.1867
   88MOL   H16422958   2.942   5.016   1.709 -0.6028  2.3523 -2.1881
   88MOL   H16522959   3.117   4.885   1.532 -1.9492 -0.8459 -0.6778
   88MOL   H16622960   3.008   5.263   1.392 -0.4471 -0.9354 -2.4681
   88MOL   H16722961   2.948   5.232   1.555  3.8143  1.4240 -0.0640
   88MOL   H16822962   2.857   5.173   1.432 -0.2410  2.0070  0.0067
   88MOL   H16922963   2.929   4.988   1.276 -0.1311 -0.9747  0.3027
   88MOL   H17022964   3.065   4.880   1.311 -0.2566  0.8555 -1.0506
   88MOL   C17122965   3.119   5.055   1.202 -0.4950 -1.1814 -0.2607
   88MOL   C17222966   3.117   4.991   1.063 -0.0288 -0.2774  0.0525
   88MOL   C17322967   3.216   4.999   0.973 -0.0675  0.0836  0.0584
   88MOL   C17422968   3.336   5.097   0.978  0.0538  0.0510  0.7647
   88MOL   C17522969   3.212   4.931   0.844  0.2297  0.3752  0.1943
   88MOL   H17622970   3.219   5.065   1.244  1.5047  0.5070 -5.0261
   88MOL   H17722971   3.085   5.159   1.197  2.8026 -0.0274  0.1323
   88MOL   H17822972   3.033   4.925   1.053 -0.5908  0.5425 -0.6861
   88MOL   H17922973   3.431   5.049   0.956 -0.3413 -0.0534 -0.7801
   88MOL   H18022974   3.347   5.137   1.079 -0.9391  2.8327 -0.1773
   88MOL   H18122975   3.316   5.183   0.915 -0.4815  0.8460  1.9958
   88MOL   H18222976   3.154   4.840   0.854 -0.7943  0.9624 -0.2655
   88MOL   H18322977   3.311   4.893   0.819  0.2219  0.1911  0.4461
   88MOL   C18422978   3.144   5.004   0.724 -0.9538  0.2931 -0.2976
   88MOL   C18522979   3.154   4.932   0.594  0.1262  0.0235  0.3927
   88MOL   C18622980   3.068   4.944   0.492 -0.0360 -0.0112 -0.0748
   88MOL   C18722981   3.080   4.867   0.362  0.6363 -0.0121  0.2891
   88MOL   C18822982   2.946   5.039   0.490  0.0841 -1.1387  0.3540
   88MOL   H18922983   3.193   5.100   0.710  0.0534 -0.3967 -1.6169
   88MOL   H19022984   3.040   5.029   0.747 -1.1523 -1.1136  0.4183
   88MOL   H19122985   3.244   4.872   0.588  0.5654  0.6097  1.0862
   88MOL   H19222986   3.095   4.937   0.280  1.2610 -0.7507 -0.2352
   88MOL   H19322987   2.988   4.818   0.331  0.5228 -0.4295  1.2816
   88MOL   H19422988   3.153   4.785   0.364 -0.1218 -0.6645  4.5337
   88MOL   H19522989   2.934   5.098   0.399  2.1294  1.3513  1.6215
   88MOL   H19622990   2.971   5.118   0.561 -0.1732 -0.8850  0.1678
   88MOL   C19722991   2.816   4.977   0.528 -0.1870  0.2271  0.6623
   88MOL   C19822992   2.713   5.085   0.517  0.3261  0.1220  0.4332
   88MOL   C19922993   2.576   5.069   0.514 -0.8993 -0.8017 -0.7864
   88MOL   C20022994   2.480   5.189   0.527  0.1285  0.2153 -0.1925
   88MOL   C20122995   2.505   4.936   0.511  0.4043 -0.4049  0.4008
   88MOL   H20222996   2.816   4.931   0.627 -0.2538  1.3833  1.2127
   88MOL   H20322997   2.789   4.890   0.468 -2.4721 -0.4935  2.6526
   88MOL   H20422998   2.757   5.181   0.537  0.9488 -0.6370  2.8587
   88MOL   H20522999   2.532   5.281   0.555 -0.6459  0.4164  0.6327
   88MOL   H20623000   2.404   5.164   0.602  0.6373  0.7606  0.5160
   88MOL   H20723001   2.424   5.194   0.434  1.2835 -2.2658 -1.0545
   88MOL   H20823002   2.439   4.944   0.598 -0.4167 -1.3801 -0.1155
   88MOL   H20923003   2.570   4.852   0.534 -0.9694 -1.6047  0.0209
   88MOL   C21023004   2.412   4.911   0.383 -0.4432 -0.5303 -0.5400
   88MOL   C21123005   2.360   4.768   0.370 -0.0615 -0.6143  0.0941
   88MOL   C21223006   2.342   4.692   0.253  0.2690 -0.6299 -0.5658
   88MOL   C21323007   2.300   4.548   0.272 -0.1923  0.5281 -0.5649
   88MOL   C21423008   2.360   4.747   0.111  0.0573 -0.0217 -0.4216
   88MOL   H21523009   2.472   4.935   0.296  5.0581 -1.7865  2.7020
   88MOL   H21623010   2.329   4.982   0.376 -0.1347  0.0699  1.5274
   88MOL   H21723011   2.344   4.730   0.470 -0.3889 -0.8612 -0.0518
   88MOL   H21823012   2.367   4.486   0.212  0.7859  0.9258  0.1164
   88MOL   H21923013   2.198   4.521   0.245  0.2002  0.2938 -1.8854
   88MOL   H22023014   2.319   4.524   0.376 -0.5209  1.1436 -0.3611
   88MOL   H22123015   2.366   4.856   0.118 -0.8735 -0.1170  2.1214
   88MOL   H22223016   2.268   4.738   0.053  0.4506 -0.3483 -1.0058
   88MOL   C22323017   2.488   4.686   0.044  0.2690  0.4705  0.1514
   88MOL   C22423018   2.488   4.714   7.772  0.6689  0.1177 -0.2120
   88MOL   C22523019   2.537   4.634   7.670 -0.5087  0.5618  0.1012
   88MOL   C22623020   2.522   4.681   7.525 -0.5962  0.4761 -0.0493
   88MOL   C22723021   2.593   4.498   7.690 -0.2878 -0.5120  0.3194
   88MOL   H22823022   2.505   4.582   0.074 -2.2169  0.2425  0.8929
   88MOL   H22923023   2.577   4.734   0.084  0.6696 -0.8072  0.8475
   88MOL   H23023024   2.440   4.805   7.738  0.6477  1.1711  2.5620
   88MOL   H23123025   2.447   4.632   7.464 -0.9316  1.1552 -0.1895
   88MOL   H23223026   2.617   4.679   7.471  0.3063  2.6745  1.3435
   88MOL   H23323027   2.505   4.789   7.523  3.1287  1.1268 -3.0018
   88MOL   H23423028   2.540   4.417   7.642  1.0689 -1.4481  0.3590
   88MOL   H23523029   2.596   4.459   7.792 -1.4070  0.4481  0.7274
   88MOL   C23623030   2.743   4.490   7.641  0.4010 -0.3114  1.2788
   88MOL   C23723031   2.833   4.528   7.750 -0.1428 -0.0825  0.0352
   88MOL   C23823032   2.951   4.471   7.786 -0.7191 -0.3256 -0.2732
   88MOL   C23923033   3.018   4.517   0.032  0.0674  0.8653  0.2700
   88MOL   C24023034   3.019   4.355   7.714  0.2849 -0.7257 -0.3265
   88MOL   H24123035   2.765   4.551   7.554 -0.1585 -1.2453  0.4732
   88MOL   H24223036   2.765   4.389   7.606 -0.0929 -0.7442  2.2065
   88MOL   H24323037   2.796   4.616   7.800  0.7500  0.0288  0.5281
   88MOL   H24423038   2.995   4.451   0.115  1.2918  0.6518  0.4504
   88MOL   H24523039   2.981   4.616   0.061  1.4476  2.1136 -2.0339
   88MOL   H24623040   3.126   4.532   0.025 -0.0202  0.7320 -1.9106
   88MOL   H24723041   3.122   4.382   7.691  0.8053 -2.4401 -0.0788
   88MOL   H24823042   2.967   4.327   7.623  0.0640 -0.2858 -0.3400
   88MOL   C24923043   3.030   4.226   7.795  0.1599 -0.0348 -0.5621
   88MOL   C25023044   3.119   4.124   7.723 -0.0639  0.0029  0.1640
   88MOL   C25123045   3.251   4.105   7.753 -0.3911 -0.5193 -0.5980
   88MOL   C25223046   3.335   3.998   7.690  0.2233  0.2831  0.0760
   88MOL   C25323047   3.330   4.197   7.848 -0.0218 -0.2780 -0.1845
   88MOL   H25423048   2.933   4.191   7.829  0.5899 -1.5517 -0.8266
   88MOL   H25523049   3.083   4.246   0.009  0.1984  0.2599 -0.6459
   88MOL   H25623050   3.080   4.065   7.642  3.1657 -2.5253  0.3480
   88MOL   H25723051   3.389   4.051   7.611 -2.1371  0.7662 -1.2612
   88MOL   H25823052   3.274   3.919   7.646 -0.3892 -0.9385  3.0442
   88MOL   H25923053   3.412   3.968   7.760 -2.0706 -2.5255  1.5139
   88MOL   H26023054   3.305   4.302   7.836  0.0851 -0.2549 -0.2012
   88MOL   H26123055   3.435   4.186   7.822  0.1795 -3.6069  1.7538
   88MOL   H26223056   3.315   4.176   0.075  0.3636 -0.4082 -0.1556
   89MOL     C123057   5.021   0.990   5.102  0.9065 -0.4019  1.1272
   89MOL     C223058   4.881   0.991   5.044  0.0316 -0.3086  0.2443
   89MOL     C323059   4.830   0.888   4.973  0.2374  0.1821 -0.1037
   89MOL     C423060   4.707   0.905   4.900 -0.9448  0.3203  0.1746
   89MOL     C523061   4.899   0.767   4.929 -0.2374 -0.0507  0.3066
   89MOL     H623062   5.076   1.080   5.073  2.6138 -1.3928  1.2215
   89MOL     H723063   5.004   0.983   5.209 -1.3883  1.9772  0.9888
   89MOL     H823064   4.815   1.075   5.057 -0.5078 -0.3349 -2.1389
   89MOL     H923065   4.651   0.812   4.910 -2.8060  1.4694  0.6317
   89MOL    H1023066   4.721   0.919   4.793 -0.4658  1.1596  0.3422
   89MOL    H1123067   4.650   0.994   4.924 -0.3630  1.1071 -1.3179
   89MOL    H1223068   5.003   0.789   4.905 -0.3566  2.7318  2.0996
   89MOL    H1323069   4.857   0.749   4.830 -1.8618  3.1630  0.3478
   89MOL    H1423070   5.088   0.907   5.081 -0.0010 -0.6038 -1.1274
   89MOL    C1523071   4.877   0.649   5.028 -0.0729 -0.6947 -0.6855
   89MOL    C1623072   4.983   0.631   5.139 -0.2279 -1.2281 -0.1996
   89MOL    C1723073   4.957   0.628   5.272 -0.6521  0.0131 -0.2323
   89MOL    C1823074   5.064   0.613   5.373  0.2167  0.6929  0.4185
   89MOL    C1923075   4.819   0.641   5.331  0.4058  0.1462  0.2993
   89MOL    H2023076   4.876   0.554   4.973  0.4293 -1.6692  0.9499
   89MOL    H2123077   4.774   0.652   5.064 -0.0478  1.9761 -0.7421
   89MOL    H2223078   5.084   0.628   5.100 -0.0564 -1.2470  0.2444
   89MOL    H2323079   5.025   0.545   5.449  0.6813 -1.0577 -0.8880
   89MOL    H2423080   5.077   0.716   5.407  1.8496  1.2388 -1.6940
   89MOL    H2523081   5.158   0.579   5.330 -0.8031 -2.6118  0.7134
   89MOL    H2623082   4.762   0.711   5.269  0.0163 -0.3621  0.0852
   89MOL    H2723083   4.828   0.677   5.433  1.8968 -2.5944  1.1839
   89MOL    C2823084   4.758   0.498   5.362  0.0202 -0.2995  0.1809
   89MOL    C2923085   4.627   0.509   5.432  1.0365  0.2647  0.5215
   89MOL    C3023086   4.550   0.405   5.472 -0.5399  0.3353 -0.2386
   89MOL    C3123087   4.413   0.441   5.538  0.8704 -0.1065 -0.2325
   89MOL    C3223088   4.596   0.261   5.468 -0.3180 -0.1480  0.3227
   89MOL    H3323089   4.816   0.438   5.432 -1.5906  1.0428  2.7341
   89MOL    H3423090   4.745   0.431   5.277 -2.4019  1.1726 -0.6804
   89MOL    H3523091   4.586   0.608   5.440  0.1503 -0.1531  1.1533
   89MOL    H3623092   4.403   0.427   5.646  0.8068 -1.5895 -0.4192
   89MOL    H3723093   4.334   0.377   5.498 -2.5491  3.5720  0.3096
   89MOL    H3823094   4.389   0.545   5.516 -0.8610 -0.0796  1.6244
   89MOL    H3923095   4.694   0.258   5.420  0.1241 -0.1647  1.1952
   89MOL    H4023096   4.531   0.195   5.411  2.1810 -1.8118 -0.6761
   89MOL    C4123097   4.622   0.203   5.610 -0.1248 -0.1707 -0.0730
   89MOL    C4223098   4.638   0.056   5.618  0.2746  0.0754  0.5290
   89MOL    C4323099   4.729   7.854   5.679  0.1881  0.0874 -0.0728
   89MOL    C4423100   4.721   7.704   5.673 -0.5536 -0.8231  0.0230
   89MOL    C4523101   4.844   0.019   5.769  0.0393  0.1700 -0.2424
   89MOL    H4623102   4.529   0.231   5.661  0.5304  3.6847 -0.8013
   89MOL    H4723103   4.705   0.256   5.656 -0.4706 -0.5140  0.9509
   89MOL    H4823104   4.562   0.006   5.560  0.8549  1.9280 -1.9329
   89MOL    H4923105   4.820   7.659   5.665 -0.2040  0.3668 -2.9983
   89MOL    H5023106   4.652   7.667   5.597 -3.0571 -1.4676  2.5242
   89MOL    H5123107   4.687   7.687   5.776  0.5012  0.2436  0.5555
   89MOL    H5223108   4.878   7.807   5.820 -2.2467 -0.9742 -0.7115
   89MOL    H5323109   4.803   0.091   5.840  0.4131 -0.0628  0.2091
   89MOL    C5423110   4.954   0.096   5.690 -0.2723  1.2321  0.4866
   89MOL    C5523111   5.064   0.161   5.771  0.1989 -0.0392  0.7035
   89MOL    C5623112   5.166   0.098   5.835 -0.4905 -0.0635  0.0266
   89MOL    C5723113   5.265   0.171   5.927 -0.1908  0.0369 -0.0480
   89MOL    C5823114   5.188   7.832   5.842  0.1730  0.2773  0.5060
   89MOL    H5923115   4.914   0.170   5.621 -0.3489  1.0971  0.3897
   89MOL    H6023116   4.998   0.030   5.615 -0.1863  0.7204  0.9834
   89MOL    H6123117   5.068   0.269   5.773 -2.2926  0.1230 -0.7577
   89MOL    H6223118   5.368   0.152   5.899 -0.1249 -0.0611  0.2591
   89MOL    H6323119   5.242   0.140   6.029 -1.0055  0.8512  0.0240
   89MOL    H6423120   5.258   0.280   5.923  2.0585  0.1964 -0.3763
   89MOL    H6523121   5.278   7.805   5.785  0.8596 -0.0838  1.7439
   89MOL    H6623122   5.104   7.781   5.796 -1.1228  1.2101  1.8110
   89MOL    C6723123   5.198   7.765   5.981  0.9594 -0.3166 -0.1954
   89MOL    C6823124   5.196   7.615   5.971  0.1689  0.1039 -0.0267
   89MOL    C6923125   5.112   7.523   6.027 -1.3039  0.3058  0.3296
   89MOL    C7023126   5.130   7.378   6.000 -0.2229  0.4256 -0.0437
   89MOL    C7123127   4.999   7.552   6.126  0.0823 -0.5077  0.4867
   89MOL    H7223128   5.112   7.791   6.043  1.6805 -0.4921  0.9024
   89MOL    H7323129   5.287   7.797   6.034  1.5329  1.2603 -2.0574
   89MOL    H7423130   5.267   7.572   5.903 -0.3559 -0.5671 -0.1534
   89MOL    H7523131   5.033   7.331   5.978 -0.3743  1.2695 -1.2681
   89MOL    H7623132   5.162   7.318   6.085 -0.8751 -1.5160 -1.1066
   89MOL    H7723133   5.205   7.351   5.925  1.7301 -1.2404  2.4509
   89MOL    H7823134   5.025   7.647   6.172  0.1504 -0.7348  0.9133
   89MOL    H7923135   4.987   7.492   6.216 -0.3291 -3.4759 -1.4712
   89MOL    C8023136   4.863   7.567   6.053  0.1318 -0.6242  0.6066
   89MOL    C8123137   4.756   7.607   6.150  0.3631 -0.7234 -0.0388
   89MOL    C8223138   4.649   7.538   6.184  0.2148  0.1443  0.5572
   89MOL    C8323139   4.637   7.392   6.154 -0.3971  0.3907  0.1025
   89MOL    C8423140   4.534   7.595   6.262 -0.4718  0.0144 -0.1771
   89MOL    H8523141   4.838   7.473   6.004  1.5787 -1.8236  2.1137
   89MOL    H8623142   4.872   7.641   5.974  0.7465 -1.1574  0.1714
   89MOL    H8723143   4.756   7.712   6.176 -0.3796 -1.2313  2.0704
   89MOL    H8823144   4.709   7.354   6.082 -1.4941  1.4746 -1.5882
   89MOL    H8923145   4.544   7.354   6.110 -0.4397  1.2139 -0.5166
   89MOL    H9023146   4.649   7.331   6.244  0.9422 -0.0446 -0.3685
   89MOL    H9123147   4.441   7.577   6.207 -0.0773 -1.8786 -0.2498
   89MOL    H9223148   4.538   7.704   6.261  0.9115 -0.0331 -0.9869
   89MOL    C9323149   4.527   7.539   6.404  0.1056 -0.2736  0.3576
   89MOL    C9423150   4.391   7.575   6.463 -0.5741 -0.0052 -0.5493
   89MOL    C9523151   4.336   7.543   6.584  0.3624 -0.3016  0.0111
   89MOL    C9623152   4.202   7.598   6.627  0.5835 -0.1362 -0.0346
   89MOL    C9723153   4.401   7.437   6.671  0.3885 -0.1949  0.0816
   89MOL    H9823154   4.594   7.600   6.465 -1.4919  0.5709  1.2787
   89MOL    H9923155   4.553   7.433   6.412  2.1371 -0.0384 -2.3496
   89MOL   H10023156   4.343   7.656   6.411  1.5276  0.3086 -2.0603
   89MOL   H10123157   4.218   7.648   6.723 -0.4405  0.9838 -0.4416
   89MOL   H10223158   4.172   7.670   6.552  1.9405  0.8628  0.3724
   89MOL   H10323159   4.129   7.518   6.641 -0.8959  1.1688 -0.2092
   89MOL   H10423160   4.462   7.367   6.614  0.2500 -0.3775  0.1536
   89MOL   H10523161   4.320   7.373   6.707  1.8112 -1.5570  0.9289
   89MOL   C10623162   4.480   7.502   6.784  0.0127 -0.2882  0.3684
   89MOL   C10723163   4.508   7.406   6.892 -0.1024 -0.2311 -0.1884
   89MOL   C10823164   4.459   7.397   7.016 -0.4567  0.3023 -0.5333
   89MOL   C10923165   4.343   7.487   7.059  0.4698  0.1660 -0.2636
   89MOL   C11023166   4.509   7.295   7.110  0.3529  0.2536  0.2578
   89MOL   H11123167   4.433   7.592   6.823  0.4993 -0.5964  1.6929
   89MOL   H11223168   4.570   7.542   6.738 -1.9857  2.9898 -0.8958
   89MOL   H11323169   4.580   7.331   6.863  1.0925  0.9905 -0.4379
   89MOL   H11423170   4.316   7.566   6.990 -1.4753  0.5466  0.9137
   89MOL   H11523171   4.251   7.440   7.092 -0.4294  2.6968  0.9527
   89MOL   H11623172   4.380   7.540   7.147 -0.9713  1.5357 -0.4678
   89MOL   H11723173   4.506   7.203   7.051 -1.6269 -0.0836  0.8520
   89MOL   H11823174   4.437   7.260   7.184  0.0576 -1.1581 -0.6883
   89MOL   C11923175   4.654   7.316   7.172  0.3814 -0.1396  1.0969
   89MOL   C12023176   4.695   7.196   7.258 -0.6571 -0.1194 -0.3182
   89MOL   C12123177   4.753   7.201   7.382  0.2833 -0.4299  0.9049
   89MOL   C12223178   4.790   7.071   7.451  0.3331  0.6003 -0.4661
   89MOL   C12323179   4.786   7.321   7.461 -0.4029  1.1831  0.9418
   89MOL   H12423180   4.674   7.410   7.224  0.1152  1.5321 -1.7538
   89MOL   H12523181   4.721   7.322   7.086 -0.6655  0.4788  0.3239
   89MOL   H12623182   4.685   7.099   7.212  1.8305 -0.1507 -0.8592
   89MOL   H12723183   4.774   7.068   7.559 -0.7296  0.2084 -0.6303
   89MOL   H12823184   4.895   7.059   7.425 -0.0474  0.2027 -1.8646
   89MOL   H12923185   4.725   6.993   7.411  0.5079 -0.3957  1.1363
   89MOL   H13023186   4.774   7.406   7.393  0.1774 -0.0243 -0.7240
   89MOL   H13123187   4.892   7.320   7.485 -0.0693  3.0690 -0.3190
   89MOL   C13223188   4.690   7.344   7.586  0.2506 -0.0920 -0.4262
   89MOL   C13323189   4.540   7.363   7.554 -0.6778  0.3466 -0.0592
   89MOL   C13423190   4.440   7.420   7.629 -1.1191  0.4831 -0.6520
   89MOL   C13523191   4.291   7.432   7.578  0.2223 -0.2890 -0.9331
   89MOL   C13623192   4.458   7.476   7.771 -0.0721  0.3537 -0.0663
   89MOL   H13723193   4.724   7.437   7.630  1.2032 -1.2774  1.4043
   89MOL   H13823194   4.687   7.267   7.664 -0.7101  0.1704 -0.2063
   89MOL   H13923195   4.518   7.334   7.452  3.0274  1.2708 -1.1980
   89MOL   H14023196   4.267   7.365   7.496 -0.8233 -0.6484 -0.3363
   89MOL   H14123197   4.288   7.532   7.535 -2.0317 -0.1805 -0.5607
   89MOL   H14223198   4.222   7.419   7.661  0.1667  0.1282 -0.9143
   89MOL   H14323199   4.552   7.443   7.815 -1.0669  1.3550  2.9053
   89MOL   H14423200   4.376   7.449   7.838  2.3022  0.3458  2.9306
   89MOL   C14523201   4.451   7.628   7.768  0.6495 -0.6193 -0.1158
   89MOL   C14623202   4.488   7.702   0.019 -0.5176  0.4338 -0.2875
   89MOL   C14723203   4.410   7.785   0.092  0.1291 -0.8312 -0.1234
   89MOL   C14823204   4.466   7.845   0.213 -0.0994  0.3683 -1.0112
   89MOL   C14923205   4.265   7.832   0.052 -0.2565  0.0744  0.0461
   89MOL   H15023206   4.354   7.652   7.723 -0.3628  1.2103  2.9468
   89MOL   H15123207   4.530   7.644   7.694  0.0716 -1.4833 -0.9411
   89MOL   H15223208   4.591   7.682   0.043 -0.6816 -0.9642 -0.6657
   89MOL   H15323209   4.393   7.837   0.293 -0.9764 -0.5777 -1.8914
   89MOL   H15423210   4.503   0.067   0.195  1.8175 -0.1846 -0.2759
   89MOL   H15523211   4.548   7.778   0.239  0.2070  0.4461 -1.7446
   89MOL   H15623212   4.242   7.799   7.830  3.4916 -1.3286 -0.4071
   89MOL   H15723213   4.264   0.061   0.035 -0.7872  0.2703  1.2595
   89MOL   C15823214   4.154   7.792   0.149  0.1085 -0.8147  0.8104
   89MOL   C15923215   4.159   7.649   0.180 -0.2133  0.2263 -0.1399
   89MOL   C16023216   4.094   7.551   0.117  0.3064  0.3249  0.4161
   89MOL   C16123217   3.991   7.575   0.004 -0.3466  0.2434 -0.1203
   89MOL   C16223218   4.110   7.403   0.157  0.1148 -0.7382  0.0564
   89MOL   H16323219   4.060   7.825   0.105  1.2050 -0.6680 -1.4602
   89MOL   H16423220   4.167   7.851   0.240  2.3136 -1.4139  0.9259
   89MOL   H16523221   4.234   7.624   0.254 -0.0187  0.1439 -0.3650
   89MOL   H16623222   3.907   7.506   0.006 -0.2028  0.0841  2.4989
   89MOL   H16723223   4.048   7.563   7.791 -0.0589  0.2835  0.0542
   89MOL   H16823224   3.952   7.677   0.005  0.8439  0.7139 -1.0470
   89MOL   H16923225   4.136   7.352   0.064  1.4383 -2.3939  1.3115
   89MOL   H17023226   4.013   7.362   0.182 -0.6318  2.2554  2.3862
   89MOL   C17123227   4.226   7.368   0.248  0.7775  0.4201  0.4447
   89MOL   C17223228   4.263   7.220   0.224 -0.5632 -0.4297  0.3544
   89MOL   C17323229   4.252   7.126   0.313 -0.7932 -0.0487  0.3989
   89MOL   C17423230   4.184   7.133   0.447 -0.4252 -0.4861 -0.5790
   89MOL   C17523231   4.305   6.985   0.295  0.9233  0.0040 -0.2925
   89MOL   H17623232   4.191   7.384   0.350  0.2797 -0.9268  0.5049
   89MOL   H17723233   4.314   7.422   0.215  1.1628 -0.4584  0.0022
   89MOL   H17823234   4.311   7.203   0.129 -1.7258 -2.9461  0.1946
   89MOL   H17923235   4.078   7.110   0.440 -0.7581  1.0495 -0.8321
   89MOL   H18023236   4.183   7.235   0.485  0.2987 -0.3863 -0.8108
   89MOL   H18123237   4.238   7.085   0.528  0.2459  1.9118  0.4143
   89MOL   H18223238   4.365   6.950   0.379 -2.3550  1.1637  2.6742
   89MOL   H18323239   4.374   6.975   0.211  0.3929 -1.3881 -0.5865
   89MOL   C18423240   4.196   6.874   0.265  0.2365 -0.2451  0.2510
   89MOL   C18523241   4.228   6.779   0.148 -0.1779  0.4884  0.3227
   89MOL   C18623242   4.190   6.652   0.139  0.2243  0.0069  0.4688
   89MOL   C18723243   4.236   6.573   0.013  0.7954 -0.4948  0.2959
   89MOL   C18823244   4.108   6.581   0.252 -0.0383 -0.1123 -0.7222
   89MOL   H18923245   4.103   6.914   0.225 -0.1030 -1.7573 -0.5063
   89MOL   H19023246   4.177   6.817   0.356 -1.2406  3.3207  2.2810
   89MOL   H19123247   4.283   6.820   0.064  0.6796 -0.0198  0.6332
   89MOL   H19223248   4.159   6.585   7.816  0.1886  0.7471  1.0902
   89MOL   H19323249   4.249   6.466   0.026  0.8212 -0.3852  1.2502
   89MOL   H19423250   4.328   6.616   7.854 -1.1298  1.4163 -2.4356
   89MOL   H19523251   4.130   6.616   0.353 -0.8146  0.1002 -0.6266
   89MOL   H19623252   4.134   6.475   0.248  2.1168  0.3600 -0.2669
   89MOL   C19723253   3.956   6.586   0.225 -0.6907  0.4520 -0.0128
   89MOL   C19823254   3.877   6.578   0.355 -0.0404  0.5641 -0.1041
   89MOL   C19923255   3.884   6.472   0.437 -0.0145  0.1317  0.3364
   89MOL   C20023256   3.819   6.476   0.577 -0.1519 -0.6842 -0.5514
   89MOL   C20123257   3.943   6.338   0.391 -0.5137  0.6808 -0.4959
   89MOL   H20223258   3.919   6.510   0.157 -1.0768 -2.1531  3.0019
   89MOL   H20323259   3.930   6.683   0.183  0.8741 -0.1322 -2.4334
   89MOL   H20423260   3.815   6.658   0.393  1.4843  2.0695 -0.7277
   89MOL   H20523261   3.719   6.521   0.582  2.0240  4.3365  0.3948
   89MOL   H20623262   3.887   6.545   0.626 -1.3041  0.3719 -0.4250
   89MOL   H20723263   3.825   6.385   0.638  4.3034  0.8889  1.5361
   89MOL   H20823264   3.966   6.326   0.286 -1.2416 -1.5492 -0.4312
   89MOL   H20923265   3.862   6.265   0.398  0.5943 -0.7143 -2.0997
   89MOL   C21023266   4.063   6.294   0.472 -0.8312  0.0922 -0.3669
   89MOL   C21123267   4.136   6.185   0.397  0.1076  0.7971 -0.2649
   89MOL   C21223268   4.258   6.182   0.345 -0.3377 -0.6829 -0.3330
   89MOL   C21323269   4.315   6.052   0.292  0.1078  0.0460 -0.0441
   89MOL   C21423270   4.360   6.290   0.340  0.9119  0.1092 -0.4176
   89MOL   H21523271   4.036   6.246   0.567  1.1950 -0.4538 -0.0584
   89MOL   H21623272   4.141   6.365   0.499 -1.8879  1.0756  0.1584
   89MOL   H21723273   4.094   6.085   0.401 -0.4788  1.0484 -0.0947
   89MOL   H21823274   4.249   5.968   0.271  0.8132 -0.1743 -1.4550
   89MOL   H21923275   4.407   6.013   0.337  2.0605  3.8565 -0.4953
   89MOL   H22023276   4.360   6.073   0.195 -0.2982  0.0825 -0.2233
   89MOL   H22123277   4.323   6.393   0.345  0.6486  0.0167 -0.4430
   89MOL   H22223278   4.402   6.290   0.240 -0.0887  0.4876 -0.8420
   89MOL   C22323279   4.460   6.272   0.456  0.4532  0.0761  0.0955
   89MOL   C22423280   4.572   6.378   0.471  0.1356 -0.6132 -0.8901
   89MOL   C22523281   4.698   6.358   0.500 -0.6542 -0.6953 -0.0880
   89MOL   C22623282   4.791   6.476   0.515  0.4901  0.6681 -0.1500
   89MOL   C22723283   4.755   6.225   0.524 -0.3487  0.3711  0.0244
   89MOL   H22823284   4.512   6.176   0.457  0.2309 -0.0601 -0.6544
   89MOL   H22923285   4.393   6.275   0.541  0.8660  0.2462  0.4129
   89MOL   H23023286   4.542   6.479   0.449  0.1831 -0.4638 -0.2797
   89MOL   H23123287   4.841   6.466   0.612  1.1797  0.8742 -0.4877
   89MOL   H23223288   4.735   6.569   0.507  4.0375  2.9391  0.5404
   89MOL   H23323289   4.865   6.475   0.435  0.4950  1.7240 -0.1607
   89MOL   H23423290   4.848   6.212   0.469 -0.5793  0.9309 -0.5044
   89MOL   H23523291   4.693   6.138   0.504  0.8607  0.0017 -2.2702
   89MOL   C23623292   4.777   6.195   0.679 -0.1552  0.0380  0.6536
   89MOL   C23723293   4.827   6.062   0.715 -0.2991 -0.1162 -0.0043
   89MOL   C23823294   4.756   5.956   0.753 -0.1568  0.4049  0.3926
   89MOL   C23923295   4.835   5.840   0.805  0.3935  0.5714 -0.4663
   89MOL   C24023296   4.604   5.955   0.752 -0.1423 -0.8133 -0.1814
   89MOL   H24123297   4.689   6.225   0.735 -0.3945  0.5233  0.0201
   89MOL   H24223298   4.851   6.269   0.712  0.5288 -0.1902 -0.3395
   89MOL   H24323299   4.935   6.050   0.712 -0.4946 -1.7446 -1.2600
   89MOL   H24423300   4.788   5.820   0.902 -1.2796 -0.9173 -1.5588
   89MOL   H24523301   4.940   5.863   0.818  0.1376  0.8813  1.1576
   89MOL   H24623302   4.837   5.752   0.741  1.7515  0.1611  0.1080
   89MOL   H24723303   4.560   6.053   0.735 -0.3518 -0.4833  2.0375
   89MOL   H24823304   4.573   5.930   0.854  0.9885 -0.8443  0.1581
   89MOL   C24923305   4.542   5.851   0.657 -0.2548 -0.0182  0.2087
   89MOL   C25023306   4.404   5.875   0.607 -0.1541 -0.1248 -0.5204
   89MOL   C25123307   4.310   5.781   0.568  0.1488  0.3517 -0.8124
   89MOL   C25223308   4.170   5.818   0.533 -0.6384 -0.2846 -0.0378
   89MOL   C25323309   4.340   5.630   0.569  0.1270 -0.1151  0.9995
   89MOL   H25423310   4.531   5.751   0.702 -1.1198 -1.2751 -2.6801
   89MOL   H25523311   4.598   5.839   0.565  1.4362  0.1496  1.1941
   89MOL   H25623312   4.372   5.978   0.596 -0.1070 -0.1358 -0.7518
   89MOL   H25723313   4.156   5.791   0.428 -0.8523 -0.2408 -0.0204
   89MOL   H25823314   4.156   5.926   0.531 -1.3613 -0.3787 -1.3767
   89MOL   H25923315   4.093   5.774   0.597 -0.0673 -1.3778 -0.0880
   89MOL   H26023316   4.446   5.608   0.583  0.6646  1.0339 -1.0441
   89MOL   H26123317   4.315   5.592   0.470 -1.8998  1.1679  0.9969
   89MOL   H26223318   4.282   5.584   0.648 -2.5549  0.6661 -0.4329
   90MOL     C123319   7.213   6.074   3.349  0.3029  0.0154 -0.1304
   90MOL     C223320   7.279   6.105   3.218 -0.0587  0.6630 -0.0324
   90MOL     C323321   7.238   6.201   3.128 -0.1808  0.5123  0.4368
   90MOL     C423322   7.305   6.237   3.002 -0.2058  0.7521  0.1966
   90MOL     C523323   7.108   6.274   3.152 -0.2165 -0.2465 -0.2063
   90MOL     H623324   7.190   6.166   3.403  1.4103 -0.0216  0.4164
   90MOL     H723325   7.121   6.019   3.330 -0.1942 -0.2188  2.7767
   90MOL     H823326   7.371   6.061   3.183  0.1288  2.3331 -1.7264
   90MOL     H923327   7.243   6.221   2.914  0.8354 -0.0663 -0.4003
   90MOL    H1023328   7.395   6.177   2.991  0.1891  1.2346  0.7701
   90MOL    H1123329   7.329   6.343   2.989 -0.6898  1.0385  1.5906
   90MOL    H1223330   7.044   6.210   3.212 -0.1179 -2.1746 -2.0916
   90MOL    H1323331   7.045   6.280   3.063 -0.5308 -2.9196 -0.1948
   90MOL    H1423332   7.281   6.022   3.416  1.5452  0.6896 -0.8503
   90MOL    C1523333   7.128   6.411   3.218 -0.0233  0.7646 -0.2214
   90MOL    C1623334   6.994   6.473   3.242 -1.2053  0.4531 -0.3179
   90MOL    C1723335   6.962   6.604   3.232  0.9723 -0.7222  0.8995
   90MOL    C1823336   6.833   6.646   3.292  0.3162 -0.2939 -0.9661
   90MOL    C1923337   7.043   6.718   3.165  0.2392  0.1204  0.4513
   90MOL    H2023338   7.177   6.485   3.155  0.5385 -0.1648 -0.8904
   90MOL    H2123339   7.179   6.419   3.313  0.2277 -0.7639 -0.2214
   90MOL    H2223340   6.925   6.408   3.292 -1.2541  1.1065  0.4704
   90MOL    H2323341   6.789   6.737   3.251  0.2957  0.0935 -0.0934
   90MOL    H2423342   6.820   6.654   3.400  1.0108 -1.4420 -0.7840
   90MOL    H2523343   6.762   6.565   3.274  0.4553  0.1600 -3.6721
   90MOL    H2623344   7.146   6.704   3.196  0.4678  1.1225  0.1730
   90MOL    H2723345   7.015   6.818   3.198  2.4619  0.8215  0.2750
   90MOL    C2823346   7.027   6.720   3.009 -0.3449 -0.3822  0.1531
   90MOL    C2923347   7.104   6.839   2.949  0.3772  0.5306  0.4589
   90MOL    C3023348   7.069   6.936   2.853  0.2912 -0.4127  0.0470
   90MOL    C3123349   7.163   7.047   2.805 -0.4800 -0.0570 -0.2714
   90MOL    C3223350   6.931   6.941   2.784 -0.2733  0.0036 -0.0737
   90MOL    H3323351   6.922   6.728   2.982 -0.6401 -1.7711  0.8609
   90MOL    H3423352   7.065   6.627   2.968  2.3211 -0.3563  2.3671
   90MOL    H3523353   7.199   6.848   3.001  1.5137  0.6371 -1.5568
   90MOL    H3623354   7.118   7.144   2.829  1.3088  0.9609 -0.9839
   90MOL    H3723355   7.192   7.031   2.701 -0.8206  1.2780 -0.5776
   90MOL    H3823356   7.263   7.050   2.849 -0.4491 -1.0999 -0.2486
   90MOL    H3923357   6.886   6.842   2.787  2.6994 -1.3937  4.6810
   90MOL    H4023358   6.944   6.974   2.681  3.1253 -0.3667  0.1632
   90MOL    C4123359   6.824   7.035   2.847  0.0264 -0.2515  0.4222
   90MOL    C4223360   6.687   7.013   2.795 -0.2823  0.3018  0.3591
   90MOL    C4323361   6.587   6.932   2.841  0.4902  0.4215  0.5304
   90MOL    C4423362   6.446   6.930   2.786  0.0758 -0.4535 -0.1217
   90MOL    C4523363   6.607   6.838   2.959 -0.6419 -0.0835  0.2897
   90MOL    H4623364   6.860   7.138   2.849 -0.9081  0.1534 -1.8627
   90MOL    H4723365   6.811   7.002   2.950 -1.3311  1.5979  0.8721
   90MOL    H4823366   6.650   7.083   2.721  0.4527  0.8789  0.5345
   90MOL    H4923367   6.440   6.953   2.680 -1.9235  2.2835  0.5404
   90MOL    H5023368   6.371   6.996   2.830  0.0454  0.8906 -2.1324
   90MOL    H5123369   6.412   6.826   2.784  0.5538 -0.6036 -0.7321
   90MOL    H5223370   6.713   6.811   2.968 -0.6068  0.3484  1.2667
   90MOL    H5323371   6.566   6.738   2.943 -0.7752 -0.2219  1.3971
   90MOL    C5423372   6.572   6.893   3.093  0.1775 -0.0549 -0.0456
   90MOL    C5523373   6.424   6.875   3.118  0.7018 -0.0097  0.1441
   90MOL    C5623374   6.344   6.965   3.170 -0.3968  0.5183 -0.8715
   90MOL    C5723375   6.194   6.937   3.200 -0.0299 -0.0302 -0.1652
   90MOL    C5823376   6.391   7.101   3.216 -0.5807 -0.2063 -0.7386
   90MOL    H5923377   6.619   6.991   3.104  0.9566 -0.2532 -1.5118
   90MOL    H6023378   6.625   6.827   3.162 -0.7540 -0.2806  0.4542
   90MOL    H6123379   6.379   6.782   3.086  1.2747 -0.0140 -0.6833
   90MOL    H6223380   6.121   6.999   3.148  0.3821  0.0137 -0.6951
   90MOL    H6323381   6.194   6.954   3.308 -0.2282  2.2583 -0.5190
   90MOL    H6423382   6.182   6.833   3.167  2.8261 -0.3924 -0.1397
   90MOL    H6523383   6.491   7.095   3.259 -0.5892  0.1197 -0.6695
   90MOL    H6623384   6.334   7.138   3.302  0.3180 -2.4497  0.8741
   90MOL    C6723385   6.387   7.209   3.107  0.8302 -0.5656  0.0258
   90MOL    C6823386   6.248   7.223   3.044  0.5056  0.2442  0.5570
   90MOL    C6923387   6.162   7.330   3.030 -0.3667 -0.0074 -0.2461
   90MOL    C7023388   6.035   7.330   2.952  0.7160 -0.0840 -0.6296
   90MOL    C7123389   6.202   7.468   3.081  0.0887 -0.0597 -0.2129
   90MOL    H7223390   6.464   7.172   3.039  3.5508 -0.5867  2.9595
   90MOL    H7323391   6.434   7.299   3.146 -1.0161 -0.2042  1.4590
   90MOL    H7423392   6.206   7.137   2.994 -0.1144  1.4327 -1.0383
   90MOL    H7523393   5.952   7.374   3.007  1.4199  0.3129  0.1281
   90MOL    H7623394   5.998   7.234   2.916 -1.3452  0.4473  0.0383
   90MOL    H7723395   6.054   7.397   2.868  0.9121  1.5521  0.6931
   90MOL    H7823396   6.232   7.535   3.000 -0.1940 -1.1239 -1.2227
   90MOL    H7923397   6.292   7.465   3.142  1.3660  0.3392 -2.0197
   90MOL    C8023398   6.096   7.527   3.173  0.4756 -0.0417  0.1282
   90MOL    C8123399   6.067   7.448   3.294  0.4248  0.3489  0.6470
   90MOL    C8223400   6.127   7.466   3.416 -0.1023  0.3555  0.6965
   90MOL    C8323401   6.235   7.569   3.447  0.3922  0.7312 -0.5598
   90MOL    C8423402   6.084   7.370   3.532 -0.4068 -0.1604 -0.3406
   90MOL    H8523403   6.004   7.550   3.118  0.9337 -1.6707 -1.3696
   90MOL    H8623404   6.129   7.625   3.207 -0.1663  0.4211 -0.5377
   90MOL    H8723405   5.995   7.367   3.295  2.1768 -1.2660  1.7863
   90MOL    H8823406   6.192   7.668   3.435  0.6743  0.8234 -0.8230
   90MOL    H8923407   6.305   7.551   3.366  2.1349 -1.1601  1.3004
   90MOL    H9023408   6.282   7.547   3.543  0.6958 -1.7388 -1.2365
   90MOL    H9123409   5.984   7.329   3.517  0.4271 -1.7221 -1.8686
   90MOL    H9223410   6.081   7.429   3.624 -1.8480  1.0896 -1.1876
   90MOL    C9323411   6.192   7.259   3.536 -0.0316 -0.4472 -0.4903
   90MOL    C9423412   6.145   7.137   3.612  0.4420 -0.3520 -0.0989
   90MOL    C9523413   6.203   7.067   3.714 -0.2599 -0.5199 -0.5118
   90MOL    C9623414   6.137   6.948   3.781 -0.0287  0.3834  0.7052
   90MOL    C9723415   6.335   7.106   3.784 -0.6215 -0.2609  0.0402
   90MOL    H9823416   6.284   7.300   3.578  0.0806 -0.5600 -0.6249
   90MOL    H9923417   6.219   7.230   3.434  0.6915  1.3492 -0.8207
   90MOL   H10023418   6.052   7.096   3.574 -0.6668  1.9821 -0.0084
   90MOL   H10123419   6.057   6.902   3.723  0.3034  1.6358 -0.7925
   90MOL   H10223420   6.208   6.868   3.802  0.8237  0.6853 -0.9131
   90MOL   H10323421   6.088   6.978   3.873 -2.7097  1.5329 -1.0406
   90MOL   H10423422   6.382   7.191   3.734 -0.9395  0.0343  0.2389
   90MOL   H10523423   6.398   7.018   3.778 -0.3802  0.0202 -1.9125
   90MOL   C10623424   6.316   7.137   3.933  0.6747 -0.5521 -0.3694
   90MOL   C10723425   6.223   7.257   3.959  0.7612  0.1006  0.4015
   90MOL   C10823426   6.115   7.270   4.047 -0.4003  0.2113  0.0599
   90MOL   C10923427   6.089   7.153   4.134  0.0877  0.3002  0.1501
   90MOL   C11023428   6.033   7.398   4.052 -0.5333  0.1120 -0.0624
   90MOL   H11123429   6.414   7.159   3.974  0.3005  0.3803  0.0410
   90MOL   H11223430   6.281   7.046   3.983 -1.6765 -0.2930 -1.4910
   90MOL   H11323431   6.246   7.345   3.900  1.7596 -0.0306  0.5921
   90MOL   H11423432   6.038   7.070   4.086 -1.4492  1.2749  0.0296
   90MOL   H11523433   6.183   7.117   4.175 -0.1139  0.9771  1.2582
   90MOL   H11623434   6.025   7.178   4.219  3.0788  1.2760  2.1882
   90MOL   H11723435   5.933   7.386   4.092 -0.5175  3.2532  1.0426
   90MOL   H11823436   6.028   7.447   3.955 -2.7790  0.7021  0.3421
   90MOL   C11923437   6.093   7.496   4.161 -0.7284 -0.8862  0.6641
   90MOL   C12023438   6.117   7.452   4.302  0.9935 -0.1293  0.1736
   90MOL   C12123439   6.035   7.452   4.407 -0.5724 -0.0912 -0.3779
   90MOL   C12223440   6.085   7.397   4.543 -0.4586 -0.3552  0.3980
   90MOL   C12323441   5.890   7.505   4.416 -1.0014 -0.6661  0.1633
   90MOL   H12423442   6.020   7.575   4.174  2.8621  2.8225 -0.4012
   90MOL   H12523443   6.189   7.539   4.130 -2.1796  1.5270 -0.5694
   90MOL   H12623444   6.211   7.401   4.316  0.7086 -0.5267  0.6446
   90MOL   H12723445   6.072   7.468   4.624  0.1211 -1.9533  1.9323
   90MOL   H12823446   6.192   7.376   4.537 -0.5645 -0.9362  0.5210
   90MOL   H12923447   6.032   7.305   4.565  0.3093 -0.6031  1.2555
   90MOL   H13023448   5.874   7.577   4.336 -0.7262 -0.7781  0.0073
   90MOL   H13123449   5.879   7.555   4.512 -0.2119 -0.7243  0.2867
   90MOL   C13223450   5.785   7.404   4.413  0.9296 -0.2900  0.4485
   90MOL   C13323451   5.647   7.469   4.436 -0.4411  0.4424  0.6625
   90MOL   C13423452   5.538   7.464   4.357  0.4682 -0.1059  0.0644
   90MOL   C13523453   5.421   7.551   4.392  0.1139 -0.4841  0.0992
   90MOL   C13623454   5.529   7.378   4.230 -0.0021  0.4715 -0.2996
   90MOL   H13723455   5.790   7.333   4.495 -1.1394 -1.3910 -0.3451
   90MOL   H13823456   5.791   7.336   4.328 -1.0761  0.1892 -0.1056
   90MOL   H13923457   5.646   7.526   4.527  1.6264  3.6067 -1.2076
   90MOL   H14023458   5.358   7.554   4.303  1.6263 -1.5298 -1.0364
   90MOL   H14123459   5.451   7.654   4.410 -0.4315 -0.2544 -0.2916
   90MOL   H14223460   5.374   7.517   4.484 -1.0438  0.2882 -0.1983
   90MOL   H14323461   5.432   7.327   4.231 -0.1786  0.7715 -1.2129
   90MOL   H14423462   5.607   7.303   4.222  0.9639  1.0678  3.0036
   90MOL   C14523463   5.530   7.470   4.105  0.2912  0.1312 -0.1022
   90MOL   C14623464   5.649   7.568   4.093 -0.1453 -0.3327 -0.0748
   90MOL   C14723465   5.659   7.687   4.038  0.4241 -0.6893 -0.1229
   90MOL   C14823466   5.791   7.769   4.036 -0.2802 -0.1054 -0.4093
   90MOL   C14923467   5.543   7.754   3.961 -0.0965 -0.9262 -0.1105
   90MOL   H15023468   5.429   7.510   4.114 -0.8049 -2.2851 -1.0230
   90MOL   H15123469   5.517   7.420   4.008 -1.7603  1.2268 -0.4271
   90MOL   H15223470   5.740   7.533   4.141 -1.3934  0.5352  3.0796
   90MOL   H15323471   5.879   7.713   4.068 -1.3033 -0.2008  2.3950
   90MOL   H15423472   5.783   7.867   4.082 -0.2102 -0.2194 -0.1497
   90MOL   H15523473   5.815   7.780   3.930  1.3430 -0.9454 -0.1445
   90MOL   H15623474   5.544   7.862   3.980  1.5967 -0.8204 -0.6978
   90MOL   H15723475   5.454   7.722   4.015  0.0101 -0.6467  0.2270
   90MOL   C15823476   5.538   7.724   3.818 -0.2726 -0.9371  0.2075
   90MOL   C15923477   5.557   7.574   3.781 -0.2384 -0.2064  0.2447
   90MOL   C16023478   5.670   7.519   3.733 -0.2653  0.4630 -0.8295
   90MOL   C16123479   5.796   7.598   3.696 -0.3414  0.0729  0.4515
   90MOL   C16223480   5.683   7.371   3.709 -0.1131 -0.1988 -0.0217
   90MOL   H16323481   5.611   7.790   3.771  0.8841 -0.3176  2.7805
   90MOL   H16423482   5.441   7.760   3.784  0.9188  1.7372 -0.5439
   90MOL   H16523483   5.480   7.502   3.804  0.8129 -1.6461 -0.6886
   90MOL   H16623484   5.886   7.553   3.738 -0.2487 -0.6991 -0.5566
   90MOL   H16723485   5.796   7.701   3.734  1.7324  0.0433  0.5891
   90MOL   H16823486   5.806   7.605   3.588  0.0449 -1.5004  0.3791
   90MOL   H16923487   5.710   7.343   3.607  0.1450 -1.3485  0.3567
   90MOL   H17023488   5.582   7.331   3.720  0.2055 -0.6713  1.3403
   90MOL   C17123489   5.768   7.295   3.812 -0.3701 -0.2573 -0.1241
   90MOL   C17223490   5.752   7.142   3.803  0.0769 -0.0724  0.4367
   90MOL   C17323491   5.717   7.057   3.895  0.5995  0.0224 -0.3820
   90MOL   C17423492   5.673   7.097   4.034 -0.3232 -0.5249 -0.6939
   90MOL   C17523493   5.691   6.905   3.863  0.3139 -0.1092  0.6534
   90MOL   H17623494   5.749   7.331   3.913 -0.4069  0.8393 -0.5172
   90MOL   H17723495   5.871   7.322   3.787 -1.2523  1.0598 -2.5270
   90MOL   H17823496   5.775   7.094   3.709  0.3513  1.7452 -0.4454
   90MOL   H17923497   5.761   7.131   4.089  0.3868  0.6461 -2.5099
   90MOL   H18023498   5.630   7.012   4.087 -3.0714  1.8234  0.9650
   90MOL   H18123499   5.619   7.191   4.038 -0.2178 -0.5430  2.6204
   90MOL   H18223500   5.704   6.884   3.757  1.4459  0.1068  0.7450
   90MOL   H18323501   5.585   6.894   3.888 -0.1541  2.7508  0.1115
   90MOL   C18423502   5.777   6.800   3.943 -0.0255  0.2484  0.0993
   90MOL   C18523503   5.747   6.653   3.912 -0.5336 -0.1974  0.0932
   90MOL   C18623504   5.658   6.575   3.977  0.7175 -0.7209 -0.7999
   90MOL   C18723505   5.630   6.432   3.942 -0.0900 -0.4512  0.8125
   90MOL   C18823506   5.588   6.629   4.108 -0.2707 -0.5509 -0.2527
   90MOL   H18923507   5.793   6.829   4.047  1.0624  1.7028 -0.4528
   90MOL   H19023508   5.880   6.819   3.910 -0.2944 -0.3948 -1.1332
   90MOL   H19123509   5.794   6.620   3.820 -0.2454 -0.5440  0.3611
   90MOL   H19223510   5.693   6.369   4.004  0.1790 -1.5484 -0.5534
   90MOL   H19323511   5.639   6.424   3.834  3.3183  0.1408  0.9988
   90MOL   H19423512   5.527   6.406   3.964 -0.7551  0.9238 -0.6185
   90MOL   H19523513   5.653   6.706   4.150  0.4009 -0.8070 -0.8044
   90MOL   H19623514   5.597   6.553   4.186  0.1468 -1.9210 -1.6177
   90MOL   C19723515   5.442   6.680   4.078 -0.2436  0.3723 -0.4404
   90MOL   C19823516   5.359   6.729   4.196 -0.3805 -0.0231 -0.2562
   90MOL   C19923517   5.300   6.645   4.282 -0.4208  0.1258  0.1113
   90MOL   C20023518   5.241   6.706   4.405 -0.2358 -0.7069 -0.1241
   90MOL   C20123519   5.289   6.494   4.276 -0.1075 -0.0510 -0.2937
   90MOL   H20223520   5.384   6.610   4.017  1.1576 -1.6225  0.4673
   90MOL   H20323521   5.447   6.762   4.006 -0.3139 -1.1062 -2.1766
   90MOL   H20423522   5.368   6.835   4.214 -0.4631  0.2939 -2.0444
   90MOL   H20523523   5.132   6.712   4.397  0.0626  1.7201 -2.9354
   90MOL   H20623524   5.280   6.804   4.431  0.9371 -0.9289 -1.0246
   90MOL   H20723525   5.272   6.654   4.496 -0.5534  0.1248  0.4632
   90MOL   H20823526   5.338   6.465   4.183  1.0655  1.6498 -0.2324
   90MOL   H20923527   5.184   6.469   4.259  0.4786 -0.9689 -2.9187
   90MOL   C21023528   5.343   6.422   4.400  0.0108 -0.1834 -0.0230
   90MOL   C21123529   5.378   6.275   4.386  0.5077  0.0810  0.1899
   90MOL   C21223530   5.501   6.218   4.382  0.2072 -0.3234  0.5012
   90MOL   C21323531   5.516   6.067   4.353 -0.3991  0.1602  0.9543
   90MOL   C21423532   5.629   6.292   4.388  0.1016  0.2526  0.4893
   90MOL   H21523533   5.272   6.426   4.483  0.0283 -2.0139  0.1158
   90MOL   H21623534   5.425   6.475   4.449  0.1513  0.0669 -0.5338
   90MOL   H21723535   5.291   6.212   4.381  1.2449 -1.0243  0.8389
   90MOL   H21823536   5.569   6.013   4.431  1.3644 -0.0177 -0.3415
   90MOL   H21923537   5.559   6.047   4.255 -0.8931 -0.9081  0.9450
   90MOL   H22023538   5.419   6.017   4.347  1.0378 -2.5319 -0.7723
   90MOL   H22123539   5.598   6.396   4.380  0.8641  0.5142  0.8729
   90MOL   H22223540   5.683   6.269   4.296 -3.2685  0.1155 -1.5559
   90MOL   C22323541   5.714   6.263   4.511 -0.1873  0.3569 -0.1752
   90MOL   C22423542   5.846   6.333   4.507 -0.7261  0.1229 -0.0106
   90MOL   C22523543   5.915   6.361   4.621  0.4331 -0.3515 -0.1558
   90MOL   C22623544   6.050   6.425   4.610 -0.6166 -0.6960 -0.6799
   90MOL   C22723545   5.865   6.337   4.762  0.2155 -0.1548  0.3282
   90MOL   H22823546   5.730   6.155   4.504 -1.2164  0.2410 -0.9260
   90MOL   H22923547   5.650   6.294   4.593  0.2182 -0.4313  0.4444
   90MOL   H23023548   5.887   6.364   4.411  1.1592  2.3374  1.4392
   90MOL   H23123549   6.122   6.346   4.628  1.4145  1.3006  0.2145
   90MOL   H23223550   6.051   6.507   4.682 -2.7201 -3.4210  2.6343
   90MOL   H23323551   6.065   6.458   4.507  0.0493  1.0269 -0.0558
   90MOL   H23423552   5.757   6.327   4.764 -0.4378  5.1045 -0.5587
   90MOL   H23523553   5.899   6.424   4.819  1.6610 -1.4155  1.4299
   90MOL   C23623554   5.927   6.216   4.827 -0.2614 -0.0865 -0.5271
   90MOL   C23723555   5.881   6.210   4.973  0.2112  0.2891  0.6419
   90MOL   C23823556   5.902   6.114   5.063 -0.0874 -0.3872 -0.0919
   90MOL   C23923557   5.862   6.133   5.211  0.1457 -0.4730 -0.0488
   90MOL   C24023558   5.968   5.983   5.027  0.9441  1.0794 -0.4665
   90MOL   H24123559   6.034   6.216   4.808  0.0482  3.2503  0.9579
   90MOL   H24223560   5.893   6.127   4.774  0.3559  0.9772 -2.7561
   90MOL   H24323561   5.825   6.298   5.001  2.3263  1.9483 -0.2426
   90MOL   H24423562   5.825   6.232   5.238 -0.5444 -0.6274 -0.4280
   90MOL   H24523563   5.948   6.107   5.273 -1.5417 -3.1651  1.2507
   90MOL   H24623564   5.778   6.066   5.227  0.4231 -0.7401  0.2797
   90MOL   H24723565   6.018   5.945   5.116  0.7989  0.1432 -0.7700
   90MOL   H24823566   6.043   5.997   4.949  1.4430 -0.7488 -0.3418
   90MOL   C24923567   5.878   5.871   4.977 -0.0749  0.1361  0.1737
   90MOL   C25023568   5.939   5.731   4.976 -0.6655  0.5342 -0.7717
   90MOL   C25123569   5.937   5.641   4.883 -0.4547 -0.7827  0.3048
   90MOL   C25223570   6.011   5.513   4.905 -0.4282 -0.5553 -0.0758
   90MOL   C25323571   5.866   5.660   4.745 -0.6576 -0.1755 -0.3565
   90MOL   H25423572   5.830   5.899   4.883  2.6601  1.8103 -0.8068
   90MOL   H25523573   5.794   5.873   5.046  0.2004  0.6935  0.5077
   90MOL   H25623574   5.986   5.697   5.067  0.9655 -1.8077 -2.4513
   90MOL   H25723575   5.944   5.426   4.900 -0.4119 -0.5320 -0.7483
   90MOL   H25823576   6.062   5.518   5.001  1.2052 -0.8752 -0.9070
   90MOL   H25923577   6.089   5.502   4.829 -1.2879  2.3641 -1.4354
   90MOL   H26023578   5.821   5.562   4.728 -0.8702 -0.2211  0.4722
   90MOL   H26123579   5.927   5.676   4.656 -0.3255  1.1225  0.0903
   90MOL   H26223580   5.787   5.734   4.756  0.3133  0.7789  0.3017
   91MOL     C123581   4.635   3.058   0.883  0.1578  0.5320  1.3507
   91MOL     C223582   4.682   3.082   0.744 -0.2851 -0.8638  0.1439
   91MOL     C323583   4.654   3.005   0.638 -0.3729  0.6950  0.1213
   91MOL     C423584   4.704   3.038   0.498 -0.0628 -0.0644  0.6829
   91MOL     C523585   4.575   2.875   0.637 -0.2066 -0.3337  0.5711
   91MOL     H623586   4.665   2.958   0.913 -0.9695 -0.1896  0.1266
   91MOL     H723587   4.688   3.123   0.953 -1.6277  0.7871  2.5088
   91MOL     H823588   4.751   3.164   0.728 -1.6228  0.1717 -0.4658
   91MOL     H923589   4.673   3.134   0.456  0.9214  0.4824  1.1997
   91MOL    H1023590   4.692   2.961   0.423 -3.9432  1.4129 -0.3733
   91MOL    H1123591   4.811   3.043   0.516  0.4228 -2.3078 -1.4289
   91MOL    H1223592   4.488   2.883   0.572  0.5581 -0.3726 -0.4668
   91MOL    H1323593   4.529   2.861   0.735 -1.4528 -1.1547 -0.1187
   91MOL    H1423594   4.526   3.071   0.885 -0.2874 -2.7301 -0.1959
   91MOL    C1523595   4.649   2.741   0.600  0.7148 -0.6400 -0.6345
   91MOL    C1623596   4.565   2.624   0.634  0.7115  0.6778 -0.2413
   91MOL    C1723597   4.578   2.562   0.753  0.3554 -0.3657 -1.0782
   91MOL    C1823598   4.485   2.455   0.791 -0.2270 -0.0464  0.2961
   91MOL    C1923599   4.664   2.607   0.874  0.5841  0.0856  0.3044
   91MOL    H2023600   4.751   2.724   0.636  0.8787  0.4648 -0.5356
   91MOL    H2123601   4.644   2.738   0.492 -0.6190  2.1919 -0.7052
   91MOL    H2223602   4.502   2.585   0.556  1.2677 -1.4145  0.3155
   91MOL    H2323603   4.529   2.388   0.865 -1.1920  0.6386  1.4938
   91MOL    H2423604   4.461   2.396   0.702  0.6549  1.0115 -0.6640
   91MOL    H2523605   4.388   2.485   0.830 -0.5138 -1.4395  0.7067
   91MOL    H2623606   4.605   2.606   0.966 -0.9453  2.8727 -0.5724
   91MOL    H2723607   4.701   2.709   0.863 -0.0914  0.0775 -2.6624
   91MOL    C2823608   4.794   2.531   0.879  0.1467 -0.4653 -0.1238
   91MOL    C2923609   4.900   2.609   0.950 -0.2120 -0.4922 -0.0297
   91MOL    C3023610   5.034   2.626   0.931 -0.2102 -0.3382 -0.9516
   91MOL    C3123611   5.119   2.704   1.029  0.0844  0.2640 -0.2605
   91MOL    C3223612   5.096   2.575   0.801 -0.3614  0.2650 -0.2979
   91MOL    H3323613   4.826   2.509   0.777 -0.7717  0.0542 -0.5261
   91MOL    H3423614   4.783   2.437   0.933 -0.0561 -0.8177 -0.7673
   91MOL    H3523615   4.858   2.638   1.045 -0.7638 -0.5444 -0.2552
   91MOL    H3623616   5.151   2.803   0.999  0.0738  0.7295  1.2531
   91MOL    H3723617   5.205   2.638   1.040  0.1795  0.7121  1.7859
   91MOL    H3823618   5.072   2.709   1.127 -1.3563 -1.4075 -0.8418
   91MOL    H3923619   5.046   2.482   0.776  0.9730 -0.0125 -2.0920
   91MOL    H4023620   5.195   2.535   0.825 -0.4778  2.1822  3.9139
   91MOL    C4123621   5.105   2.685   0.692  0.3933  0.1429 -0.2370
   91MOL    C4223622   5.162   2.613   0.564  0.0025 -0.3306 -0.3682
   91MOL    C4323623   5.096   2.585   0.445 -0.6994 -0.5394  0.1222
   91MOL    C4423624   5.154   2.496   0.340  0.0511 -0.2216 -0.1001
   91MOL    C4523625   4.964   2.651   0.397 -0.0865 -0.4972 -0.0069
   91MOL    H4623626   5.168   2.761   0.737  0.2615 -0.3419  0.7833
   91MOL    H4723627   5.008   2.735   0.688 -1.0873 -2.4970  1.1118
   91MOL    H4823628   5.259   2.572   0.588  1.2590  1.4301 -2.1962
   91MOL    H4923629   5.245   2.457   0.385  0.0789 -0.2587 -0.1897
   91MOL    H5023630   5.181   2.561   0.257  1.7510  0.5728  1.0305
   91MOL    H5123631   5.086   2.420   0.302  0.1544 -0.9008  1.0612
   91MOL    H5223632   4.933   2.707   0.484  0.0918 -1.3047  0.5892
   91MOL    H5323633   4.883   2.579   0.387 -0.1665 -0.5655  1.0434
   91MOL    C5423634   4.978   2.733   0.271 -0.4465 -0.6500 -0.0251
   91MOL    C5523635   4.845   2.794   0.234 -0.1204 -0.3468  0.7534
   91MOL    C5623636   4.826   2.920   0.186  0.6576  0.2256  0.1409
   91MOL    C5723637   4.689   2.977   0.148  0.4154  0.6997  0.2424
   91MOL    C5823638   4.941   3.021   0.178  0.1994  0.2914 -0.1528
   91MOL    H5923639   5.009   2.672   0.187  1.5507  0.7226 -0.3233
   91MOL    H6023640   5.053   2.811   0.285 -0.6270 -0.2131 -1.4214
   91MOL    H6123641   4.769   2.718   0.235  2.4163 -2.9972  0.4012
   91MOL    H6223642   4.656   3.048   0.224  0.9052  1.2575 -0.0590
   91MOL    H6323643   4.611   2.902   0.136  0.1466  0.8006  1.2919
   91MOL    H6423644   4.695   3.039   0.059 -0.5946  0.7185  0.1839
   91MOL    H6523645   5.004   3.025   0.267  1.2518 -1.1305 -0.8217
   91MOL    H6623646   4.893   3.119   0.181 -0.9431 -0.2296 -1.2789
   91MOL    C6723647   5.033   3.005   0.059 -0.1562 -0.4457  0.5839
   91MOL    C6823648   4.957   3.005   7.802  0.2881  0.1179 -0.2933
   91MOL    C6923649   4.941   2.895   7.723 -0.3244  0.1005 -0.1698
   91MOL    C7023650   4.880   2.919   7.586 -0.0342  0.2099  0.5337
   91MOL    C7123651   4.993   2.755   7.745 -0.3237 -0.2469 -0.1747
   91MOL    H7223652   5.092   2.915   0.079  2.2711  1.0441  0.2846
   91MOL    H7323653   5.105   3.086   0.057  1.1095 -1.5893 -0.4301
   91MOL    H7423654   4.922   3.101   7.769  0.3008  0.0352 -0.5457
   91MOL    H7523655   4.799   2.848   7.569  0.1591  0.0206  0.4095
   91MOL    H7623656   4.962   2.900   7.517 -0.4826 -1.7719  0.5308
   91MOL    H7723657   4.828   3.015   7.583 -0.5919 -0.1098 -0.6554
   91MOL    H7823658   5.064   2.751   7.828  0.1252 -1.2433 -0.5995
   91MOL    H7923659   5.051   2.723   7.659 -1.8418  0.5785 -1.5359
   91MOL    C8023660   4.877   2.661   7.776 -0.9039  0.7394 -0.6392
   91MOL    C8123661   4.943   2.529   7.816 -1.2313  0.0576 -0.2623
   91MOL    C8223662   4.955   2.421   7.740 -0.0619 -0.3255  0.3524
   91MOL    C8323663   4.924   2.428   7.590  0.6482  0.7244 -0.4995
   91MOL    C8423664   5.020   2.292   7.773 -0.4145  0.2860  0.4239
   91MOL    H8523665   4.806   2.657   7.694 -1.9953  0.3712  0.3061
   91MOL    H8623666   4.812   2.692   7.858 -0.8759 -2.0700  0.5312
   91MOL    H8723667   4.974   2.519   0.040  0.6855  1.4549 -0.6963
   91MOL    H8823668   5.004   2.380   7.533 -0.8673 -1.3256 -0.9369
   91MOL    H8923669   4.916   2.527   7.544 -1.1698 -0.0539 -1.9033
   91MOL    H9023670   4.836   2.368   7.570  0.5726  0.5522  0.3475
   91MOL    H9123671   5.071   2.296   7.869  1.8399  0.6862 -0.7444
   91MOL    H9223672   5.097   2.262   7.702 -1.4905 -0.5027 -0.4232
   91MOL    C9323673   4.918   2.179   7.781 -0.3445 -0.3536 -0.6671
   91MOL    C9423674   4.969   2.062   7.867  0.1644  0.2006  0.0467
   91MOL    C9523675   4.901   1.988   0.074  0.0871  0.1633 -0.3967
   91MOL    C9623676   4.962   1.859   0.123 -1.1459 -0.7699  1.2740
   91MOL    C9723677   4.753   2.000   0.096 -0.1511 -0.7451  0.1643
   91MOL    H9823678   4.889   2.143   7.682  1.7187  1.4966 -2.0206
   91MOL    H9923679   4.826   2.218   7.825  0.1684  0.3253 -0.1726
   91MOL   H10023680   5.075   2.042   7.862  0.3096  1.2663 -1.4421
   91MOL   H10123681   4.975   1.865   0.231  3.9780 -0.4790  0.7496
   91MOL   H10223682   4.892   1.777   0.111 -1.3726 -0.0716 -2.7484
   91MOL   H10323683   5.060   1.839   0.080 -1.9829  1.4817 -1.8987
   91MOL   H10423684   4.694   1.909   0.082 -0.7704 -0.2016 -0.8164
   91MOL   H10523685   4.703   2.065   0.024 -2.4351 -1.4076  1.0819
   91MOL   C10623686   4.731   2.064   0.240 -0.3419  0.2295  0.6934
   91MOL   C10723687   4.584   2.103   0.256 -0.5104  0.5778  0.0168
   91MOL   C10823688   4.535   2.220   0.297  0.6653  0.3851 -0.1101
   91MOL   C10923689   4.615   2.342   0.337 -0.1412 -0.0697  0.0828
   91MOL   C11023690   4.381   2.234   0.318 -0.3787  0.5371  0.1356
   91MOL   H11123691   4.792   2.153   0.249  0.0978 -0.2608  2.6619
   91MOL   H11223692   4.751   1.993   0.320 -1.8817 -0.4302  0.5056
   91MOL   H11323693   4.522   2.019   0.231 -0.5856  0.3067  1.1132
   91MOL   H11423694   4.574   2.377   0.432 -1.6326 -1.0148 -0.1903
   91MOL   H11523695   4.722   2.335   0.355 -0.2741 -0.1557  0.8795
   91MOL   H11623696   4.598   2.431   0.276  0.2831 -0.2690 -0.3256
   91MOL   H11723697   4.358   2.287   0.410 -1.8588 -1.0189  0.6985
   91MOL   H11823698   4.327   2.139   0.326  0.6737 -0.1798 -0.9565
   91MOL   C11923699   4.308   2.320   0.207 -0.1048 -0.5130  0.0068
   91MOL   C12023700   4.160   2.336   0.231  0.0392  0.6835  0.1457
   91MOL   C12123701   4.066   2.264   0.167  0.2078 -0.0739  0.0881
   91MOL   C12223702   3.921   2.304   0.184 -0.3867  0.0981  0.6557
   91MOL   C12323703   4.094   2.157   0.061  0.3701 -0.1021  0.0846
   91MOL   H12423704   4.330   2.286   0.106  2.3616  2.2490 -0.4449
   91MOL   H12523705   4.349   2.421   0.203  2.4610 -1.5851 -2.5783
   91MOL   H12623706   4.133   2.421   0.292  0.7899 -0.4686  2.1519
   91MOL   H12723707   3.856   2.218   0.197 -0.2567 -0.1627 -0.3508
   91MOL   H12823708   3.890   2.362   0.097  1.7426  1.9296  1.0685
   91MOL   H12923709   3.908   2.370   0.270 -0.5604  2.1979 -0.9289
   91MOL   H13023710   4.043   2.063   0.083 -0.1133  0.0686 -0.3065
   91MOL   H13123711   4.195   2.121   0.081 -0.2184 -0.9563  1.6490
   91MOL   C13223712   4.091   2.224   7.799  0.0417 -0.5833 -0.0988
   91MOL   C13323713   4.157   2.137   7.694 -0.5230  0.2923 -0.8835
   91MOL   C13423714   4.103   2.087   7.582  0.0915  0.3715 -0.1651
   91MOL   C13523715   4.174   1.987   7.496 -0.2705  0.2896 -1.0207
   91MOL   C13623716   3.959   2.121   7.533 -0.3902 -0.7346  0.1207
   91MOL   H13723717   4.156   2.312   7.795 -0.1518 -0.4602 -0.5635
   91MOL   H13823718   3.992   2.260   7.769  1.3065  2.2083 -1.1328
   91MOL   H13923719   4.257   2.106   7.720 -1.2681 -0.5400  1.0592
   91MOL   H14023720   4.201   2.032   7.400 -0.2099  1.4615 -0.4679
   91MOL   H14123721   4.110   1.902   7.473 -0.1188 -0.4498  1.2711
   91MOL   H14223722   4.264   1.946   7.540 -1.3243  0.4589  1.3498
   91MOL   H14323723   3.893   2.153   7.613  1.9073 -0.4678  1.9862
   91MOL   H14423724   3.907   2.036   7.488 -0.7584 -0.6820  0.4441
   91MOL   C14523725   3.969   2.225   7.423 -0.4987  0.0673 -0.2964
   91MOL   C14623726   3.830   2.271   7.376  0.8111 -0.1774  0.5757
   91MOL   C14723727   3.784   2.284   7.252 -0.2866 -1.2233 -0.0494
   91MOL   C14823728   3.637   2.311   7.226  0.2178 -0.0364 -0.1077
   91MOL   C14923729   3.867   2.259   7.128  0.1448 -0.1998 -0.2087
   91MOL   H15023730   4.030   2.183   7.344 -0.6581 -3.0191  1.1455
   91MOL   H15123731   4.019   2.316   7.457 -0.3008 -0.2127  0.1766
   91MOL   H15223732   3.756   2.291   7.451  0.4916 -0.7738  0.4208
   91MOL   H15323733   3.597   2.367   7.311 -0.1755  1.6571 -1.3814
   91MOL   H15423734   3.581   2.219   7.213 -1.2879  0.8075  0.1652
   91MOL   H15523735   3.610   2.357   7.130 -0.3238 -1.1669 -0.4984
   91MOL   H15623736   3.967   2.289   7.157 -0.0770  0.3241  0.0213
   91MOL   H15723737   3.837   2.317   7.040 -0.9288  0.0584  0.3176
   91MOL   C15823738   3.845   2.112   7.080 -0.6640 -0.4950 -0.6507
   91MOL   C15923739   3.909   2.084   6.947  0.2520  0.9841  1.0400
   91MOL   C16023740   4.030   2.031   6.921  0.3387  0.1251  0.8638
   91MOL   C16123741   4.124   1.994   7.028  0.1095 -0.2505  0.0407
   91MOL   C16223742   4.075   1.996   6.781 -0.1363  0.0923 -0.0234
   91MOL   H16323743   3.740   2.086   7.072 -0.7636 -0.6395  1.0562
   91MOL   H16423744   3.875   2.036   7.152 -2.7970 -0.1890  0.6126
   91MOL   H16523745   3.840   2.100   6.866  0.1938 -2.1278  0.4133
   91MOL   H16623746   4.105   2.039   7.125 -3.1096 -1.8437  0.2140
   91MOL   H16723747   4.224   2.032   7.007  0.0727 -0.0118  0.3057
   91MOL   H16823748   4.117   1.885   7.038 -0.4508 -0.1937  0.2746
   91MOL   H16923749   4.068   1.887   6.772  0.1108 -0.0598  1.5757
   91MOL   H17023750   4.178   2.022   6.756  0.4229 -2.2893 -0.3737
   91MOL   C17123751   3.997   2.052   6.662  0.1532 -0.0928 -0.2087
   91MOL   C17223752   4.063   2.016   6.535 -0.0342  0.0934 -0.7392
   91MOL   C17323753   4.134   2.090   6.453  0.4289 -0.2727 -0.2330
   91MOL   C17423754   4.159   2.236   6.480  0.5966  0.3982 -0.0456
   91MOL   C17523755   4.180   2.037   6.322 -0.1169  0.0183 -0.3380
   91MOL   H17623756   3.979   2.159   6.667 -2.7726 -0.6144  1.9751
   91MOL   H17723757   3.898   2.007   6.664 -0.4314  1.0983 -1.4665
   91MOL   H17823758   4.051   1.912   6.512 -0.3925 -0.5006  1.9436
   91MOL   H17923759   4.242   2.269   6.417  0.9512 -0.1970  0.1023
   91MOL   H18023760   4.182   2.242   6.587 -0.2648  3.3424 -0.0044
   91MOL   H18123761   4.077   2.303   6.457 -0.9671 -1.4867 -0.1700
   91MOL   H18223762   4.158   2.116   6.251 -3.2363  0.0171  0.5621
   91MOL   H18323763   4.113   1.955   6.296 -3.4678  1.9265  1.9382
   91MOL   C18423764   4.324   1.979   6.323  0.2138 -0.2557 -0.5914
   91MOL   C18523765   4.377   1.939   6.188  0.4369 -0.4150  0.3545
   91MOL   C18623766   4.444   1.829   6.148  0.2840 -0.5660  0.0964
   91MOL   C18723767   4.492   1.803   6.003  0.2774  0.0350  0.5796
   91MOL   C18823768   4.483   1.726   6.249 -0.8132  0.2522 -0.5481
   91MOL   H18923769   4.334   1.909   6.406 -1.2256 -0.6632 -0.7549
   91MOL   H19023770   4.376   2.071   6.348 -2.0389  1.4452 -2.0426
   91MOL   H19123771   4.348   2.005   6.107  1.2401  0.5196  0.8215
   91MOL   H19223772   4.592   1.761   6.017  0.8753  0.3978 -2.3077
   91MOL   H19323773   4.493   1.890   5.938  0.1852 -0.7263 -0.4466
   91MOL   H19423774   4.427   1.727   5.961  0.3069 -0.5302  1.5561
   91MOL   H19523775   4.468   1.625   6.209 -0.0673  1.1320 -3.0889
   91MOL   H19623776   4.407   1.722   6.328 -0.5478 -0.6351 -0.3225
   91MOL   C19723777   4.620   1.756   6.308 -0.5194  1.0331 -0.3871
   91MOL   C19823778   4.651   1.700   6.443  0.4465 -0.6466 -0.6251
   91MOL   C19923779   4.697   1.770   6.551 -0.2562  0.2200  0.3080
   91MOL   C20023780   4.726   1.705   6.683 -0.2923  0.5985 -0.5529
   91MOL   C20123781   4.726   1.920   6.548  0.0232 -0.0484  0.2423
   91MOL   H20223782   4.614   1.864   6.321  1.3221  0.7704  3.3966
   91MOL   H20323783   4.703   1.732   6.241 -2.2882  0.6660 -2.4857
   91MOL   H20423784   4.641   1.593   6.456 -0.7144 -0.5931 -0.9723
   91MOL   H20523785   4.706   1.599   6.672  1.3882  0.4219 -2.3321
   91MOL   H20623786   4.652   1.731   6.758  0.0978 -0.2151  0.1265
   91MOL   H20723787   4.833   1.713   6.706  0.0525 -1.8946 -1.1685
   91MOL   H20823788   4.769   1.956   6.455 -1.2732  1.2011  0.1128
   91MOL   H20923789   4.792   1.938   6.633  1.1383  2.5591 -1.1400
   91MOL   C21023790   4.606   2.011   6.571  0.3850 -0.6565 -0.5322
   91MOL   C21123791   4.623   2.153   6.521 -0.0616  0.0791  0.1699
   91MOL   C21223792   4.664   2.259   6.587  0.1561 -0.1750 -0.2302
   91MOL   C21323793   4.667   2.393   6.516 -0.1530 -0.3642 -0.4302
   91MOL   C21423794   4.716   2.265   6.733  0.1342 -0.0801  0.1446
   91MOL   H21523795   4.590   2.022   6.678 -0.2208  0.3129 -0.7102
   91MOL   H21623796   4.514   1.972   6.527 -0.0627  0.6346 -0.7578
   91MOL   H21723797   4.585   2.178   6.423  3.4322  1.5466 -0.8737
   91MOL   H21823798   4.761   2.445   6.533 -0.4406 -0.2340  0.7815
   91MOL   H21923799   4.576   2.451   6.533  0.0736  0.3026 -1.4769
   91MOL   H22023800   4.671   2.376   6.408 -1.9892 -1.0567 -0.4088
   91MOL   H22123801   4.796   2.339   6.736 -1.4973  1.7295  0.0168
   91MOL   H22223802   4.762   2.172   6.763 -0.1766 -0.7501 -1.4286
   91MOL   C22323803   4.615   2.329   6.831 -0.5118  0.4336 -0.3123
   91MOL   C22423804   4.680   2.315   6.973  0.3497  0.3514 -0.1444
   91MOL   C22523805   4.637   2.237   7.069  0.2466  0.1777 -0.3633
   91MOL   C22623806   4.723   2.233   7.195 -0.0266 -0.0644  0.0591
   91MOL   C22723807   4.526   2.137   7.056 -0.4996 -0.2217  0.1639
   91MOL   H22823808   4.517   2.285   6.813 -0.3238  1.2735 -3.7080
   91MOL   H22923809   4.603   2.435   6.811  1.2851  0.6752 -0.2053
   91MOL   H23023810   4.773   2.370   6.981  1.0370 -0.6464 -1.0640
   91MOL   H23123811   4.762   2.133   7.209 -1.0625 -0.2970  1.4323
   91MOL   H23223812   4.666   2.260   7.284 -2.1954 -0.2941 -1.2190
   91MOL   H23323813   4.808   2.301   7.195  0.3996 -0.5973  0.4012
   91MOL   H23423814   4.456   2.168   6.978  0.8023  0.6133 -0.7085
   91MOL   H23523815   4.475   2.130   7.152  0.4612 -0.9998  0.6247
   91MOL   C23623816   4.574   1.986   7.023 -0.0347  0.1309 -0.2160
   91MOL   C23723817   4.455   1.895   7.018 -0.2686  0.5042 -0.1935
   91MOL   C23823818   4.435   1.793   7.096 -0.4780  0.1193 -0.8656
   91MOL   C23923819   4.317   1.701   7.072 -0.4933  0.9312 -0.5823
   91MOL   C24023820   4.530   1.752   7.208  0.0054 -0.2695 -0.2844
   91MOL   H24123821   4.651   1.948   7.092  0.1495 -1.5607 -1.3394
   91MOL   H24223822   4.620   1.989   6.924 -0.2187 -1.3094 -0.3571
   91MOL   H24323823   4.392   1.904   6.931  0.6858 -1.4349 -1.1121
   91MOL   H24423824   4.342   1.597   7.087 -0.3254  0.7840 -1.8134
   91MOL   H24523825   4.258   1.708   6.980 -2.3408  1.1550  0.5891
   91MOL   H24623826   4.246   1.733   7.149 -0.3162  4.0480 -1.6210
   91MOL   H24723827   4.630   1.742   7.167  0.8860 -1.2320  2.0081
   91MOL   H24823828   4.518   1.649   7.241  3.6344 -0.8281 -0.5390
   91MOL   C24923829   4.523   1.837   7.340 -0.0576 -0.3870 -0.5802
   91MOL   C25023830   4.646   1.821   7.424  0.0579 -0.7764 -0.1343
   91MOL   C25123831   4.685   1.903   7.527 -0.5484  0.1427 -0.4375
   91MOL   C25223832   4.818   1.888   7.595 -0.3075 -0.0807  0.3029
   91MOL   C25323833   4.613   2.034   7.560 -0.0436 -0.1647 -0.4170
   91MOL   H25423834   4.436   1.801   7.396  1.0023 -2.4227 -0.1810
   91MOL   H25523835   4.496   1.940   7.317 -3.7464 -0.5970  2.3199
   91MOL   H25623836   4.710   1.739   7.395  0.3988 -0.6762  0.3176
   91MOL   H25723837   4.826   1.896   7.703  2.7324  1.2851  0.0248
   91MOL   H25823838   4.887   1.962   7.554 -0.7375  0.5153  0.6489
   91MOL   H25923839   4.859   1.792   7.563  1.4704  0.8399 -0.2530
   91MOL   H26023840   4.631   2.117   7.493 -0.6252  1.1116  0.9812
   91MOL   H26123841   4.620   2.070   7.663  0.6298 -1.5160  0.0245
   91MOL   H26223842   4.505   2.015   7.555 -0.4067  1.5674  0.5235
   92MOL     C123843   0.346   2.799   0.155  0.0421  0.4663 -0.2595
   92MOL     C223844   0.485   2.818   0.107  0.4068 -0.5908  0.2212
   92MOL     C323845   0.595   2.766   0.159  0.6152  0.1005 -0.4146
   92MOL     C423846   0.730   2.811   0.107  0.2333 -0.1955 -0.4824
   92MOL     C523847   0.602   2.679   0.285  0.1202  0.5690 -0.8593
   92MOL     H623848   0.318   2.708   0.100 -1.1619  1.2483 -0.9522
   92MOL     H723849   0.339   2.784   0.262 -0.9891 -3.4665 -0.7634
   92MOL     H823850   0.502   2.877   0.018  0.9279  0.4476  0.9980
   92MOL     H923851   0.774   2.860   0.193 -1.1792  0.4543 -0.1209
   92MOL    H1023852   0.743   2.882   0.025 -1.2493  0.8097  0.1417
   92MOL    H1123853   0.798   2.727   0.090 -0.9319 -1.5972  1.5785
   92MOL    H1223854   0.540   2.722   0.363 -0.5508  0.5406 -1.3751
   92MOL    H1323855   0.700   2.698   0.329 -0.1087  1.6280 -0.8060
   92MOL    H1423856   0.280   2.880   0.125  0.5044  1.0223  0.2204
   92MOL    C1523857   0.573   2.526   0.255  0.0549  0.0525  0.1369
   92MOL    C1623858   0.602   2.434   0.365  0.2788  0.0336 -0.2310
   92MOL    C1723859   0.529   2.382   0.465  0.5843 -0.0458  0.8105
   92MOL    C1823860   0.582   2.273   0.558 -0.2840 -0.0902 -0.4885
   92MOL    C1923861   0.383   2.416   0.490  1.1488 -0.3195  0.5214
   92MOL    H2023862   0.639   2.489   0.176  1.2770 -1.8430  1.9905
   92MOL    H2123863   0.470   2.520   0.220 -0.6114  0.4810  1.9942
   92MOL    H2223864   0.700   2.388   0.355 -0.0617 -0.2840 -2.3207
   92MOL    H2323865   0.690   2.284   0.550  0.1031 -3.1899 -0.3028
   92MOL    H2423866   0.549   2.175   0.524  2.0101 -0.7777 -0.8144
   92MOL    H2523867   0.542   2.301   0.655  0.2705  1.3565 -0.6737
   92MOL    H2623868   0.361   2.509   0.437 -0.1347 -1.1767 -0.4847
   92MOL    H2723869   0.367   2.444   0.594  0.8857 -0.1166  0.4280
   92MOL    C2823870   0.275   2.315   0.441  0.1124 -0.1942  0.1785
   92MOL    C2923871   0.259   2.189   0.524 -0.2642 -0.7876  0.4509
   92MOL    C3023872   0.287   2.063   0.478  0.6140  0.4048  0.4881
   92MOL    C3123873   0.270   1.944   0.571 -1.0226 -0.6874  0.3967
   92MOL    C3223874   0.323   2.031   0.338  0.5927 -0.1539  0.5078
   92MOL    H3323875   0.279   2.290   0.335 -1.0953 -1.8359  0.5154
   92MOL    H3423876   0.173   2.353   0.457 -0.7041 -2.3619  0.2009
   92MOL    H3523877   0.225   2.203   0.625  0.4502 -3.0041  1.0360
   92MOL    H3623878   0.238   1.981   0.669  0.5003  1.6563  0.0223
   92MOL    H3723879   0.355   1.879   0.593  0.6261  1.1336 -0.4455
   92MOL    H3823880   0.182   1.891   0.535 -0.7949 -0.6632 -0.1944
   92MOL    H3923881   0.400   1.953   0.334 -0.8931 -1.7549  2.5510
   92MOL    H4023882   0.356   2.115   0.277 -0.1946  0.1945  0.5574
   92MOL    C4123883   0.205   1.963   0.260  0.0484  0.0716  0.3092
   92MOL    C4223884   0.067   2.032   0.264  0.1913 -0.1078  0.1442
   92MOL    C4323885   7.836   2.006   0.188  0.7952 -0.0556  0.4338
   92MOL    C4423886   7.715   2.098   0.185 -0.7428 -0.1239 -0.3920
   92MOL    C4523887   7.825   1.897   0.081  0.4400 -0.1904 -0.4259
   92MOL    H4623888   0.193   1.860   0.294  0.1481  0.3939  1.3386
   92MOL    H4723889   0.233   1.957   0.155  0.0148  2.7839  0.1090
   92MOL    H4823890   0.065   2.118   0.329  1.6579 -0.7290  1.0331
   92MOL    H4923891   7.735   2.196   0.229 -0.7989  0.7152 -2.2264
   92MOL    H5023892   7.636   2.054   0.245 -0.5203  0.6248  0.4741
   92MOL    H5123893   7.674   2.116   0.086 -0.1608 -3.1865 -1.2368
   92MOL    H5223894   0.044   1.850   0.078  1.0216  0.8512  1.7114
   92MOL    H5323895   7.818   1.957   7.869 -0.6878  0.5593  0.1356
   92MOL    C5423896   7.704   1.809   0.117 -0.2822  0.1835 -0.1192
   92MOL    C5523897   7.713   1.670   0.063 -0.3697 -0.2336 -0.2577
   92MOL    C5623898   7.623   1.592   0.021  0.0260 -0.3177  0.8184
   92MOL    C5723899   7.641   1.443   0.011 -0.2596  0.7806  0.3190
   92MOL    C5823900   7.474   1.626   0.005 -0.2478  0.0612  0.0005
   92MOL    H5923901   7.612   1.864   0.098  0.3003  0.5681 -2.0428
   92MOL    H6023902   7.706   1.798   0.225 -1.3741  3.0032  0.2481
   92MOL    H6123903   7.810   1.621   0.066 -0.9183 -1.3811 -0.9686
   92MOL    H6223904   7.738   1.413   7.851 -0.3801 -1.0684  1.3491
   92MOL    H6323905   7.583   1.392   7.813  1.3443 -0.5494 -0.0300
   92MOL    H6423906   7.624   1.387   0.104 -0.9597  2.0186  0.9605
   92MOL    H6523907   7.435   1.587   7.791  0.6902 -0.8369 -0.0291
   92MOL    H6623908   7.476   1.735   7.876  1.6022 -0.0313 -1.2490
   92MOL    C6723909   7.378   1.566   0.111 -0.5338  0.0726 -0.2051
   92MOL    C6823910   7.241   1.633   0.113  0.6689 -0.4888 -0.1008
   92MOL    C6923911   7.204   1.712   0.216 -0.8617  0.3413 -0.0712
   92MOL    C7023912   7.067   1.776   0.216 -0.5863 -0.0408  0.0991
   92MOL    C7123913   7.286   1.728   0.347 -0.6661 -0.1100 -0.2087
   92MOL    H7223914   7.432   1.568   0.205  0.2761 -0.4158 -0.6549
   92MOL    H7323915   7.349   1.462   0.094 -1.0555  0.3203 -0.8798
   92MOL    H7423916   7.179   1.612   0.028 -0.3580  1.4176  0.1662
   92MOL    H7523917   6.988   1.701   0.227  0.3842 -1.1428 -0.3348
   92MOL    H7623918   7.047   1.829   0.124 -2.5593 -1.4978 -0.3493
   92MOL    H7723919   7.053   1.844   0.301  0.3538  1.2463 -0.7634
   92MOL    H7823920   7.257   1.824   0.388  0.0943  0.0699 -0.0863
   92MOL    H7923921   7.395   1.736   0.342 -0.5117 -2.3930 -1.0345
   92MOL    C8023922   7.265   1.612   0.451  0.1181 -0.2390  0.2950
   92MOL    C8123923   7.127   1.619   0.530  0.0540 -0.0823 -0.1121
   92MOL    C8223924   7.029   1.528   0.526 -0.4706  0.5365  0.0891
   92MOL    C8323925   7.043   1.402   0.442 -0.1644 -0.6847  0.0088
   92MOL    C8423926   6.898   1.551   0.611 -1.0277  0.5548 -0.1219
   92MOL    H8523927   7.334   1.623   0.535  2.5636 -0.0658 -1.6785
   92MOL    H8623928   7.306   1.517   0.418  2.6242  1.4232 -1.6307
   92MOL    H8723929   7.124   1.696   0.605 -0.5547  0.3465 -0.5716
   92MOL    H8823930   7.139   1.399   0.391 -0.0444  1.0415  0.1026
   92MOL    H8923931   6.959   1.410   0.374 -0.3028 -1.2817  0.1112
   92MOL    H9023932   7.032   1.313   0.505 -1.9109  0.5809  1.5756
   92MOL    H9123933   6.925   1.616   0.695  0.1239 -0.0401 -0.0124
   92MOL    H9223934   6.870   1.456   0.656  0.9230 -0.1623 -0.3698
   92MOL    C9323935   6.782   1.605   0.523  0.3440  0.2867 -0.4802
   92MOL    C9423936   6.657   1.638   0.609 -0.3912  0.4147  0.9823
   92MOL    C9523937   6.565   1.731   0.577  0.5294  1.0390  0.5692
   92MOL    C9623938   6.451   1.765   0.666 -0.4311  0.2793  0.1629
   92MOL    C9723939   6.561   1.807   0.444  0.5301  0.3195  0.1491
   92MOL    H9823940   6.766   1.553   0.428  1.2150  0.4115 -0.7013
   92MOL    H9923941   6.823   1.691   0.471  3.1100 -0.5856  0.1809
   92MOL   H10023942   6.656   1.585   0.703 -2.7891  3.4187  2.7492
   92MOL   H10123943   6.436   1.705   0.755  0.6712  0.5812  0.5652
   92MOL   H10223944   6.457   1.869   0.699  0.7815  1.3969 -3.3228
   92MOL   H10323945   6.361   1.747   0.608  1.4936 -1.3517 -2.4486
   92MOL   H10423946   6.461   1.802   0.401  0.9553  1.1221 -0.9403
   92MOL   H10523947   6.628   1.751   0.379 -0.2954  0.7374 -1.0656
   92MOL   C10623948   6.612   1.955   0.457  0.0230  0.0733 -0.3411
   92MOL   C10723949   6.679   2.004   0.333 -1.0853 -0.4372 -0.4336
   92MOL   C10823950   6.798   2.064   0.325  0.1676 -0.1128 -0.5144
   92MOL   C10923951   6.890   2.106   0.437 -0.0161 -0.3833  0.5822
   92MOL   C11023952   6.860   2.092   0.191  0.4801 -0.7553 -0.7153
   92MOL   H11123953   6.675   1.959   0.546  1.1847 -1.0271 -1.0936
   92MOL   H11223954   6.528   2.024   0.468  1.7940  1.9126  2.1667
   92MOL   H11323955   6.630   1.977   0.241 -0.0008  1.2893 -1.5451
   92MOL   H11423956   6.841   2.093   0.534 -0.2232 -1.2121  0.3740
   92MOL   H11523957   6.984   2.052   0.445 -0.1058 -0.6131  0.0926
   92MOL   H11623958   6.912   2.213   0.434  0.1539 -0.4733 -2.7868
   92MOL   H11723959   6.828   2.022   0.115  0.3365 -0.6536 -0.7486
   92MOL   H11823960   6.963   2.060   0.203 -0.2411 -2.6101  0.8343
   92MOL   C11923961   6.835   2.229   0.138  0.2350  0.1497  0.2962
   92MOL   C12023962   6.891   2.246   7.873 -0.5321  0.0841 -0.1127
   92MOL   C12123963   6.815   2.253   7.764  1.0947  0.4377  0.0771
   92MOL   C12223964   6.869   2.258   7.618  0.3317  0.2183  0.0167
   92MOL   C12323965   6.663   2.241   7.769 -0.4000 -0.2324 -0.2938
   92MOL   H12423966   6.885   2.303   0.200  0.8891  1.2363 -1.5207
   92MOL   H12523967   6.730   2.261   0.144  0.4598  1.3050 -1.7512
   92MOL   H12623968   6.998   2.243   7.855 -0.4282  1.5057  0.1592
   92MOL   H12723969   6.827   2.333   7.552  1.1014 -0.3334 -1.1306
   92MOL   H12823970   6.858   2.165   7.562  0.0417  0.3700 -0.1804
   92MOL   H12923971   6.977   2.273   7.618  0.2297  0.9926  1.0173
   92MOL   H13023972   6.617   2.186   7.852 -2.1470 -1.3433 -1.9525
   92MOL   H13123973   6.634   2.189   7.678  1.2095  1.7856 -1.9728
   92MOL   C13223974   6.594   2.378   7.760 -0.1089  0.5938  0.1180
   92MOL   C13323975   6.445   2.364   7.718 -0.0210  0.0060  0.3355
   92MOL   C13423976   6.373   2.433   7.620 -0.0176 -0.0016 -0.5233
   92MOL   C13523977   6.226   2.407   7.590 -0.5920  0.7582 -0.2731
   92MOL   C13623978   6.436   2.543   7.534 -1.0663  0.4512  0.0202
   92MOL   H13723979   6.639   2.439   7.682  0.8566 -0.8413 -0.4724
   92MOL   H13823980   6.604   2.430   7.856 -3.2380 -0.6419  1.1925
   92MOL   H13923981   6.394   2.286   7.773  0.6878  0.2568  1.3691
   92MOL   H14023982   6.224   2.399   7.481  0.8517 -2.9848 -0.1185
   92MOL   H14123983   6.153   2.475   7.633 -1.0877 -1.1508  1.9641
   92MOL   H14223984   6.196   2.314   7.638 -1.3635  2.3437  2.4162
   92MOL   H14323985   6.524   2.586   7.581 -1.4486 -0.3930  1.5399
   92MOL   H14423986   6.367   2.627   7.525 -2.2943 -0.3148  1.9913
   92MOL   C14523987   6.472   2.499   7.397  0.3308  0.7479 -0.3709
   92MOL   C14623988   6.519   2.619   7.311 -0.1190 -0.6526 -0.2480
   92MOL   C14723989   6.648   2.645   7.288 -0.4783 -0.2708  0.8013
   92MOL   C14823990   6.671   2.775   7.215  0.1761 -0.0817 -0.3212
   92MOL   C14923991   6.774   2.557   7.323 -0.0622  0.2841 -0.0497
   92MOL   H15023992   6.382   2.461   7.349 -0.2700  0.9898  0.5544
   92MOL   H15123993   6.546   2.419   7.398 -0.8045 -0.3242  2.6931
   92MOL   H15223994   6.439   2.689   7.294  0.2352  0.1741  1.3531
   92MOL   H15323995   6.734   2.829   7.286 -0.6234 -0.6397  0.8217
   92MOL   H15423996   6.576   2.829   7.211  0.9846  1.4632  0.6027
   92MOL   H15523997   6.718   2.748   7.120 -0.2840 -2.2066  0.0320
   92MOL   H15623998   6.750   2.474   7.388  1.1153 -0.3663 -0.4347
   92MOL   H15723999   6.842   2.613   7.386 -0.7523  0.1118  0.8532
   92MOL   C15824000   6.844   2.511   7.194  0.1966  0.6081  0.6073
   92MOL   C15924001   6.976   2.430   7.224  0.1483 -0.4123 -0.1159
   92MOL   C16024002   6.981   2.300   7.193 -0.2015  0.1986  0.6048
   92MOL   C16124003   6.868   2.205   7.160 -0.2592 -0.3879 -0.6265
   92MOL   C16224004   7.115   2.234   7.214 -0.1840  0.6681  0.2161
   92MOL   H16324005   6.863   2.586   7.118 -0.3436 -0.1644 -0.3099
   92MOL   H16424006   6.770   2.448   7.144  1.7407 -0.6466 -0.1697
   92MOL   H16524007   7.057   2.495   7.254  0.9849 -1.4086 -0.1929
   92MOL   H16624008   6.767   2.246   7.153  0.6961  1.6462 -3.7065
   92MOL   H16724009   6.860   2.130   7.238  4.5482 -2.3861 -1.8884
   92MOL   H16824010   6.886   2.152   7.067 -1.2744  1.2305 -1.7651
   92MOL   H16924011   7.198   2.302   7.198  0.9184 -0.9535 -1.1579
   92MOL   H17024012   7.135   2.171   7.127  1.3767  1.4034  0.0457
   92MOL   C17124013   7.131   2.167   7.357  0.3030  0.1765  0.0317
   92MOL   C17224014   7.257   2.075   7.368  0.3878 -0.3033  0.9846
   92MOL   C17324015   7.248   1.939   7.366 -0.2035 -0.3803  0.1895
   92MOL   C17424016   7.111   1.870   7.368  0.0767  0.2255  0.1029
   92MOL   C17524017   7.379   1.861   7.364 -0.0952  0.1493 -0.0967
   92MOL   H17624018   7.044   2.104   7.375  2.3163 -2.4845  0.7234
   92MOL   H17724019   7.131   2.234   7.443  0.4391  1.5784 -1.0261
   92MOL   H17824020   7.352   2.125   7.356  0.0280  0.4660  1.2915
   92MOL   H17924021   7.056   1.883   7.275  1.0480  3.2445 -0.1012
   92MOL   H18024022   7.047   1.909   7.446 -0.2601  0.9923 -0.5458
   92MOL   H18124023   7.129   1.764   7.388 -3.0208 -0.3955 -0.1666
   92MOL   H18224024   7.464   1.925   7.343 -0.7552  1.1953  0.3812
   92MOL   H18324025   7.371   1.801   7.273  1.1328  0.8289 -0.6517
   92MOL   C18424026   7.409   1.780   7.494 -0.5175  0.3173 -0.4324
   92MOL   C18524027   7.538   1.704   7.484 -0.7142  0.1086  0.1219
   92MOL   C18624028   7.662   1.734   7.530  0.3862  0.1445 -0.1940
   92MOL   C18724029   7.776   1.639   7.513 -0.2834  1.1110  0.3323
   92MOL   C18824030   7.699   1.862   7.607 -0.0577  0.3042  0.2921
   92MOL   H18924031   7.327   1.716   7.524  2.1057 -3.1947 -0.3956
   92MOL   H19024032   7.430   1.862   7.563 -1.4783  0.3396 -0.1690
   92MOL   H19124033   7.524   1.609   7.435  2.2952 -0.4044  0.2152
   92MOL   H19224034   7.751   1.539   7.477  1.2057  0.8958 -0.1599
   92MOL   H19324035   7.853   1.630   7.589  0.0506 -3.0455 -0.3615
   92MOL   H19424036   7.834   1.692   7.437  0.5524  2.8032  2.1119
   92MOL   H19524037   7.799   1.858   7.649 -0.5778  4.3449  2.1412
   92MOL   H19624038   7.629   1.864   7.690  0.3571 -0.4141  0.6597
   92MOL   C19724039   7.713   1.993   7.533  0.2704 -1.0035  0.1472
   92MOL   C19824040   7.752   2.107   7.623  0.4010 -0.0993  0.7123
   92MOL   C19924041   7.696   2.223   7.639 -0.2336  0.4108  0.1809
   92MOL   C20024042   7.748   2.325   7.741  0.6247 -0.4157  0.1418
   92MOL   C20124043   7.575   2.276   7.569 -0.0094  0.1275  0.3733
   92MOL   H20224044   7.628   2.019   7.469  1.1316  1.2150 -0.1290
   92MOL   H20324045   7.793   1.977   7.461  0.7203 -0.6448  0.5596
   92MOL   H20424046   7.839   2.094   7.686  0.1105  1.0923  1.3560
   92MOL   H20524047   7.768   2.423   7.698 -0.1251 -0.5716 -0.5855
   92MOL   H20624048   7.832   2.303   7.807 -0.1192  0.4064  1.3849
   92MOL   H20724049   7.667   2.340   7.813  1.2051 -2.2275  1.2104
   92MOL   H20824050   7.537   2.219   7.484 -1.0694  0.0459  0.8851
   92MOL   H20924051   7.601   2.378   7.542  0.8571 -0.3370 -0.5513
   92MOL   C21024052   7.446   2.281   7.655 -0.8601 -0.5895 -0.0427
   92MOL   C21124053   7.404   2.148   7.716  0.3404  0.5809 -0.9483
   92MOL   C21224054   7.333   2.126   7.835  0.3484 -0.0617 -0.1251
   92MOL   C21324055   7.288   1.985   7.874  0.2637 -0.3595 -0.1664
   92MOL   C21424056   7.293   2.226   0.062 -0.8249 -0.6894  0.2296
   92MOL   H21524057   7.359   2.299   7.593 -0.8410  0.4510  0.2269
   92MOL   H21624058   7.446   2.360   7.730 -1.6109  0.0889 -0.7497
   92MOL   H21724059   7.423   2.058   7.659  0.3216  0.7157 -1.1709
   92MOL   H21824060   7.191   1.988   0.044 -0.6770 -2.1000 -1.8668
   92MOL   H21924061   7.355   1.941   0.069 -0.7229  1.6195  1.9703
   92MOL   H22024062   7.292   1.921   7.786 -0.1715  0.1561 -0.5678
   92MOL   H22124063   7.200   2.188   0.104 -2.6953  2.4801 -0.9065
   92MOL   H22224064   7.248   2.315   0.018  2.9234  1.1363 -0.1392
   92MOL   C22324065   7.403   2.247   0.174  0.2383  0.6975  0.2604
   92MOL   C22424066   7.365   2.322   0.300  0.9043 -0.1820  0.3838
   92MOL   C22524067   7.336   2.279   0.421  0.2918  0.5673 -0.6017
   92MOL   C22624068   7.299   2.371   0.536  0.9651  0.8445  0.9774
   92MOL   C22724069   7.346   2.137   0.473 -0.3133  0.0089 -0.0825
   92MOL   H22824070   7.485   2.302   0.127 -1.0148  2.6578  0.2757
   92MOL   H22924071   7.432   2.145   0.196  1.0536  0.7815 -0.3987
   92MOL   H23024072   7.343   2.427   0.291 -0.8494 -0.6948 -1.7843
   92MOL   H23124073   7.227   2.322   0.601  2.9041 -1.2803  1.6057
   92MOL   H23224074   7.257   2.467   0.506  1.0687  0.3649 -0.7251
   92MOL   H23324075   7.390   2.412   0.580  0.9677  0.5739  1.2266
   92MOL   H23424076   7.352   2.066   0.391 -1.9121 -0.2216 -0.0153
   92MOL   H23524077   7.266   2.100   0.537 -1.1604  0.7242 -0.7214
   92MOL   C23624078   7.481   2.128   0.549 -0.7227 -0.4431  0.7660
   92MOL   C23724079   7.518   1.988   0.604 -0.2569  0.4682 -0.8372
   92MOL   C23824080   7.627   1.955   0.676  0.7295  1.0596 -0.1400
   92MOL   C23924081   7.643   1.825   0.752 -0.1230 -1.0712  0.4352
   92MOL   C24024082   7.744   2.053   0.696 -0.6504 -0.2564 -0.2894
   92MOL   H24124083   7.483   2.184   0.642  0.1208 -2.2830  1.8793
   92MOL   H24224084   7.565   2.174   0.496 -0.6459 -1.0178  0.3887
   92MOL   H24324085   7.440   1.914   0.592  0.8775 -0.9293  0.0496
   92MOL   H24424086   7.642   1.842   0.860 -2.4650 -2.6578  0.7097
   92MOL   H24524087   7.731   1.772   0.716 -0.2985 -1.1409  0.1040
   92MOL   H24624088   7.552   1.764   0.749 -1.8866  1.4947 -0.1885
   92MOL   H24724089   7.750   2.131   0.620  0.1874 -1.7892 -1.8472
   92MOL   H24824090   7.837   1.997   0.688  0.4716  1.6415 -0.7440
   92MOL   C24924091   7.738   2.125   0.834 -0.0595 -0.3367  0.6588
   92MOL   C25024092   7.862   2.210   0.843  0.0840 -0.1548  0.2912
   92MOL   C25124093   0.094   2.173   0.908  0.0837 -0.5461  0.1696
   92MOL   C25224094   0.214   2.263   0.911  0.1768 -0.2523  0.0413
   92MOL   C25324095   0.117   2.054   0.995 -0.9754  0.3276  0.1759
   92MOL   H25424096   7.725   2.052   0.914 -0.8490  0.0279  0.8657
   92MOL   H25524097   7.646   2.182   0.842  0.3662  0.8856 -2.3732
   92MOL   H25624098   7.864   2.300   0.783 -1.8125 -0.0636  0.3232
   92MOL   H25724099   0.202   2.354   0.852  1.3305 -1.0718 -1.5058
   92MOL   H25824100   0.311   2.224   0.878 -0.8498 -1.1386 -1.9990
   92MOL   H25924101   0.237   2.302   1.010  2.9337  1.2205 -1.1270
   92MOL   H26024102   0.035   1.984   0.978 -0.4716 -0.1869 -0.1911
   92MOL   H26124103   0.119   2.081   1.101  3.6825  0.5302  0.1541
   92MOL   H26224104   0.205   1.994   0.971 -1.5461 -0.6280  0.4459
   93MOL     C124105   4.188   2.134   0.918 -0.4009  0.6320  0.1958
   93MOL     C224106   4.325   2.107   0.870 -0.7864  0.0513  0.3433
   93MOL     C324107   4.368   2.001   0.801  0.7170 -0.3731 -0.1375
   93MOL     C424108   4.505   1.992   0.747  0.4084  0.1430 -0.3243
   93MOL     C524109   4.286   1.875   0.781 -0.2540  0.2607 -0.3821
   93MOL     H624110   4.138   2.186   0.836 -1.8188  0.3145  0.8552
   93MOL     H724111   4.133   2.042   0.937  0.2034  0.0814 -0.6297
   93MOL     H824112   4.397   2.188   0.877 -0.3322 -0.1509 -1.6893
   93MOL     H924113   4.553   2.090   0.744 -0.5155  0.5792 -1.6802
   93MOL    H1024114   4.519   1.958   0.644 -0.4569 -2.3806  0.3662
   93MOL    H1124115   4.557   1.922   0.812 -1.4335 -0.1063  0.9180
   93MOL    H1224116   4.295   1.842   0.678 -2.3854  0.1248 -0.5612
   93MOL    H1324117   4.180   1.901   0.782 -0.2738  0.1921 -0.5883
   93MOL    H1424118   4.194   2.194   1.008 -2.1494 -0.5978  1.1619
   93MOL    C1524119   4.312   1.761   0.883  0.7910 -0.3130 -0.3432
   93MOL    C1624120   4.225   1.643   0.859 -0.0040 -0.1977 -0.6400
   93MOL    C1724121   4.131   1.601   0.950  0.0314 -0.6287 -0.8573
   93MOL    C1824122   4.059   1.472   0.935  0.1213 -0.1071 -0.3157
   93MOL    C1924123   4.096   1.688   1.069  0.7831 -0.5006 -0.5860
   93MOL    H2024124   4.307   1.811   0.979  0.4839 -0.5455 -0.2379
   93MOL    H2124125   4.413   1.721   0.871  0.5036 -1.6142  1.4925
   93MOL    H2224126   4.257   1.580   0.777  1.8098 -0.3660  0.1687
   93MOL    H2324127   4.060   1.402   1.019  0.7601 -0.2296 -0.4227
   93MOL    H2424128   4.101   1.410   0.856 -0.2278 -2.2728  1.1300
   93MOL    H2524129   3.955   1.484   0.905  0.4394 -0.2963 -1.5287
   93MOL    H2624130   3.994   1.669   1.102  1.7361  0.4413  3.1194
   93MOL    H2724131   4.102   1.793   1.040  0.4972 -0.6990 -1.3877
   93MOL    C2824132   4.193   1.658   1.186  0.5302 -0.1068  0.1334
   93MOL    C2924133   4.211   1.777   1.277 -0.3672  0.0711  0.5963
   93MOL    C3024134   4.229   1.766   1.408  0.8154 -0.1717 -0.4663
   93MOL    C3124135   4.257   1.885   1.504 -0.0540  0.4293  0.2850
   93MOL    C3224136   4.222   1.635   1.481  0.5112 -0.5980 -0.6176
   93MOL    H3324137   4.294   1.649   1.145  0.0852  0.3477 -1.0886
   93MOL    H3424138   4.176   1.563   1.236 -0.5346  0.2166  0.3852
   93MOL    H3524139   4.229   1.869   1.224 -2.2526  0.7213  1.0337
   93MOL    H3624140   4.198   1.884   1.596  0.3018  0.7436  0.5178
   93MOL    H3724141   4.247   1.979   1.450  2.6462 -0.0918 -1.2277
   93MOL    H3824142   4.361   1.876   1.536  0.6347 -0.9301 -2.2159
   93MOL    H3924143   4.297   1.652   1.558 -0.0694  3.3376 -0.8206
   93MOL    H4024144   4.249   1.548   1.421  2.4661  0.2184 -0.9818
   93MOL    C4124145   4.087   1.617   1.536  0.5023  0.0837  0.1815
   93MOL    C4224146   4.090   1.519   1.651 -0.8798 -0.3929  0.2533
   93MOL    C4324147   4.063   1.387   1.647 -0.4251  0.4028 -0.0714
   93MOL    C4424148   4.081   1.302   1.767  0.2437  0.3675  0.0927
   93MOL    C4524149   4.049   1.314   1.513 -0.3594 -0.5262 -0.2332
   93MOL    H4624150   4.026   1.585   1.452  2.3572 -0.0571 -1.1320
   93MOL    H4724151   4.034   1.707   1.566  1.3243  0.0323  1.8614
   93MOL    H4824152   4.105   1.567   1.746 -1.4347 -0.4606  0.3805
   93MOL    H4924153   4.061   1.361   1.857  0.7212  0.9451 -0.1796
   93MOL    H5024154   4.182   1.264   1.760 -0.7817 -2.4593 -0.0220
   93MOL    H5124155   4.011   1.218   1.761  0.5088 -0.0528  2.4569
   93MOL    H5224156   4.037   1.385   1.432  1.3569 -1.7273 -1.6062
   93MOL    H5324157   3.957   1.255   1.512 -0.1542 -0.8546  0.1955
   93MOL    C5424158   4.160   1.217   1.491  0.1724  0.3669 -0.3622
   93MOL    C5524159   4.298   1.271   1.457  0.2078 -0.3144  0.4634
   93MOL    C5624160   4.347   1.292   1.331  0.1142 -0.3685 -0.4123
   93MOL    C5724161   4.489   1.347   1.312  0.2575  0.3376  0.1720
   93MOL    C5824162   4.257   1.272   1.210 -1.0139  0.1576  0.4549
   93MOL    H5924163   4.132   1.153   1.407  2.9881  0.6041 -1.5485
   93MOL    H6024164   4.173   1.147   1.574 -5.4846 -0.8385 -0.3240
   93MOL    H6124165   4.360   1.304   1.539  0.8248  0.3399 -0.2645
   93MOL    H6224166   4.562   1.271   1.284  1.2497  0.4871  2.3113
   93MOL    H6324167   4.518   1.405   1.399 -3.0984 -0.5191  1.9181
   93MOL    H6424168   4.486   1.419   1.230 -1.9957 -0.3464 -0.3926
   93MOL    H6524169   4.283   1.343   1.132  0.9066 -2.4559 -1.3663
   93MOL    H6624170   4.154   1.301   1.229 -0.7568  2.4228 -1.3791
   93MOL    C6724171   4.273   1.128   1.150 -0.5477  0.1180  0.6206
   93MOL    C6824172   4.202   1.117   1.021 -0.4742 -0.9086  0.7282
   93MOL    C6924173   4.066   1.096   1.007 -0.2225 -0.2549  0.0184
   93MOL    C7024174   4.007   1.092   0.864  0.0208  0.2999  0.3770
   93MOL    C7124175   3.971   1.093   1.126 -0.0648  0.4034  0.3555
   93MOL    H7224176   4.234   1.053   1.220  1.2162 -0.9523  0.4823
   93MOL    H7324177   4.378   1.100   1.140 -0.3883  0.3873  1.4963
   93MOL    H7424178   4.263   1.140   0.935  0.0810 -0.2826  1.2790
   93MOL    H7524179   3.939   1.176   0.849  2.5066  2.4884  0.9443
   93MOL    H7624180   3.932   1.018   0.837 -0.3043  0.8443 -0.2171
   93MOL    H7724181   4.086   1.102   0.789  2.1794  0.0535  2.5459
   93MOL    H7824182   4.008   1.077   1.227  2.6853  0.4604 -0.5947
   93MOL    H7924183   3.933   0.995   1.100 -1.4176  0.8542  0.5868
   93MOL    C8024184   3.864   1.202   1.133 -0.2095  0.3698 -0.1363
   93MOL    C8124185   3.764   1.173   1.240 -0.3191 -0.8202 -0.2781
   93MOL    C8224186   3.650   1.107   1.220  0.3210 -0.5584 -0.4542
   93MOL    C8324187   3.626   1.029   1.092  0.2559 -0.5174 -0.4037
   93MOL    C8424188   3.551   1.086   1.333 -0.0574  0.5877 -0.1224
   93MOL    H8524189   3.800   1.210   1.045  0.7198 -2.1666 -1.0897
   93MOL    H8624190   3.909   1.298   1.157 -1.6933  1.0018  0.2194
   93MOL    H8724191   3.798   1.218   1.332  1.5966 -1.0397 -0.8425
   93MOL    H8824192   3.557   0.945   1.103  0.1320 -0.5847 -1.5527
   93MOL    H8924193   3.721   1.000   1.049  0.5362 -1.6690  0.9472
   93MOL    H9024194   3.585   1.098   1.018 -2.5861  0.0690  1.6465
   93MOL    H9124195   3.608   1.102   1.424  2.9726 -3.4991 -1.1314
   93MOL    H9224196   3.528   0.980   1.343 -1.8685  1.0976  1.2598
   93MOL    C9324197   3.432   1.171   1.335 -0.1869  0.0658 -0.1220
   93MOL    C9424198   3.353   1.154   1.461  0.6373  0.2472 -0.2273
   93MOL    C9524199   3.246   1.073   1.479 -0.7927 -0.3892  0.2617
   93MOL    C9624200   3.151   1.084   1.600 -1.2524  0.3838  0.0980
   93MOL    C9724201   3.212   0.959   1.387  0.0836  0.1368  0.0901
   93MOL    H9824202   3.376   1.174   1.241  0.7235 -0.9636 -0.7128
   93MOL    H9924203   3.470   1.272   1.321 -1.3317  0.4710 -0.3380
   93MOL   H10024204   3.357   1.240   1.527 -0.1924  0.7281 -0.8024
   93MOL   H10124205   3.171   1.166   1.668 -0.3671  0.2161  0.0439
   93MOL   H10224206   3.058   1.090   1.544 -1.2440 -2.3056 -0.2454
   93MOL   H10324207   3.144   0.991   1.655  0.3017  0.5790  0.6359
   93MOL   H10424208   3.240   0.990   1.287  0.6995  0.4464  0.3594
   93MOL   H10524209   3.105   0.940   1.396 -0.5896  3.7545  0.3241
   93MOL   C10624210   3.295   0.839   1.430 -0.0689 -0.2692 -0.2300
   93MOL   C10724211   3.291   0.725   1.339  0.0361  0.1390 -0.3259
   93MOL   C10824212   3.399   0.651   1.309  0.0539  0.3838  0.3206
   93MOL   C10924213   3.537   0.672   1.378 -0.1444  0.1600 -0.6785
   93MOL   C11024214   3.403   0.554   1.191  0.0672  0.6746  0.6201
   93MOL   H11124215   3.261   0.807   1.528 -0.7623  1.2326  0.0277
   93MOL   H11224216   3.393   0.873   1.462  0.5907 -1.8643 -0.4781
   93MOL   H11324217   3.201   0.705   1.282 -1.2166  1.6681  1.0950
   93MOL   H11424218   3.589   0.751   1.325 -1.5842  3.8654  3.1111
   93MOL   H11524219   3.530   0.700   1.483 -3.2333  1.0935 -1.0971
   93MOL   H11624220   3.603   0.585   1.369 -0.0041  0.3298 -1.3001
   93MOL   H11724221   3.303   0.515   1.172  1.3347 -2.4451  0.1133
   93MOL   H11824222   3.458   0.464   1.216 -2.4012 -1.0624  0.0452
   93MOL   C11924223   3.460   0.611   1.064 -0.1750 -0.1996 -0.9139
   93MOL   C12024224   3.419   0.546   0.939  0.0859 -0.3337  0.4734
   93MOL   C12124225   3.333   0.592   0.849  0.1288 -0.0255  0.4535
   93MOL   C12224226   3.287   0.508   0.738  0.1589  0.3495 -0.2433
   93MOL   C12324227   3.268   0.732   0.845 -0.1543  0.3449  0.1841
   93MOL   H12424228   3.568   0.599   1.074 -0.3925 -1.7147 -0.2140
   93MOL   H12524229   3.447   0.719   1.051 -2.1391 -0.1838  0.8786
   93MOL   H12624230   3.465   0.448   0.935  0.7406 -0.0482  0.9158
   93MOL   H12724231   3.333   0.558   0.653  0.0031  0.7956 -0.0673
   93MOL   H12824232   3.183   0.503   0.706 -0.3974  2.7616  1.0611
   93MOL   H12924233   3.322   0.405   0.746  1.5948  0.6137 -2.7352
   93MOL   H13024234   3.270   0.779   0.746 -0.9689  1.6158  0.7627
   93MOL   H13124235   3.324   0.807   0.902  0.8974 -0.8368  0.7358
   93MOL   C13224236   3.118   0.731   0.884 -0.3148  0.5104  0.5055
   93MOL   C13324237   3.041   0.848   0.843  0.0964  0.3137 -0.4986
   93MOL   C13424238   2.986   0.938   0.927 -0.0510  0.0892 -0.3188
   93MOL   C13524239   2.908   1.051   0.879  0.0978 -0.3321  0.1271
   93MOL   C13624240   2.995   0.918   1.079 -0.5724 -0.8969  0.0109
   93MOL   H13724241   3.115   0.716   0.992 -1.3071 -0.8974  0.3002
   93MOL   H13824242   3.067   0.646   0.839 -0.4909  0.4485  0.8196
   93MOL   H13924243   3.034   0.863   0.736  2.8466 -3.9094 -1.3917
   93MOL   H14024244   2.898   1.049   0.770  1.0717  1.2236 -0.0038
   93MOL   H14124245   2.952   1.143   0.918  1.0624 -1.0483  0.7447
   93MOL   H14224246   2.809   1.037   0.921 -0.4187 -2.4272 -1.6736
   93MOL   H14324247   3.006   1.014   1.130  2.4104 -0.1826 -1.8671
   93MOL   H14424248   3.081   0.864   1.118 -1.3433 -1.0753  1.5235
   93MOL   C14524249   2.872   0.854   1.143  0.6847 -0.0121 -0.1161
   93MOL   C14624250   2.843   0.891   1.288 -0.3771  0.6480 -0.2154
   93MOL   C14724251   2.843   0.810   1.395 -0.5960 -0.6405 -0.2509
   93MOL   C14824252   2.808   0.862   1.528 -0.0924 -0.0701 -0.1761
   93MOL   C14924253   2.876   0.659   1.393  0.2579 -0.3277  0.8009
   93MOL   H15024254   2.884   0.747   1.124 -1.3814  0.0729 -2.1219
   93MOL   H15124255   2.786   0.882   1.083  0.4797  0.3132  0.3273
   93MOL   H15224256   2.831   0.997   1.304  2.9451  0.9429  0.7861
   93MOL   H15324257   2.742   0.947   1.517  0.6161  0.3710 -1.1313
   93MOL   H15424258   2.902   0.908   1.559  2.1421 -4.7706  0.4812
   93MOL   H15524259   2.770   0.785   1.596 -2.2611 -0.0608 -1.3343
   93MOL   H15624260   2.927   0.637   1.487  0.2251 -1.5238  0.5449
   93MOL   H15724261   2.954   0.637   1.320 -1.2527 -1.5299 -0.4908
   93MOL   C15824262   2.755   0.575   1.375  0.4323 -0.0829  0.0110
   93MOL   C15924263   2.752   0.424   1.383  0.1209  0.6737 -0.8307
   93MOL   C16024264   2.708   0.335   1.295  0.0893  0.0885  0.0277
   93MOL   C16124265   2.640   0.369   1.163 -0.3959 -0.1657  0.0018
   93MOL   C16224266   2.708   0.192   1.332 -0.8612  0.0632 -0.0147
   93MOL   H16324267   2.719   0.607   1.277  0.5690  1.5349  0.4751
   93MOL   H16424268   2.686   0.611   1.452  0.2622  0.5038 -0.4120
   93MOL   H16524269   2.807   0.397   1.472 -0.9656  0.5875 -0.1829
   93MOL   H16624270   2.547   0.312   1.151 -1.3550  1.3266  0.1538
   93MOL   H16724271   2.712   0.343   1.085  1.7529  1.0853  1.5245
   93MOL   H16824272   2.627   0.477   1.154  0.8737 -0.0628 -0.6658
   93MOL   H16924273   2.604   0.171   1.358 -1.8504  1.4835 -2.6902
   93MOL   H17024274   2.765   0.176   1.423 -0.7989  2.0421  0.3098
   93MOL   C17124275   2.739   0.102   1.215  0.1918 -0.3118  0.0627
   93MOL   C17224276   2.747   7.836   1.255  1.1565  0.0313 -0.0852
   93MOL   C17324277   2.652   7.741   1.262 -0.2708 -0.6190  0.0599
   93MOL   C17424278   2.506   7.768   1.231 -0.7494  0.0782 -0.3268
   93MOL   C17524279   2.679   7.597   1.299  0.1715 -0.1729 -0.2596
   93MOL   H17624280   2.838   0.135   1.186 -0.5718  1.6757 -0.3653
   93MOL   H17724281   2.665   0.115   1.136  0.6127 -1.9546 -0.6012
   93MOL   H17824282   2.846   7.812   1.291  1.8058 -0.0616 -1.8668
   93MOL   H17924283   2.485   7.867   1.271 -2.4459 -0.0665 -0.8435
   93MOL   H18024284   2.441   7.696   1.281  1.3326 -0.7238  1.3389
   93MOL   H18124285   2.492   7.762   1.123 -0.4779 -0.1692 -0.3508
   93MOL   H18224286   2.783   7.565   1.292  0.8771  2.4221 -2.1431
   93MOL   H18324287   2.624   7.535   1.229  1.7213 -1.2267 -0.5664
   93MOL   C18424288   2.640   7.563   1.444  0.6140  0.3438  0.5734
   93MOL   C18524289   2.713   7.651   1.548  0.0416  0.0949  0.8505
   93MOL   C18624290   2.756   7.609   1.667  0.0629  0.3673 -0.0969
   93MOL   C18724291   2.801   7.719   1.764 -0.3846  0.0949  0.3814
   93MOL   C18824292   2.758   7.466   1.722  0.1090 -0.4742  0.6734
   93MOL   H18924293   2.667   7.458   1.457 -3.5928 -0.8089  0.6493
   93MOL   H19024294   2.531   7.568   1.451  0.3462 -2.6069 -0.5825
   93MOL   H19124295   2.726   7.756   1.524  0.3642 -0.0518  0.3949
   93MOL   H19224296   2.725   7.740   1.839 -1.6829 -0.1762 -0.8240
   93MOL   H19324297   2.823   7.808   1.704  0.3887 -0.2003  0.2258
   93MOL   H19424298   2.887   7.680   1.818  1.3495  0.4393 -2.0386
   93MOL   H19524299   2.662   7.424   1.692  0.2907 -0.1361 -0.3914
   93MOL   H19624300   2.749   7.472   1.831 -0.5445 -0.7262  0.6347
   93MOL   C19724301   2.881   7.382   1.681 -0.6076 -0.1068 -0.3852
   93MOL   C19824302   2.867   7.241   1.731  0.1511 -0.4537  0.0912
   93MOL   C19924303   2.958   7.148   1.717 -0.2107 -0.0357  0.9341
   93MOL   C20024304   2.940   7.000   1.748  0.2171  0.6126  0.4693
   93MOL   C20124305   3.083   7.172   1.634  0.2747  0.3475  0.0034
   93MOL   H20224306   2.969   7.434   1.720  0.0756 -0.4077 -1.5153
   93MOL   H20324307   2.881   7.382   1.572  2.0673 -1.5011 -0.4268
   93MOL   H20424308   2.768   7.221   1.768 -1.4649  0.0870 -3.6686
   93MOL   H20524309   3.018   6.962   1.815 -0.0918  0.8447  0.9685
   93MOL   H20624310   2.944   6.928   1.667  2.3928  0.3934  0.7402
   93MOL   H20724311   2.845   6.994   1.801  0.1694  0.6476  0.3865
   93MOL   H20824312   3.086   7.269   1.583  1.2638  1.2117  1.6558
   93MOL   H20924313   3.084   7.097   1.555 -0.9117 -0.6554  0.9110
   93MOL   C21024314   3.209   7.149   1.713  0.2089 -0.2984 -0.6412
   93MOL   C21124315   3.335   7.177   1.640  0.1307 -0.1385 -0.0999
   93MOL   C21224316   3.454   7.137   1.689  0.2105  0.3352  0.7795
   93MOL   C21324317   3.580   7.161   1.612 -0.4176  0.8113 -0.1805
   93MOL   C21424318   3.472   7.068   1.822  0.5795  0.4529  0.1930
   93MOL   H21524319   3.209   7.043   1.736  0.9786  0.2358  1.9464
   93MOL   H21624320   3.209   7.200   1.809 -4.3164 -2.4281  0.6388
   93MOL   H21724321   3.333   7.241   1.553 -1.0679  1.0926  0.8028
   93MOL   H21824322   3.562   7.239   1.537 -3.0200  0.6283  0.1882
   93MOL   H21924323   3.601   7.074   1.549  1.9417  0.7321  0.6721
   93MOL   H22024324   3.677   7.173   1.659  0.3798  1.0595 -1.8453
   93MOL   H22124325   3.527   6.974   1.813  0.7555  0.6490 -0.8635
   93MOL   H22224326   3.378   7.030   1.862  1.2522 -1.6242 -0.1608
   93MOL   C22324327   3.549   7.170   1.913 -0.0231 -0.2688  0.8528
   93MOL   C22424328   3.514   7.155   2.060 -0.4717 -0.5039 -0.4697
   93MOL   C22524329   3.490   7.259   2.145  0.1410 -0.1212  0.2960
   93MOL   C22624330   3.461   7.232   2.294 -0.1086  0.7379  0.0969
   93MOL   C22724331   3.485   7.406   2.107  0.4493 -0.3858 -0.5667
   93MOL   H22824332   3.532   7.267   1.865 -2.3651 -1.0315  0.0657
   93MOL   H22924333   3.656   7.158   1.896 -0.1101  1.6228 -1.2854
   93MOL   H23024334   3.499   7.059   2.106  1.7486 -0.4984  0.3208
   93MOL   H23124335   3.415   7.133   2.300 -2.1504  1.7486  1.6163
   93MOL   H23224336   3.386   7.305   2.327  1.4793  1.5647  1.9672
   93MOL   H23324337   3.553   7.239   2.351  0.0105 -1.7782  0.2705
   93MOL   H23424338   3.573   7.442   2.053  0.5764  0.6880  0.3447
   93MOL   H23524339   3.496   7.468   2.196 -0.5184 -2.6457  1.1812
   93MOL   C23624340   3.353   7.454   2.046  0.9030  0.4339 -0.3964
   93MOL   C23724341   3.353   7.602   2.019  0.0217 -0.0722 -0.8031
   93MOL   C23824342   3.329   7.665   1.904 -0.3733 -0.2949  0.1688
   93MOL   C23924343   3.365   7.806   1.879  0.3634 -0.5090 -0.3030
   93MOL   C24024344   3.259   7.592   1.784 -0.0278 -0.1967 -0.6798
   93MOL   H24124345   3.263   7.446   2.107  2.1757  1.0562  1.5925
   93MOL   H24224346   3.337   7.391   1.958 -2.7296 -0.6097  0.9231
   93MOL   H24324347   3.397   7.660   2.099  1.5820 -1.8926 -0.2893
   93MOL   H24424348   3.399   7.861   1.967  1.5036  3.1781 -2.9431
   93MOL   H24524349   3.284   7.860   1.832  0.2446  0.0466  0.5223
   93MOL   H24624350   3.443   7.816   1.803  0.3772 -1.2602 -0.3945
   93MOL   H24724351   3.166   7.638   1.749 -0.6393  1.2029  2.5005
   93MOL   H24824352   3.217   7.500   1.824  1.5425 -0.9426 -0.7154
   93MOL   C24924353   3.356   7.546   1.670  0.6923 -0.3743 -1.3130
   93MOL   C25024354   3.269   7.521   1.549  0.2687  0.0849 -0.3753
   93MOL   C25124355   3.252   7.589   1.436 -0.1135 -0.3892  0.1635
   93MOL   C25224356   3.148   7.540   1.330  0.3032 -0.2159 -0.3134
   93MOL   C25324357   3.332   7.710   1.389  1.3194 -0.5541  0.0045
   93MOL   H25424358   3.417   7.459   1.694  1.1481  0.3017  0.0629
   93MOL   H25524359   3.425   7.628   1.647 -0.6371  2.1410  3.0569
   93MOL   H25624360   3.207   7.433   1.560 -0.5777  0.1973 -3.6729
   93MOL   H25724361   3.114   7.444   1.368 -1.4334  0.6179  0.2678
   93MOL   H25824362   3.200   7.535   1.234 -0.0008 -0.8532 -0.4493
   93MOL   H25924363   3.059   7.601   1.322  0.8892  0.5446 -1.2575
   93MOL   H26024364   3.253   7.775   1.353  1.3383 -0.3102  0.3900
   93MOL   H26124365   3.404   7.675   1.316  0.4758  0.9135 -1.5482
   93MOL   H26224366   3.378   7.771   1.467  1.5644  0.9819 -1.3311
   94MOL     C124367   4.559   5.568   4.173 -0.2580  0.8088  0.1599
   94MOL     C224368   4.630   5.492   4.280 -0.3256  0.2790  0.3449
   94MOL     C324369   4.578   5.397   4.356 -0.5578  0.8326 -0.3975
   94MOL     C424370   4.661   5.336   4.471  0.1418 -0.1842  0.4940
   94MOL     C524371   4.433   5.338   4.339 -0.8125  0.3621  0.1022
   94MOL     H624372   4.495   5.500   4.117  1.2773 -0.2941 -0.2999
   94MOL     H724373   4.495   5.640   4.224 -1.8344  0.8972 -1.8982
   94MOL     H824374   4.729   5.531   4.295 -0.7134  0.8979  1.3666
   94MOL     H924375   4.766   5.366   4.474  0.0905 -0.0829  1.6522
   94MOL    H1024376   4.663   5.229   4.486  0.0566 -0.0827  1.2640
   94MOL    H1124377   4.621   5.381   4.562  1.4519  0.3158  0.8370
   94MOL    H1224378   4.425   5.229   4.342 -2.3395  0.4435 -0.3614
   94MOL    H1324379   4.403   5.335   4.235 -0.7815  0.1390  0.0986
   94MOL    H1424380   4.630   5.622   4.110 -0.2390  0.8883  0.2501
   94MOL    C1524381   4.334   5.401   4.432 -0.1373 -0.2541  0.5062
   94MOL    C1624382   4.317   5.544   4.412  0.5250 -0.2591 -0.4258
   94MOL    C1724383   4.297   5.637   4.512 -0.2444  0.2385  0.1402
   94MOL    C1824384   4.263   5.787   4.476 -0.3016  0.3958 -0.5998
   94MOL    C1924385   4.278   5.602   4.660  0.0908  0.0499 -0.2453
   94MOL    H2024386   4.382   5.385   4.529  0.2048 -2.7908 -0.0374
   94MOL    H2124387   4.239   5.351   4.412 -0.1710 -0.2653  0.6999
   94MOL    H2224388   4.317   5.579   4.310  1.9157 -1.7470 -0.9678
   94MOL    H2324389   4.157   5.810   4.464 -1.2353 -1.1069  3.7078
   94MOL    H2424390   4.317   5.810   4.384 -0.7961 -0.6902 -1.1759
   94MOL    H2524391   4.310   5.860   4.542 -1.5126 -1.2802  2.2058
   94MOL    H2624392   4.362   5.651   4.708 -1.1557  0.3998  1.6087
   94MOL    H2724393   4.281   5.494   4.675  1.6386  0.0914 -0.2202
   94MOL    C2824394   4.146   5.649   4.733 -0.5169  0.0424  0.2082
   94MOL    C2924395   4.134   5.577   4.868  0.9581 -0.1025  0.5251
   94MOL    C3024396   4.015   5.536   4.923  0.4304 -0.1675  0.3553
   94MOL    C3124397   4.014   5.462   5.058 -0.1012 -0.0253  0.0421
   94MOL    C3224398   3.883   5.573   4.864 -0.5748 -0.4394 -0.0295
   94MOL    H3324399   4.058   5.619   4.675 -1.6032  0.8515  1.4083
   94MOL    H3424400   4.146   5.758   4.729  2.0561  0.0451 -0.5712
   94MOL    H3524401   4.223   5.551   4.922  1.0751 -3.2549 -1.0801
   94MOL    H3624402   3.993   5.358   5.033  1.5901 -0.2682 -0.3783
   94MOL    H3724403   3.941   5.499   5.131  0.0278  0.0129  0.1522
   94MOL    H3824404   4.109   5.480   5.109  0.3425 -0.3052 -0.6952
   94MOL    H3924405   3.879   5.660   4.799  1.4072 -0.2161  0.1187
   94MOL    H4024406   3.818   5.612   4.943 -1.4958  0.6237 -1.2801
   94MOL    C4124407   3.819   5.455   4.797  0.2548  0.5200  0.0690
   94MOL    C4224408   3.683   5.485   4.736  1.0615 -0.3879 -0.0627
   94MOL    C4324409   3.574   5.399   4.736  0.5021  0.2480 -0.0224
   94MOL    C4424410   3.434   5.447   4.691  0.5820 -0.4563 -0.2907
   94MOL    C4524411   3.564   5.255   4.790 -0.3758  0.2190  0.2167
   94MOL    H4624412   3.817   5.378   4.874 -0.9248  2.2817  1.8388
   94MOL    H4724413   3.884   5.419   4.717 -0.6833  0.3650 -0.6323
   94MOL    H4824414   3.668   5.587   4.706 -0.9506 -0.7122 -0.1996
   94MOL    H4924415   3.438   5.546   4.645  0.2244 -0.8006 -1.0633
   94MOL    H5024416   3.368   5.449   4.778  0.5050 -1.1295 -0.3328
   94MOL    H5124417   3.380   5.380   4.625  0.4346  0.9785 -1.6681
   94MOL    H5224418   3.488   5.245   4.867 -1.8102 -1.6556 -1.3965
   94MOL    H5324419   3.651   5.232   4.852 -0.3402 -0.8410 -0.2321
   94MOL    C5424420   3.539   5.159   4.680  0.1168  1.0718  0.1954
   94MOL    C5524421   3.505   5.022   4.731 -0.0410 -0.1681  0.3073
   94MOL    C5624422   3.568   4.908   4.688  0.4398 -0.3617 -0.7054
   94MOL    C5724423   3.520   4.772   4.740 -0.6169  0.0494 -0.2863
   94MOL    C5824424   3.687   4.906   4.598  0.5871 -0.2743 -0.5986
   94MOL    H5924425   3.630   5.158   4.621  1.3673 -2.8466  2.0049
   94MOL    H6024426   3.462   5.194   4.612 -1.1153  0.6128  1.3132
   94MOL    H6124427   3.427   5.007   4.804 -1.5782  0.3113 -1.2119
   94MOL    H6224428   3.433   4.774   4.806 -0.4754 -0.6237 -0.0758
   94MOL    H6324429   3.605   4.719   4.785 -0.6605  1.3842  1.4243
   94MOL    H6424430   3.500   4.711   4.652 -0.2052  2.1442 -1.8694
   94MOL    H6524431   3.740   4.815   4.624 -0.4085 -0.0436  2.4226
   94MOL    H6624432   3.754   4.988   4.626  0.5793 -0.4265 -0.1192
   94MOL    C6724433   3.648   4.905   4.453  0.5412  0.3380 -0.0656
   94MOL    C6824434   3.768   4.942   4.370  0.5776 -0.2416 -0.4444
   94MOL    C6924435   3.796   5.059   4.316 -0.6690 -0.8325 -0.4009
   94MOL    C7024436   3.934   5.078   4.250  0.8501  0.4880  0.0023
   94MOL    C7124437   3.703   5.185   4.307  0.0537  0.2178 -0.0988
   94MOL    H7224438   3.571   4.980   4.435  0.3424 -0.5265 -3.0176
   94MOL    H7324439   3.598   4.812   4.429 -0.2600  1.3111 -2.2868
   94MOL    H7424440   3.841   4.863   4.379  1.7154  0.8030 -0.2369
   94MOL    H7524441   4.007   4.996   4.253 -1.7053 -2.0183 -2.8222
   94MOL    H7624442   3.981   5.166   4.293  3.3355 -0.4961 -0.5768
   94MOL    H7724443   3.914   5.107   4.147  1.2729  0.2461 -0.1534
   94MOL    H7824444   3.598   5.161   4.325  0.4123 -2.5140 -1.3884
   94MOL    H7924445   3.711   5.216   4.203 -1.6320  2.6503  0.4643
   94MOL    C8024446   3.752   5.301   4.391 -0.3039 -0.2251 -0.3859
   94MOL    C8124447   3.662   5.423   4.386  0.6701  0.4249 -0.1771
   94MOL    C8224448   3.699   5.552   4.390  0.2571 -0.2303  0.0339
   94MOL    C8324449   3.837   5.597   4.425  0.4152 -0.0621 -0.3877
   94MOL    C8424450   3.603   5.672   4.380  0.0156  0.1268  0.0850
   94MOL    H8524451   3.852   5.334   4.362 -0.1754 -0.6491 -0.4259
   94MOL    H8624452   3.756   5.266   4.494 -0.7056  0.0198 -0.2853
   94MOL    H8724453   3.562   5.396   4.355  0.8183 -0.8002  0.3797
   94MOL    H8824454   3.899   5.591   4.336  0.7281  1.0130 -0.2599
   94MOL    H8924455   3.875   5.519   4.491  2.6572  0.1455 -1.3917
   94MOL    H9024456   3.833   5.699   4.464 -1.7540 -1.2152  2.6897
   94MOL    H9124457   3.644   5.749   4.315 -1.1360  0.8152  0.1614
   94MOL    H9224458   3.611   5.722   4.477 -0.2180  0.5723 -0.1248
   94MOL    C9324459   3.455   5.654   4.345  0.0283  0.3294 -0.3100
   94MOL    C9424460   3.384   5.789   4.336  0.2458  0.2385  0.4245
   94MOL    C9524461   3.283   5.838   4.404 -0.0760 -0.0875 -0.3717
   94MOL    C9624462   3.232   5.982   4.380 -0.1000  0.3638 -0.0274
   94MOL    C9724463   3.216   5.761   4.520 -0.7767 -0.1693  0.3019
   94MOL    H9824464   3.412   5.572   4.403  1.2119  0.5227  0.8752
   94MOL    H9924465   3.451   5.632   4.239  0.6086  0.5420 -0.3732
   94MOL   H10024466   3.435   5.859   4.271  1.1253 -0.0556  0.7797
   94MOL   H10124467   3.206   6.025   4.477  0.0351  2.4029 -0.8706
   94MOL   H10224468   3.306   6.046   4.333  0.4200  0.1541  0.5054
   94MOL   H10324469   3.142   5.980   4.318 -1.1959  0.5472  1.5357
   94MOL   H10424470   3.238   5.809   4.616 -0.7944 -1.0042  0.7336
   94MOL   H10524471   3.263   5.663   4.524 -2.4189 -1.0468 -1.4618
   94MOL   C10624472   3.064   5.735   4.490  0.2179  0.4182 -0.0178
   94MOL   C10724473   3.022   5.613   4.571 -0.0909 -0.0764 -0.1939
   94MOL   C10824474   2.992   5.492   4.529  0.2724 -0.3548  0.0114
   94MOL   C10924475   2.976   5.467   4.379 -0.0653 -0.0645 -0.2523
   94MOL   C11024476   2.939   5.379   4.619  0.0796 -0.0344  0.1333
   94MOL   H11124477   3.048   5.719   4.383 -1.3826 -1.4401  0.4818
   94MOL   H11224478   3.007   5.823   4.521 -1.5910 -0.2184 -1.4666
   94MOL   H11324479   3.022   5.629   4.678  1.2392  0.2924 -0.2378
   94MOL   H11424480   3.020   5.542   4.313  1.8534 -1.8543 -1.0687
   94MOL   H11524481   3.031   5.378   4.348  2.1468  0.9217  0.7300
   94MOL   H11624482   2.870   5.463   4.354  0.4400 -1.6546 -2.3400
   94MOL   H11724483   2.943   5.402   4.725 -1.7571  2.2219 -0.2512
   94MOL   H11824484   3.016   5.303   4.601  2.2976  2.4193 -1.0495
   94MOL   C11924485   2.791   5.327   4.586 -0.0528  0.3468 -0.4607
   94MOL   C12024486   2.752   5.202   4.661 -0.3428 -0.2390  0.3007
   94MOL   C12124487   2.648   5.188   4.743 -0.5961 -0.1484 -0.7889
   94MOL   C12224488   2.641   5.072   4.839 -0.2240 -0.3450 -0.0370
   94MOL   C12324489   2.541   5.297   4.771 -0.0898 -0.1546  0.2984
   94MOL   H12424490   2.793   5.288   4.484  1.8992  0.9726 -0.6781
   94MOL   H12524491   2.710   5.400   4.588 -0.7145 -0.4001  2.0151
   94MOL   H12624492   2.815   5.116   4.642 -0.2093 -0.3379  1.1824
   94MOL   H12724493   2.693   5.096   4.931 -0.4637 -0.0804  0.0315
   94MOL   H12824494   2.686   4.989   4.784 -4.6629 -1.8224 -1.7277
   94MOL   H12924495   2.542   5.036   4.867  0.3594 -2.8775 -1.0655
   94MOL   H13024496   2.449   5.239   4.781  0.1497 -0.6818 -0.5616
   94MOL   H13124497   2.528   5.364   4.686 -0.5388 -1.6724 -0.8380
   94MOL   C13224498   2.570   5.383   4.895  0.1647 -0.0519 -0.3055
   94MOL   C13324499   2.492   5.511   4.892  0.1409  0.2973 -0.2944
   94MOL   C13424500   2.536   5.634   4.874 -0.4751 -0.5582 -0.2763
   94MOL   C13524501   2.448   5.758   4.876 -0.2929  0.0889 -0.9562
   94MOL   C13624502   2.682   5.658   4.854 -0.0808  0.6018  0.3313
   94MOL   H13724503   2.672   5.402   4.928 -1.3331  3.9550  2.3850
   94MOL   H13824504   2.530   5.328   4.980 -0.8964  1.3471  0.1108
   94MOL   H13924505   2.388   5.514   4.921  0.3705  4.1667  0.3773
   94MOL   H14024506   2.484   5.855   4.842  1.4497 -0.2066  0.0021
   94MOL   H14124507   2.419   5.768   4.981 -0.6908 -0.2118 -1.0355
   94MOL   H14224508   2.351   5.735   4.833  0.1248  0.0398 -1.8794
   94MOL   H14324509   2.699   5.706   4.757  0.5489  0.7416  0.5031
   94MOL   H14424510   2.735   5.568   4.823 -0.8543  1.2712 -3.1288
   94MOL   C14524511   2.758   5.731   4.973  0.1880  0.2023  0.6528
   94MOL   C14624512   2.909   5.709   4.963 -0.7627 -0.0692 -0.2352
   94MOL   C14724513   3.009   5.794   4.926  0.1115 -0.0570 -0.2314
   94MOL   C14824514   3.146   5.741   4.925  0.1292  0.2900 -0.5113
   94MOL   C14924515   2.986   5.944   4.902 -0.5319  0.1910  0.2849
   94MOL   H15024516   2.731   5.690   5.070 -1.9314 -1.2827 -0.4990
   94MOL   H15124517   2.738   5.838   4.980 -0.5110 -0.0287  2.3482
   94MOL   H15224518   2.931   5.604   4.969 -0.2075  0.0371 -0.4063
   94MOL   H15324519   3.158   5.639   4.964 -2.4423  0.5203  0.9588
   94MOL   H15424520   3.214   5.802   4.985  0.4768 -0.8300  0.2631
   94MOL   H15524521   3.181   5.747   4.822  0.7819  0.3712 -0.2896
   94MOL   H15624522   3.041   5.999   4.978  0.2945  0.4495 -0.4888
   94MOL   H15724523   2.886   5.986   4.908 -1.8960 -2.6518 -1.2967
   94MOL   C15824524   3.017   5.983   4.761  0.1283  0.0917  0.5251
   94MOL   C15924525   3.023   6.133   4.735 -0.1321  0.2577 -0.2596
   94MOL   C16024526   2.923   6.211   4.681 -0.8322 -0.2415  0.0117
   94MOL   C16124527   2.802   6.164   4.607  0.3393  0.1065 -1.0033
   94MOL   C16224528   2.931   6.361   4.689  0.4793 -0.3361  0.5443
   94MOL   H16324529   2.948   5.927   4.698 -0.5165  2.9739 -1.4389
   94MOL   H16424530   3.118   5.952   4.732  0.4328  0.8139  0.8053
   94MOL   H16524531   3.102   6.196   4.773 -0.6505  1.7398 -1.6007
   94MOL   H16624532   2.714   6.149   4.670  0.0947  0.8515 -1.1625
   94MOL   H16724533   2.830   6.065   4.571 -1.1912 -1.3055  1.5100
   94MOL   H16824534   2.766   6.226   4.525 -3.3705 -1.3312 -0.5805
   94MOL   H16924535   2.919   6.413   4.594  2.3439  1.4838  1.2517
   94MOL   H17024536   3.028   6.389   4.730  0.2556 -1.3821  1.8032
   94MOL   C17124537   2.826   6.426   4.780 -0.0857 -0.1223 -0.0167
   94MOL   C17224538   2.859   6.567   4.811  0.3482 -0.1105  0.4892
   94MOL   C17324539   2.824   6.676   4.738  0.7500  0.6458 -0.0011
   94MOL   C17424540   2.749   6.677   4.604  0.3824 -0.4125 -0.2905
   94MOL   C17524541   2.850   6.815   4.788  0.1295 -0.0728 -0.1199
   94MOL   H17624542   2.810   6.365   4.868 -0.0462 -0.6520 -0.3748
   94MOL   H17724543   2.730   6.419   4.728  0.1451 -0.6171 -0.3814
   94MOL   H17824544   2.911   6.575   4.906 -0.4976  0.4150  0.9208
   94MOL   H17924545   2.763   6.577   4.562 -2.5563 -1.5384  1.2900
   94MOL   H18024546   2.777   6.757   4.535  3.2753  0.5721  1.9393
   94MOL   H18124547   2.648   6.702   4.636  0.4420 -0.5831  0.0301
   94MOL   H18224548   2.881   6.810   4.893  0.9812  0.5208 -0.3398
   94MOL   H18324549   2.760   6.876   4.800 -0.4025 -0.6893 -1.0129
   94MOL   C18424550   2.968   6.888   4.722  0.1339 -1.3312 -0.1782
   94MOL   C18524551   2.985   7.035   4.764 -0.4048 -0.1253  0.2504
   94MOL   C18624552   2.983   7.146   4.683  0.4504  0.3015  0.1890
   94MOL   C18724553   3.012   7.285   4.736  0.4379 -0.0392 -1.1112
   94MOL   C18824554   2.954   7.133   4.532 -0.8786 -0.3184  0.4317
   94MOL   H18924555   2.973   6.877   4.614  0.2364 -2.2843 -0.0745
   94MOL   H19024556   3.060   6.836   4.749  1.3003  0.2838 -0.9216
   94MOL   H19124557   3.004   7.052   4.869 -1.6326 -0.1243  0.4859
   94MOL   H19224558   2.940   7.363   4.710 -0.2775 -0.0977  0.6385
   94MOL   H19324559   3.111   7.310   4.699  0.8794 -0.3377 -0.1448
   94MOL   H19424560   3.011   7.281   4.845  0.5492 -2.5472 -1.1874
   94MOL   H19524561   2.886   7.214   4.505 -1.5565 -1.2241 -0.6538
   94MOL   H19624562   2.894   7.044   4.515 -0.9625 -0.5291  1.7632
   94MOL   C19724563   3.083   7.120   4.447  0.3532 -0.0142 -0.3210
   94MOL   C19824564   3.049   7.126   4.300  0.1804  0.5038  0.7681
   94MOL   C19924565   3.056   7.031   4.203  0.5801  0.3266 -0.4034
   94MOL   C20024566   2.999   7.068   4.067 -0.2702 -0.1452  0.2507
   94MOL   C20124567   3.115   6.887   4.217  0.2133  0.2067 -0.4466
   94MOL   H20224568   3.138   7.029   4.470  0.2424 -0.0524 -0.2030
   94MOL   H20324569   3.158   7.199   4.461  0.6920 -0.4904  0.5823
   94MOL   H20424570   3.005   7.222   4.280  2.9290  1.6264 -0.1193
   94MOL   H20524571   3.075   7.082   3.990 -0.7286 -1.2202 -0.4189
   94MOL   H20624572   2.963   7.171   4.069  1.4408  0.4866 -0.8507
   94MOL   H20724573   2.921   7.000   4.030  0.3450 -0.9406  0.3976
   94MOL   H20824574   3.167   6.887   4.313 -2.0370  0.4762  0.8308
   94MOL   H20924575   3.192   6.873   4.142  1.1298  2.0785  0.1124
   94MOL   C21024576   3.012   6.774   4.208  0.0475 -0.0019  0.0987
   94MOL   C21124577   3.082   6.642   4.230 -0.7995 -0.3779  0.9054
   94MOL   C21224578   3.028   6.522   4.249  0.2429  0.2083  0.8390
   94MOL   C21324579   3.114   6.397   4.281 -0.2182  0.1852  0.2891
   94MOL   C21424580   2.877   6.506   4.261  0.0432  0.6996  0.2641
   94MOL   H21524581   2.968   6.766   4.109 -0.7550 -1.3152  0.5407
   94MOL   H21624582   2.929   6.779   4.279  0.9767 -0.8263  1.2539
   94MOL   H21724583   3.190   6.643   4.235 -0.7192  1.0954 -0.7929
   94MOL   H21824584   3.098   6.324   4.203 -1.6361  1.4244 -0.6123
   94MOL   H21924585   3.110   6.363   4.385  0.2097 -0.6941  0.0196
   94MOL   H22024586   3.220   6.423   4.279  0.5080 -2.7100 -0.1344
   94MOL   H22124587   2.822   6.599   4.247 -2.1696 -0.5093  0.7592
   94MOL   H22224588   2.858   6.469   4.362 -0.5652 -1.1768 -0.5218
   94MOL   C22324589   2.821   6.412   4.148  0.3018 -0.2209 -0.0464
   94MOL   C22424590   2.671   6.392   4.156 -0.4544  0.1365  0.7124
   94MOL   C22524591   2.578   6.462   4.092  0.2985  0.9770 -0.9510
   94MOL   C22624592   2.434   6.415   4.094  0.1588  0.1939 -0.1502
   94MOL   C22724593   2.601   6.579   3.998 -0.4247  0.3039  0.0366
   94MOL   H22824594   2.856   6.309   4.144  0.3754 -0.2487  1.2146
   94MOL   H22924595   2.844   6.462   4.054 -0.8135  0.1447 -0.1305
   94MOL   H23024596   2.636   6.310   4.216 -0.4718 -0.0789  0.4106
   94MOL   H23124597   2.420   6.351   4.181  0.0183 -0.9667 -1.0128
   94MOL   H23224598   2.431   6.351   4.006 -1.3615 -0.3165  0.2552
   94MOL   H23324599   2.359   6.495   4.096  0.6448  0.7725 -2.9415
   94MOL   H23424600   2.673   6.651   4.037  0.6605 -0.3187 -0.7883
   94MOL   H23524601   2.507   6.632   4.005 -0.6190 -0.0278 -0.0569
   94MOL   C23624602   2.632   6.527   3.857 -0.5005 -0.3349 -0.0595
   94MOL   C23724603   2.655   6.641   3.762 -0.1724  0.0431 -0.0776
   94MOL   C23824604   2.651   6.631   3.629  0.6828 -0.0977  0.1682
   94MOL   C23924605   2.691   6.740   3.537 -0.3185 -0.1327 -0.2579
   94MOL   C24024606   2.607   6.505   3.560  0.1395  0.0686 -0.1131
   94MOL   H24124607   2.544   6.473   3.824 -1.8903  2.3473 -0.9382
   94MOL   H24224608   2.721   6.464   3.858 -0.3455 -0.1183 -0.1116
   94MOL   H24324609   2.692   6.730   3.811  3.0628 -1.1140 -0.3121
   94MOL   H24424610   2.778   6.720   3.474  0.5359  1.9017  0.2429
   94MOL   H24524611   2.712   6.835   3.587  0.0415 -1.0017  1.2768
   94MOL   H24624612   2.604   6.752   3.473 -0.0297  0.0670 -0.6181
   94MOL   H24724613   2.561   6.517   3.463 -0.6522 -2.1095 -0.0311
   94MOL   H24824614   2.531   6.459   3.623  0.4758 -1.7944 -1.0400
   94MOL   C24924615   2.720   6.402   3.549 -0.1754  0.2029  0.2192
   94MOL   C25024616   2.674   6.270   3.489  0.0505  0.8980  0.7466
   94MOL   C25124617   2.759   6.200   3.410  0.0526  0.6761 -0.2557
   94MOL   C25224618   2.723   6.076   3.340 -0.3235  0.3031  0.3324
   94MOL   C25324619   2.902   6.235   3.371 -0.0441  0.0479  0.3399
   94MOL   H25424620   2.775   6.383   3.641 -1.5052  0.8175  1.1600
   94MOL   H25524621   2.785   6.438   3.468 -1.8659  1.6540 -0.5409
   94MOL   H25624622   2.578   6.225   3.507  0.4769 -0.1577  0.3733
   94MOL   H25724623   2.731   6.094   3.233 -1.7369  0.9437  0.3234
   94MOL   H25824624   2.617   6.061   3.357 -0.5941  0.7339 -0.9217
   94MOL   H25924625   2.785   5.993   3.373 -0.4140  0.3932  0.7345
   94MOL   H26024626   2.895   6.270   3.268 -3.2408  1.7073  1.0407
   94MOL   H26124627   2.965   6.147   3.371 -2.4701 -1.7525 -0.2702
   94MOL   H26224628   2.954   6.310   3.431 -2.1974 -0.3051  2.7537
   95MOL     C124629   3.763   0.215   4.539 -0.2826 -1.2053  0.0147
   95MOL     C224630   3.673   0.268   4.649  0.1762 -0.1955  0.2685
   95MOL     C324631   3.658   0.396   4.687  0.7785  0.5707 -0.8786
   95MOL     C424632   3.552   0.435   4.796  0.1876  0.6617  0.3104
   95MOL     C524633   3.739   0.506   4.626  0.0448  0.1491  0.3434
   95MOL     H624634   3.777   0.111   4.567 -2.9093 -1.8031 -0.7603
   95MOL     H724635   3.716   0.217   4.441 -1.7177 -1.7830  0.6751
   95MOL     H824636   3.602   0.198   4.691  1.3805 -1.7441 -0.2534
   95MOL     H924637   3.487   0.517   4.764 -2.0898 -1.6023 -1.0506
   95MOL    H1024638   3.609   0.476   4.879 -0.6729  1.6768  0.4039
   95MOL    H1124639   3.489   0.349   4.818  0.8488  0.8179  2.9301
   95MOL    H1224640   3.674   0.572   4.568  0.1525  0.3067  0.4005
   95MOL    H1324641   3.809   0.470   4.550  1.7357  0.2690  1.8071
   95MOL    H1424642   3.861   0.263   4.535 -1.1416  1.2034  4.3895
   95MOL    C1524643   3.820   0.586   4.723 -0.5315  0.2486 -0.1570
   95MOL    C1624644   3.906   0.697   4.660 -0.2650  0.2990  0.3924
   95MOL    C1724645   4.035   0.726   4.684  0.1019 -0.2590 -0.2035
   95MOL    C1824646   4.106   0.832   4.597 -0.1653  0.0587 -0.1054
   95MOL    C1924647   4.120   0.653   4.786 -0.0369  0.1171  0.5615
   95MOL    H2024648   3.875   0.509   4.778 -0.0922 -0.9290 -2.1955
   95MOL    H2124649   3.749   0.647   4.780  0.8657  2.0823 -0.3236
   95MOL    H2224650   3.861   0.758   4.582  0.7301 -0.0476 -0.4703
   95MOL    H2324651   4.160   0.900   4.663  2.4449 -1.1381 -0.9310
   95MOL    H2424652   4.040   0.897   4.539  0.6811  0.8741 -0.1545
   95MOL    H2524653   4.185   0.794   4.533  0.1849 -1.0690  0.9741
   95MOL    H2624654   4.214   0.632   4.735  0.4217  1.2985  0.8824
   95MOL    H2724655   4.092   0.551   4.811 -1.9100  0.8253  1.4783
   95MOL    C2824656   4.137   0.729   4.911  0.1825 -0.0820 -0.4824
   95MOL    C2924657   4.263   0.687   4.985 -0.6984  0.2250  0.5187
   95MOL    C3024658   4.283   0.597   5.081  0.0892  1.0221  0.0786
   95MOL    C3124659   4.422   0.585   5.136 -0.3095 -0.3472 -0.4333
   95MOL    C3224660   4.185   0.502   5.146  0.3876 -0.1289  0.9901
   95MOL    H3324661   4.052   0.716   4.978  2.0602 -0.1684  1.9451
   95MOL    H3424662   4.154   0.837   4.912  0.5789 -0.1516  0.5927
   95MOL    H3524663   4.352   0.738   4.951 -0.3237 -0.4753  0.4486
   95MOL    H3624664   4.466   0.486   5.134 -0.5562 -0.4477 -1.2253
   95MOL    H3724665   4.427   0.612   5.241  0.6712  1.3389 -0.8847
   95MOL    H3824666   4.491   0.651   5.083  1.5333  0.4925  2.8729
   95MOL    H3924667   4.084   0.537   5.122  0.4408  0.9684  2.2947
   95MOL    H4024668   4.183   0.517   5.254 -0.8867  1.3557  0.7857
   95MOL    C4124669   4.206   0.351   5.096  0.2759 -0.1432 -0.1711
   95MOL    C4224670   4.180   0.330   4.947 -0.4569  0.4127 -0.6097
   95MOL    C4324671   4.111   0.230   4.894 -0.0755  0.1437 -0.0108
   95MOL    C4424672   4.106   0.222   4.741  0.3899 -0.0434 -0.6512
   95MOL    C4524673   4.005   0.139   4.963  0.1327 -0.0563  0.1422
   95MOL    H4624674   4.144   0.287   5.160 -0.1974 -0.3348 -0.8090
   95MOL    H4724675   4.307   0.315   5.113  0.4785  0.7215  0.4457
   95MOL    H4824676   4.248   0.384   4.882  0.5044  0.4148  0.3834
   95MOL    H4924677   4.032   0.293   4.703 -1.2379  0.3165  3.0250
   95MOL    H5024678   4.071   0.123   4.715  1.6436 -1.2875  2.2098
   95MOL    H5124679   4.203   0.244   4.696  1.9623  0.8156  2.9984
   95MOL    H5224680   4.051   0.091   5.049 -0.3557 -1.9019 -0.5997
   95MOL    H5324681   3.972   0.058   4.898  0.6005 -0.6255  0.6118
   95MOL    C5424682   3.878   0.215   4.999 -0.3319 -0.4354 -1.3407
   95MOL    C5524683   3.778   0.145   5.085  0.5651  0.3023  0.3329
   95MOL    C5624684   3.729   0.182   5.205  0.4301 -0.0869  0.8726
   95MOL    C5724685   3.618   0.097   5.264  0.3192  0.5006  0.6801
   95MOL    C5824686   3.770   0.309   5.276 -0.0973  0.4216  0.1178
   95MOL    H5924687   3.825   0.245   4.909 -1.7705 -0.7242 -0.6064
   95MOL    H6024688   3.902   0.306   5.055 -1.9785 -0.2590 -0.8847
   95MOL    H6124689   3.745   0.055   5.034  1.5467 -0.5810  1.2330
   95MOL    H6224690   3.626   7.873   5.232 -1.4146  0.3963  0.5770
   95MOL    H6324691   3.517   0.129   5.239  0.5464 -0.0829 -1.0403
   95MOL    H6424692   3.625   0.095   5.373  0.3295 -0.5974  0.6612
   95MOL    H6524693   3.697   0.333   5.353  0.2353  2.9341 -0.3066
   95MOL    H6624694   3.762   0.390   5.204  0.3905  1.7675  1.5434
   95MOL    C6724695   3.904   0.297   5.352  0.0018  0.7834  0.8346
   95MOL    C6824696   3.952   0.434   5.392 -0.5736 -0.6758  0.2445
   95MOL    C6924697   3.981   0.485   5.517  1.0081 -1.0760 -0.1196
   95MOL    C7024698   4.021   0.632   5.527 -0.0247 -0.4789 -0.2217
   95MOL    C7124699   3.958   0.407   5.643 -0.2138 -0.3314  0.3375
   95MOL    H7224700   3.975   0.244   5.289  0.3056  1.3015  0.7431
   95MOL    H7324701   3.876   0.238   5.440  0.9444  0.3437  0.8462
   95MOL    H7424702   3.963   0.506   5.312 -0.4058  0.0401  0.9124
   95MOL    H7524703   4.129   0.625   5.513 -0.3175 -0.4871 -2.7325
   95MOL    H7624704   3.986   0.679   5.618  1.4608  1.4263 -0.6125
   95MOL    H7724705   3.976   0.688   5.445 -1.1509  0.2977  0.9104
   95MOL    H7824706   4.043   0.431   5.707  0.1386 -1.2508  0.2243
   95MOL    H7924707   3.968   0.300   5.626 -0.3676 -0.3173  0.1644
   95MOL    C8024708   3.822   0.440   5.715  0.7389  0.6859 -0.1457
   95MOL    C8124709   3.703   0.434   5.617 -0.0481 -0.2874  0.7415
   95MOL    C8224710   3.618   0.540   5.587 -0.7299  0.0369 -0.2866
   95MOL    C8324711   3.634   0.689   5.641 -0.0791 -0.2293  0.2810
   95MOL    C8424712   3.493   0.507   5.507  0.0063  0.5457  0.1768
   95MOL    H8524713   3.829   0.537   5.764 -1.3245  1.0771 -0.5649
   95MOL    H8624714   3.812   0.368   5.795 -1.0995 -0.5651 -1.4409
   95MOL    H8724715   3.689   0.334   5.581  2.0174  0.0161 -0.9660
   95MOL    H8824716   3.645   0.683   5.750  2.0131  1.6813  0.1988
   95MOL    H8924717   3.545   0.748   5.620  0.2780  0.7239  1.3618
   95MOL    H9024718   3.721   0.734   5.595 -0.2749 -0.9746 -0.8526
   95MOL    H9124719   3.404   0.530   5.567  0.0996  0.5391  0.3181
   95MOL    H9224720   3.489   0.401   5.486 -3.0100  0.9056 -1.3296
   95MOL    C9324721   3.494   0.573   5.374  0.0107 -0.1243 -0.5917
   95MOL    C9424722   3.365   0.544   5.302 -0.4470  0.2219  0.5887
   95MOL    C9524723   3.262   0.626   5.284  0.0094  0.6603  0.6617
   95MOL    C9624724   3.129   0.583   5.214 -0.4475 -0.3734 -0.0103
   95MOL    C9724725   3.266   0.767   5.337  0.3812  0.2728 -0.6399
   95MOL    H9824726   3.584   0.542   5.321  0.6293  0.0639  0.3340
   95MOL    H9924727   3.504   0.680   5.394 -2.2428 -0.1246  0.6947
   95MOL   H10024728   3.350   0.439   5.282 -2.0615  0.7737 -1.2737
   95MOL   H10124729   3.105   0.658   5.139  1.4704 -0.1118 -0.3877
   95MOL   H10224730   3.131   0.482   5.171 -0.3023  0.0479 -1.0004
   95MOL   H10324731   3.050   0.575   5.288 -1.5664 -1.2675 -1.2808
   95MOL   H10424732   3.327   0.771   5.428 -0.0685 -1.2871 -0.2500
   95MOL   H10524733   3.172   0.800   5.382  0.9033  0.7103  0.1515
   95MOL   C10624734   3.322   0.877   5.248 -0.2216  1.5293  0.1725
   95MOL   C10724735   3.269   0.867   5.101 -0.0240  0.9787 -0.1915
   95MOL   C10824736   3.325   0.801   5.000  0.8100 -0.1333  0.2137
   95MOL   C10924737   3.434   0.694   5.013  0.0618 -0.0123 -0.1369
   95MOL   C11024738   3.256   0.808   4.863  0.5309  0.0510  0.0893
   95MOL   H11124739   3.430   0.878   5.240 -0.1941 -0.8064 -0.1024
   95MOL   H11224740   3.300   0.980   5.279 -0.3586  1.7490 -0.6373
   95MOL   H11324741   3.190   0.936   5.076 -1.9146 -1.3878 -0.9495
   95MOL   H11424742   3.379   0.601   5.026  0.5266 -0.6674 -2.5393
   95MOL   H11524743   3.484   0.684   4.916 -0.8899  1.3113 -0.7823
   95MOL   H11624744   3.499   0.700   5.100 -0.5748  3.0112  0.1997
   95MOL   H11724745   3.323   0.829   4.779 -2.2102  1.7676 -1.7388
   95MOL   H11824746   3.173   0.878   4.865 -1.8951 -2.7899  2.6832
   95MOL   C11924747   3.191   0.678   4.819  0.1838 -0.1844  0.4030
   95MOL   C12024748   3.095   0.693   4.700  0.1300 -0.0814  0.4920
   95MOL   C12124749   3.087   0.624   4.588  0.4555 -0.4859  0.4456
   95MOL   C12224750   2.986   0.667   4.477 -0.7073 -0.7438 -0.1874
   95MOL   C12324751   3.177   0.502   4.548 -0.5726  0.8784 -0.2960
   95MOL   H12424752   3.122   0.637   4.892  0.2338 -2.6468 -0.9000
   95MOL   H12524753   3.270   0.605   4.802  1.7414  1.8199 -1.2437
   95MOL   H12624754   3.041   0.787   4.703 -0.8596 -0.6454  0.4058
   95MOL   H12724755   3.024   0.670   4.375 -1.9987 -0.1751 -0.6527
   95MOL   H12824756   2.936   0.759   4.506  2.4057  0.5730  1.2139
   95MOL   H12924757   2.902   0.598   4.467  0.2387 -1.8706 -0.5162
   95MOL   H13024758   3.257   0.512   4.622  0.5650  0.1881 -1.4077
   95MOL   H13124759   3.216   0.516   4.447 -1.1733  1.0611 -0.5071
   95MOL   C13224760   3.116   0.360   4.565  0.0120  0.5877  0.5587
   95MOL   C13324761   3.209   0.255   4.519 -0.3425  0.4370 -0.3444
   95MOL   C13424762   3.204   0.195   4.400  0.4634  0.0285 -0.0320
   95MOL   C13524763   3.299   0.080   4.352 -0.5323  0.1004 -0.0525
   95MOL   C13624764   3.106   0.236   4.292  0.1937  0.9173  1.2743
   95MOL   H13724765   3.026   0.365   4.503  0.4656 -0.2760 -0.1841
   95MOL   H13824766   3.078   0.341   4.665 -0.7714 -2.2242 -0.2103
   95MOL   H13924767   3.279   0.218   4.593 -0.1001  0.5930 -0.4923
   95MOL   H14024768   3.345   0.101   4.255  2.2149 -1.4404  0.8798
   95MOL   H14124769   3.246   7.867   4.325  0.0546 -0.0411 -0.7251
   95MOL   H14224770   3.366   0.048   4.431  1.9911  1.5632 -1.5473
   95MOL   H14324771   3.153   0.230   4.194 -0.3546 -0.1390  1.0671
   95MOL   H14424772   3.075   0.340   4.295 -0.3692  0.7809  0.3262
   95MOL   C14524773   2.981   0.140   4.294  0.0177  0.1353  0.2215
   95MOL   C14624774   2.883   0.192   4.191 -0.2517 -0.6303 -0.3607
   95MOL   C14724775   2.821   0.114   4.100  0.0831 -0.0299  0.1622
   95MOL   C14824776   2.715   0.168   4.009 -0.1256 -0.2717  0.8260
   95MOL   C14924777   2.825   7.843   4.092 -0.0689  0.0457  0.2583
   95MOL   H15024778   2.927   0.144   4.389 -0.8991  0.4507 -0.3045
   95MOL   H15124779   3.020   0.041   4.271  0.7573  0.3775  0.4066
   95MOL   H15224780   2.862   0.298   4.201  0.0225 -0.5949 -0.1204
   95MOL   H15324781   2.722   0.277   4.013  1.4051 -0.3454  0.4863
   95MOL   H15424782   2.611   0.152   4.038 -0.3217 -0.3874  0.0640
   95MOL   H15524783   2.729   0.145   3.904  1.1770  3.5938  0.0397
   95MOL   H15624784   2.912   7.807   4.148  0.4073 -0.4502 -0.7745
   95MOL   H15724785   2.864   7.817   3.993 -0.7325 -0.0629  0.0220
   95MOL   C15824786   2.695   7.773   4.126 -0.5584  1.1937 -0.5146
   95MOL   C15924787   2.724   7.628   4.159 -0.6168 -0.0483  0.2995
   95MOL   C16024788   2.713   7.520   4.079  0.0607  0.8132  0.3514
   95MOL   C16124789   2.696   7.545   3.924  0.8181 -0.4200 -0.2816
   95MOL   C16224790   2.731   7.374   4.132  0.9555 -0.0502  0.0198
   95MOL   H16324791   2.621   7.795   4.049 -1.5081  2.6332  0.7802
   95MOL   H16424792   2.640   7.811   4.212  1.6436 -2.5655  2.7087
   95MOL   H16524793   2.744   7.616   4.264  2.3105  1.8545  0.0158
   95MOL   H16624794   2.780   7.501   3.869  1.9780 -0.7383  1.6898
   95MOL   H16724795   2.713   7.649   3.898  1.5094 -0.7081 -1.0095
   95MOL   H16824796   2.602   7.503   3.887 -1.1489  2.4429  1.2936
   95MOL   H16924797   2.762   7.379   4.237  2.0676 -0.1313 -0.3001
   95MOL   H17024798   2.804   7.323   4.069 -0.7490  0.3987 -2.3861
   95MOL   C17124799   2.609   7.287   4.128 -0.4900 -0.1481  0.2992
   95MOL   C17224800   2.637   7.147   4.177 -0.1010  0.9644 -0.1755
   95MOL   C17324801   2.606   7.084   4.290 -0.8596  0.4429 -0.1798
   95MOL   C17424802   2.553   7.158   4.413 -0.1374 -0.0286 -0.0964
   95MOL   C17524803   2.634   6.935   4.312 -0.1222 -1.0097  0.1645
   95MOL   H17624804   2.562   7.277   4.030 -0.2505 -0.2525  0.1950
   95MOL   H17724805   2.531   7.334   4.187  1.8067  2.2604  1.5296
   95MOL   H17824806   2.687   7.088   4.101  0.6201  0.0594  0.9907
   95MOL   H17924807   2.576   7.264   4.406 -1.0494  0.1621 -0.3498
   95MOL   H18024808   2.614   7.127   4.498 -0.1835  1.3398  0.4380
   95MOL   H18124809   2.450   7.131   4.438 -0.9464  1.7864 -1.4211
   95MOL   H18224810   2.693   6.938   4.404 -1.6027  2.2269  1.0864
   95MOL   H18324811   2.694   6.885   4.236  1.1444 -0.0720  0.5158
   95MOL   C18424812   2.499   6.859   4.331 -0.1398  0.2271  0.1338
   95MOL   C18524813   2.537   6.709   4.364  0.2030  0.4479  0.7487
   95MOL   C18624814   2.460   6.626   4.435  0.2230  0.1975 -0.3737
   95MOL   C18724815   2.506   6.494   4.464  0.1074  0.5229 -0.2603
   95MOL   C18824816   2.330   6.675   4.497 -0.1973  0.8312  0.1948
   95MOL   H18924817   2.436   6.854   4.242  0.4998  1.2929 -0.3909
   95MOL   H19024818   2.449   6.901   4.418 -3.0090  0.8012 -1.7186
   95MOL   H19124819   2.632   6.679   4.322  0.0629 -0.6417  1.2009
   95MOL   H19224820   2.602   6.466   4.422 -1.0240 -2.4667 -1.0176
   95MOL   H19324821   2.439   6.417   4.425  1.2199 -0.3365 -0.4919
   95MOL   H19424822   2.503   6.475   4.571 -3.0372 -0.9991 -0.5460
   95MOL   H19524823   2.357   6.760   4.560 -0.5508  2.7154 -2.0894
   95MOL   H19624824   2.295   6.622   4.586  0.2341 -1.5591 -1.0338
   95MOL   C19724825   2.218   6.699   4.400  0.1513 -0.5669  0.4622
   95MOL   C19824826   2.083   6.721   4.467 -0.2434 -0.4022 -0.0012
   95MOL   C19924827   2.013   6.828   4.475 -0.1142 -0.1114  0.2489
   95MOL   C20024828   1.895   6.833   4.571  0.3309  0.7625 -0.6772
   95MOL   C20124829   2.044   6.964   4.417  0.2547 -0.1236  0.3949
   95MOL   H20224830   2.208   6.620   4.326  0.4583 -0.0461 -0.1335
   95MOL   H20324831   2.247   6.782   4.336  0.5726  0.6648  2.1996
   95MOL   H20424832   2.046   6.631   4.514  1.5963 -2.0972 -1.7050
   95MOL   H20524833   1.810   6.894   4.541 -0.7075  0.1407  0.9372
   95MOL   H20624834   1.925   6.874   4.667 -1.3170  1.0012 -0.2452
   95MOL   H20724835   1.854   6.733   4.586  1.0047  0.5797 -0.0353
   95MOL   H20824836   1.951   7.021   4.416  1.3822  1.7474  0.0044
   95MOL   H20924837   2.093   6.949   4.321  1.3428 -0.5903  1.0121
   95MOL   C21024838   2.144   7.048   4.501  0.1129 -0.0791  0.2988
   95MOL   C21124839   2.155   7.190   4.458  0.3959 -0.3110  0.2800
   95MOL   C21224840   2.102   7.296   4.519  0.8634  0.1764  0.4476
   95MOL   C21324841   2.124   7.428   4.463 -0.4592 -0.5375  0.3045
   95MOL   C21424842   2.009   7.288   4.637  0.0265 -0.3400 -0.3134
   95MOL   H21524843   2.248   7.018   4.486  0.4518  0.9946  0.4815
   95MOL   H21624844   2.123   7.049   4.608  0.0263  0.2776  0.2794
   95MOL   H21724845   2.198   7.218   4.363 -3.1751 -3.1330 -2.3462
   95MOL   H21824846   2.171   7.500   4.531  0.8332 -0.5848 -0.5112
   95MOL   H21924847   2.029   7.475   4.439 -0.7732 -1.0694  0.4979
   95MOL   H22024848   2.195   7.438   4.380  0.8570  0.0117  1.4555
   95MOL   H22124849   1.961   7.190   4.637  0.9063 -0.8122  2.2976
   95MOL   H22224850   1.939   7.371   4.629  1.8141  1.2953  0.5670
   95MOL   C22324851   2.083   7.304   4.772  1.0320  0.2570  0.8045
   95MOL   C22424852   2.005   7.255   4.896  0.1634 -0.4132  0.7807
   95MOL   C22524853   2.055   7.185   4.998 -0.1818  0.2746 -0.7046
   95MOL   C22624854   1.965   7.141   5.114 -0.1821 -0.4407  0.2870
   95MOL   C22724855   2.205   7.128   5.009  0.4924  0.2411  0.1573
   95MOL   H22824856   2.110   7.409   4.774 -0.9915  0.9214 -2.4326
   95MOL   H22924857   2.185   7.265   4.768  1.1709  0.3592  2.8244
   95MOL   H23024858   1.899   7.271   4.904 -0.1964 -2.3504  0.1755
   95MOL   H23124859   2.011   7.189   5.200 -0.3088 -2.0167  1.2566
   95MOL   H23224860   1.978   7.033   5.116  2.4751 -0.1391  2.4400
   95MOL   H23324861   1.859   7.169   5.111 -0.3572 -1.1519 -0.6395
   95MOL   H23424862   2.240   7.106   4.908 -0.7569  0.7422 -0.3940
   95MOL   H23524863   2.203   7.029   5.056  0.7026  0.2130  0.1079
   95MOL   C23624864   2.302   7.214   5.094 -0.8067 -0.2393  0.6045
   95MOL   C23724865   2.439   7.159   5.081  0.2754 -0.2838 -0.4082
   95MOL   C23824866   2.547   7.201   5.003  0.7631 -0.2900 -0.0486
   95MOL   C23924867   2.683   7.133   4.992  0.7258 -0.1149 -0.2678
   95MOL   C24024868   2.522   7.320   4.905 -0.1363  0.1259  0.1420
   95MOL   H24124869   2.296   7.228   5.201 -0.9659 -2.5878  0.9295
   95MOL   H24224870   2.299   7.320   5.069 -0.9107 -0.7002 -1.4272
   95MOL   H24324871   2.460   7.072   5.141  3.4117  0.4467 -0.3582
   95MOL   H24424872   2.695   7.033   5.035 -0.0248 -0.7452 -1.5038
   95MOL   H24524873   2.755   7.203   5.035  0.0311  1.3054 -1.4073
   95MOL   H24624874   2.713   7.121   4.888  1.6976  1.6803 -0.2259
   95MOL   H24724875   2.606   7.389   4.914  1.3510 -1.8063  1.7764
   95MOL   H24824876   2.431   7.377   4.920 -1.2485 -1.4256 -0.5766
   95MOL   C24924877   2.500   7.279   4.763  0.4608  0.0729  0.5090
   95MOL   C25024878   2.462   7.397   4.665 -0.0338 -0.0830  0.4709
   95MOL   C25124879   2.546   7.477   4.602 -0.3166  0.2847  0.0011
   95MOL   C25224880   2.498   7.589   4.510  0.5592  0.1359 -0.3506
   95MOL   C25324881   2.697   7.466   4.613  0.6807  0.1748  0.3160
   95MOL   H25424882   2.413   7.213   4.757  0.1538  0.6332 -2.0700
   95MOL   H25524883   2.583   7.226   4.714  1.6162  0.5439  1.9396
   95MOL   H25624884   2.356   7.415   4.653  0.0037 -1.6498 -2.7978
   95MOL   H25724885   2.545   7.683   4.538  0.5544  0.1392 -0.3523
   95MOL   H25824886   2.390   7.581   4.500  0.3460 -0.8722  2.3880
   95MOL   H25924887   2.545   7.561   4.415 -0.2349 -1.9799 -0.1531
   95MOL   H26024888   2.738   7.443   4.515 -1.6537  2.0468 -1.1713
   95MOL   H26124889   2.727   7.389   4.684  0.0534 -0.1708  0.2124
   95MOL   H26224890   2.738   7.561   4.647 -0.7275  1.1045 -0.5072
   96MOL     C124891   5.329   7.219   3.954 -0.5124  0.2539  0.5762
   96MOL     C224892   5.307   7.069   3.926 -0.6782 -0.7034  0.3006
   96MOL     C324893   5.208   7.016   3.853 -0.3480  0.6829  0.4321
   96MOL     C424894   5.213   6.865   3.809  0.8916 -0.5427  0.1141
   96MOL     C524895   5.097   7.108   3.787  0.4865  0.2985 -0.3273
   96MOL     H624896   5.259   7.283   3.899 -0.5684 -0.7657 -0.5672
   96MOL     H724897   5.329   7.238   4.061  0.0333 -0.5465  0.7218
   96MOL     H824898   5.383   7.003   3.963  0.9350 -0.5606 -2.5934
   96MOL     H924899   5.111   6.827   3.798  0.3514  0.9368 -0.2028
   96MOL    H1024900   5.269   6.808   3.882 -0.2572  0.7582  2.0664
   96MOL    H1124901   5.268   6.854   3.715  2.4346 -1.0132  1.0562
   96MOL    H1224902   5.092   7.202   3.843 -1.5570 -0.4613  0.8237
   96MOL    H1324903   5.001   7.058   3.803 -1.7902  4.4107 -0.5479
   96MOL    H1424904   5.431   7.247   3.928 -0.4431  0.2674  0.8689
   96MOL    C1524905   5.118   7.132   3.633  0.3960  0.1304  0.1159
   96MOL    C1624906   4.992   7.201   3.576 -0.4066 -0.0770  0.3463
   96MOL    C1724907   4.977   7.236   3.442 -0.4884  0.5454  0.0757
   96MOL    C1824908   4.840   7.297   3.398  0.3718 -0.0508 -0.6426
   96MOL    C1924909   5.087   7.206   3.337  0.6713  0.6175  0.4850
   96MOL    H2024910   5.130   7.035   3.587  2.0079 -0.0435  0.8906
   96MOL    H2124911   5.206   7.193   3.613  0.4020  0.1778  0.2844
   96MOL    H2224912   4.910   7.221   3.643 -0.7719 -0.0953 -0.0841
   96MOL    H2324913   4.772   7.347   3.466 -0.7155 -0.1931 -1.6185
   96MOL    H2424914   4.776   7.231   3.341  2.5577 -1.6675 -1.3167
   96MOL    H2524915   4.879   7.376   3.333  0.1750 -1.2673 -2.2901
   96MOL    H2624916   5.184   7.181   3.378  0.9019 -0.9600 -0.9710
   96MOL    H2724917   5.114   7.296   3.282  1.9519 -0.4388 -0.6548
   96MOL    C2824918   5.060   7.095   3.239  0.1956  0.6452  0.0766
   96MOL    C2924919   5.181   7.082   3.145  0.3502 -0.1836 -0.7038
   96MOL    C3024920   5.262   6.975   3.125  0.3736  0.6939  0.3163
   96MOL    C3124921   5.378   6.979   3.032 -0.5406  0.2480  0.3480
   96MOL    C3224922   5.243   6.843   3.198 -0.5221  0.0530 -0.1796
   96MOL    H3324923   4.964   7.116   3.191  0.0503 -0.0554  0.0589
   96MOL    H3424924   5.036   7.006   3.297 -1.4673  0.9887 -0.0535
   96MOL    H3524925   5.201   7.168   3.082  3.0161  0.8107  1.3974
   96MOL    H3624926   5.344   6.930   2.941 -0.5797 -1.1244  1.0870
   96MOL    H3724927   5.465   6.931   3.077  0.4353  1.6321 -0.0176
   96MOL    H3824928   5.411   7.079   3.002 -1.2956  0.1984 -0.6708
   96MOL    H3924929   5.292   6.766   3.137  1.1939 -0.5271  1.8685
   96MOL    H4024930   5.135   6.836   3.206 -0.5678  1.6861  0.8000
   96MOL    C4124931   5.309   6.843   3.338 -0.2592  0.3084 -0.1410
   96MOL    C4224932   5.293   6.705   3.409 -0.3028 -0.2188  0.2100
   96MOL    C4324933   5.380   6.651   3.494  0.0026  0.4149  0.2807
   96MOL    C4424934   5.336   6.518   3.553  0.8245  0.2264  0.0663
   96MOL    C4524935   5.524   6.711   3.529 -0.4508  0.0861  0.1400
   96MOL    H4624936   5.257   6.919   3.397  1.1641  0.2642  1.2059
   96MOL    H4724937   5.416   6.861   3.324 -0.1799  1.1655  1.4639
   96MOL    H4824938   5.197   6.656   3.398 -0.1859 -0.1062 -1.3768
   96MOL    H4924939   5.395   6.438   3.509 -1.0196 -0.5102 -1.1136
   96MOL    H5024940   5.231   6.493   3.536  1.1139 -0.4942 -0.7244
   96MOL    H5124941   5.356   6.535   3.658 -0.3163  1.7618  0.0550
   96MOL    H5224942   5.545   6.675   3.630 -0.1248 -0.3309 -0.0755
   96MOL    H5324943   5.516   6.819   3.527 -1.8968  0.0500  2.0257
   96MOL    C5424944   5.626   6.639   3.434 -0.2748 -0.4371  0.5542
   96MOL    C5524945   5.769   6.681   3.481  0.1339 -0.2891 -0.1688
   96MOL    C5624946   5.857   6.755   3.409 -0.2417  0.0515 -0.1633
   96MOL    C5724947   5.992   6.784   3.468  0.2676 -0.3704  0.3149
   96MOL    C5824948   5.835   6.821   3.270 -0.5199 -0.6909  0.6274
   96MOL    H5924949   5.603   6.663   3.330 -2.4897 -0.7747  0.9252
   96MOL    H6024950   5.616   6.530   3.430 -0.4644 -0.4489  1.2455
   96MOL    H6124951   5.797   6.653   3.582  1.3246 -0.1383 -0.4559
   96MOL    H6224952   6.001   6.888   3.499  1.1741 -1.0438  2.3681
   96MOL    H6324953   6.073   6.768   3.397  1.7436  0.1418  1.8547
   96MOL    H6424954   6.017   6.716   3.549 -0.1296 -1.1538 -0.2029
   96MOL    H6524955   5.741   6.785   3.229 -1.6812 -0.5560  3.0844
   96MOL    H6624956   5.908   6.791   3.195 -0.5589 -0.6170  0.5590
   96MOL    C6724957   5.839   6.969   3.282  0.1159  0.3001  0.4306
   96MOL    C6824958   5.717   7.023   3.352  0.0607  0.3186 -0.5405
   96MOL    C6924959   5.651   7.139   3.334 -0.5178  0.2292 -0.1599
   96MOL    C7024960   5.525   7.167   3.416  0.6778 -0.3170  0.0110
   96MOL    C7124961   5.708   7.246   3.244  0.2649 -0.3016  0.6455
   96MOL    H7224962   5.852   7.014   3.183  0.1264  0.9988  0.7513
   96MOL    H7324963   5.927   7.020   3.321 -0.0295  2.2353 -1.6566
   96MOL    H7424964   5.671   6.953   3.420  0.3040 -0.5143 -1.2369
   96MOL    H7524965   5.561   7.239   3.489 -0.4218 -1.6024  1.8719
   96MOL    H7624966   5.481   7.074   3.453 -2.7111  1.2861  0.2205
   96MOL    H7724967   5.455   7.210   3.345  0.9926 -0.3459 -0.3172
   96MOL    H7824968   5.815   7.233   3.230  0.3469  0.4194  0.5775
   96MOL    H7924969   5.704   7.341   3.297  0.2439 -0.9117  1.7378
   96MOL    C8024970   5.638   7.259   3.103 -0.5060 -0.2738 -0.2032
   96MOL    C8124971   5.658   7.387   3.029 -0.4334  0.5510  0.1128
   96MOL    C8224972   5.664   7.406   2.894 -0.3216 -0.1406  0.6280
   96MOL    C8324973   5.664   7.295   2.788 -1.0855  0.3131  0.1584
   96MOL    C8424974   5.665   7.542   2.826  0.2558  0.3010 -0.4426
   96MOL    H8524975   5.533   7.273   3.126 -0.1316  1.9626  0.2731
   96MOL    H8624976   5.648   7.165   3.049  0.5045  0.3652 -1.1557
   96MOL    H8724977   5.654   7.478   3.086 -0.2416  0.3959  0.3726
   96MOL    H8824978   5.620   7.211   2.842 -0.4720  3.0506  5.2078
   96MOL    H8924979   5.767   7.264   2.771 -1.4170 -0.1731 -0.9769
   96MOL    H9024980   5.625   7.310   2.688  4.6136  1.1866 -2.0963
   96MOL    H9124981   5.658   7.618   2.903 -1.7219  0.7379 -1.0440
   96MOL    H9224982   5.571   7.547   2.772 -0.5780  0.0094  0.9646
   96MOL    C9324983   5.780   7.566   2.730  0.0553 -0.8723  1.0941
   96MOL    C9424984   5.732   7.602   2.590  0.2650 -0.0919  0.8172
   96MOL    C9524985   5.726   7.722   2.521 -0.6237  0.5605  0.1484
   96MOL    C9624986   5.651   7.743   2.392 -0.4827 -1.0589  0.0814
   96MOL    C9724987   5.789   7.844   2.596 -0.3492  0.0930  0.0794
   96MOL    H9824988   5.850   7.487   2.701 -1.1161 -1.1952 -0.9166
   96MOL    H9924989   5.838   7.650   2.769 -1.4198  0.4628  0.4424
   96MOL   H10024990   5.681   7.520   2.542  0.2827  0.9306 -0.9806
   96MOL   H10124991   5.630   7.657   2.329  0.6676 -0.1196 -1.6173
   96MOL   H10224992   5.554   7.793   2.396  0.2303  0.4299 -0.7637
   96MOL   H10324993   5.698   7.819   2.329 -2.0666 -1.2173 -1.3067
   96MOL   H10424994   5.849   0.018   2.524 -0.4258  0.1789  0.0793
   96MOL   H10524995   5.862   7.825   2.675  2.4081  0.2037 -2.4064
   96MOL   C10624996   5.678   0.049   2.652  0.6845  0.3109  0.0317
   96MOL   C10724997   5.736   0.172   2.703 -0.0420  0.1737 -0.1765
   96MOL   C10824998   5.773   0.186   2.825 -0.3704 -0.2588 -0.0008
   96MOL   C10924999   5.744   0.097   2.939 -0.1347  0.0912 -0.0756
   96MOL   C11025000   5.831   0.321   2.863 -0.9550 -0.6382  1.1226
   96MOL   H11125001   5.626   7.858   2.717 -2.0562  0.4529 -1.9064
   96MOL   H11225002   5.607   0.078   2.574  1.7228 -0.7399 -1.3214
   96MOL   H11325003   5.762   0.252   2.635 -1.0917  1.9225  1.4251
   96MOL   H11425004   5.711   7.878   2.905 -0.3315  0.5882 -1.3612
   96MOL   H11525005   5.836   0.082   2.997 -1.6348 -3.0308  1.5920
   96MOL   H11625006   5.681   0.144   3.015  0.7464  0.7336  0.2799
   96MOL   H11725007   5.866   0.366   2.771  1.6247 -0.7466  2.0261
   96MOL   H11825008   5.920   0.299   2.922 -0.7864  0.1659  1.1739
   96MOL   C11925009   5.743   0.417   2.939 -0.1433 -0.3855 -0.6071
   96MOL   C12025010   5.769   0.564   2.901 -0.7488 -0.4617 -0.5150
   96MOL   C12125011   5.825   0.660   2.969  0.3926 -0.5676 -0.6821
   96MOL   C12225012   5.878   0.785   2.894 -0.0699  0.2458  0.5325
   96MOL   C12325013   5.866   0.644   3.121 -1.0899 -0.4442  0.2016
   96MOL   H12425014   5.733   0.393   3.045 -0.2245  1.4522 -0.1770
   96MOL   H12525015   5.641   0.408   2.900 -1.4207 -1.2163  2.7621
   96MOL   H12625016   5.750   0.590   2.798 -1.2399 -1.5931 -0.7149
   96MOL   H12725017   5.979   0.805   2.931  1.4222 -1.3216 -2.4987
   96MOL   H12825018   5.815   0.873   2.911 -2.5733 -1.7806  2.1550
   96MOL   H12925019   5.872   0.786   2.785 -0.2819  1.7599  0.5465
   96MOL   H13025020   5.792   0.587   3.176 -1.2971  0.5977  1.0205
   96MOL   H13125021   5.860   0.738   3.175 -2.4989 -0.6692  0.4392
   96MOL   C13225022   6.007   0.580   3.134 -0.5722  0.0215 -0.4018
   96MOL   C13325023   6.043   0.517   3.269  0.8848  0.1125  0.2598
   96MOL   C13425024   6.158   0.526   3.339  0.0303  1.1554 -0.5780
   96MOL   C13525025   6.174   0.464   3.478 -0.6050  0.3072  0.0876
   96MOL   C13625026   6.281   0.600   3.282 -0.2028 -0.7798  0.2748
   96MOL   H13725027   6.083   0.648   3.098 -0.6720  0.1276 -0.4113
   96MOL   H13825028   6.016   0.496   3.065  0.9297 -1.8791  2.0159
   96MOL   H13925029   5.955   0.477   3.316 -0.1566 -0.5797 -2.2106
   96MOL   H14025030   6.254   0.508   3.537 -0.3085 -0.1396  0.0271
   96MOL   H14125031   6.191   0.356   3.482  1.5378  0.5195 -1.9748
   96MOL   H14225032   6.087   0.490   3.538 -0.3720 -0.4458  0.7598
   96MOL   H14325033   6.279   0.628   3.176  0.0583 -1.4758  0.0837
   96MOL   H14425034   6.368   0.536   3.293  0.2225 -0.0430  1.2306
   96MOL   C14525035   6.319   0.729   3.362 -0.1735  0.5938  0.3937
   96MOL   C14625036   6.375   0.828   3.261 -0.0884  0.0568  1.0252
   96MOL   C14725037   6.502   0.884   3.254 -0.3570 -0.5182 -0.7835
   96MOL   C14825038   6.540   0.981   3.146 -0.2144 -0.5220  0.5053
   96MOL   C14925039   6.610   0.867   3.362  0.9916  0.7587 -0.1012
   96MOL   H15025040   6.385   0.697   3.442 -2.6135 -1.0706  1.8095
   96MOL   H15125041   6.228   0.779   3.394 -1.0974 -0.1865 -0.9694
   96MOL   H15225042   6.311   0.851   3.178  0.9034  1.4962  0.6463
   96MOL   H15325043   6.590   0.940   3.059 -1.6131 -2.7906  0.7336
   96MOL   H15425044   6.610   1.060   3.174  1.2113 -0.7214 -2.3238
   96MOL   H15525045   6.451   1.034   3.111  0.9766  0.1318 -1.5926
   96MOL   H15625046   6.578   0.839   3.462 -1.0481  2.0424 -0.3742
   96MOL   H15725047   6.672   0.957   3.366  2.5265 -0.3148  0.7329
   96MOL   C15825048   6.706   0.755   3.325 -0.3976 -0.0206  0.1287
   96MOL   C15925049   6.771   0.697   3.454  0.0238  0.4984 -0.1253
   96MOL   C16025050   6.897   0.734   3.499 -0.3274  0.5381  0.0337
   96MOL   C16125051   6.988   0.832   3.434 -0.4325 -0.2374 -0.3324
   96MOL   C16225052   6.959   0.671   3.625 -0.6695  0.2809  0.1496
   96MOL   H16325053   6.776   0.790   3.249 -0.6900 -1.3785 -0.7799
   96MOL   H16425054   6.639   0.677   3.288 -1.1140  0.6938 -0.0862
   96MOL   H16525055   6.709   0.637   3.518 -2.0929  1.4017 -1.2609
   96MOL   H16625056   7.017   0.915   3.498 -0.2645  0.1115 -0.8513
   96MOL   H16725057   6.948   0.878   3.343 -0.1539  0.5413 -0.0635
   96MOL   H16825058   7.080   0.780   3.407  0.2681  0.1885  1.1914
   96MOL   H16925059   7.067   0.657   3.619 -0.9072 -1.5129 -0.3649
   96MOL   H17025060   6.923   0.569   3.634 -0.6110  0.1887 -0.6095
   96MOL   C17125061   6.918   0.745   3.751  0.6852  0.0753 -0.1271
   96MOL   C17225062   6.973   0.688   3.883  0.5215  0.1098 -0.4516
   96MOL   C17325063   6.909   0.677   4.007  1.0480  0.3108  0.2514
   96MOL   C17425064   6.764   0.696   4.028  0.1725  0.1338  0.4775
   96MOL   C17525065   6.979   0.629   4.129 -0.6737  0.2012  0.0614
   96MOL   H17625066   6.810   0.736   3.766  1.0789 -1.7371  1.8983
   96MOL   H17725067   6.952   0.849   3.746  0.4079  0.1242 -1.0665
   96MOL   H17825068   7.079   0.668   3.884  0.6023  0.5540  1.1597
   96MOL   H17925069   6.750   0.761   4.114 -0.5331 -1.2989  1.4751
   96MOL   H18025070   6.707   0.606   4.054 -1.9190  1.4639  0.5966
   96MOL   H18125071   6.707   0.745   3.950  1.5263  0.8707 -0.0689
   96MOL   H18225072   6.934   0.682   4.212  1.9068  1.1612  0.8976
   96MOL   H18325073   7.084   0.658   4.121 -0.9796  0.5004 -3.6790
   96MOL   C18425074   6.962   0.471   4.154 -0.4624 -0.1149 -0.3185
   96MOL   C18525075   6.920   0.451   4.300 -0.7935 -0.9360 -0.2734
   96MOL   C18625076   6.961   0.355   4.384  0.4098  0.6806  0.8096
   96MOL   C18725077   6.921   0.362   4.531 -0.5108 -0.3205  0.2985
   96MOL   C18825078   7.067   0.258   4.349 -0.2826 -0.1341 -0.0128
   96MOL   H18925079   7.053   0.422   4.121 -0.2870 -0.5807  0.8136
   96MOL   H19025080   6.881   0.425   4.097 -0.4089 -0.7140  0.0793
   96MOL   H19125081   6.841   0.511   4.343  0.7399  1.7568 -1.1310
   96MOL   H19225082   7.017   0.348   4.581 -0.4309  2.2359  0.9581
   96MOL   H19325083   6.865   0.279   4.574 -1.2965  0.0377 -0.0188
   96MOL   H19425084   6.873   0.458   4.551  0.7782  0.2451  0.7181
   96MOL   H19525085   7.158   0.280   4.404  0.2165 -1.8345 -0.1125
   96MOL   H19625086   7.094   0.259   4.243 -2.0697  0.7450 -0.4895
   96MOL   C19725087   7.019   0.115   4.383 -0.6230 -0.5088  0.3378
   96MOL   C19825088   7.128   0.012   4.350  0.4329 -0.3428 -0.4033
   96MOL   C19925089   7.194   7.817   4.440 -0.7935  0.8744 -0.4432
   96MOL   C20025090   7.294   7.714   4.397 -0.1890  0.1354 -0.1006
   96MOL   C20125091   7.187   7.843   4.595  0.0535 -0.1503  0.5168
   96MOL   H20225092   6.931   0.089   4.324 -0.1104  0.1882 -0.7507
   96MOL   H20325093   6.998   0.098   4.488 -3.8561 -2.9022 -0.5916
   96MOL   H20425094   7.144   7.871   4.245 -2.2115  0.6090 -1.0271
   96MOL   H20525095   7.276   7.629   4.463  1.1413  0.0605  0.1781
   96MOL   H20625096   7.396   7.748   4.408  0.8638 -2.2623 -1.8362
   96MOL   H20725097   7.282   7.677   4.295  0.4742 -2.5400  0.7645
   96MOL   H20825098   7.180   0.067   4.629  1.0326 -0.2527  1.0461
   96MOL   H20925099   7.277   7.805   4.643  0.1268  0.0771  0.5616
   96MOL   C21025100   7.069   7.768   4.669  0.3319  0.6043 -0.4269
   96MOL   C21125101   7.096   7.616   4.696  0.2413  0.5514  0.1657
   96MOL   C21225102   7.070   7.512   4.620  0.1414  0.1605  0.2208
   96MOL   C21325103   7.072   7.371   4.680 -0.3445  0.3865  0.0528
   96MOL   C21425104   7.012   7.528   4.475  0.6951  0.1395  0.5341
   96MOL   H21525105   6.975   7.783   4.614 -0.7224 -0.0491  1.1876
   96MOL   H21625106   7.057   7.825   4.761 -2.1355 -0.2430 -0.1862
   96MOL   H21725107   7.144   7.598   4.791 -1.5813 -4.4562  0.2888
   96MOL   H21825108   7.136   7.308   4.618 -0.4980 -0.9666  1.2441
   96MOL   H21925109   6.970   7.335   4.682 -0.5479  0.7009 -2.5461
   96MOL   H22025110   7.098   7.377   4.785 -1.3642  2.7509  0.2038
   96MOL   H22125111   7.085   7.488   4.405 -1.3898 -1.0125 -1.0263
   96MOL   H22225112   6.997   7.628   4.434  0.3082 -1.0030 -2.1980
   96MOL   C22325113   6.886   7.446   4.435 -0.3264  0.1401 -0.2560
   96MOL   C22425114   6.753   7.503   4.473  0.0628 -0.2736  0.0624
   96MOL   C22525115   6.633   7.480   4.419  0.0018 -0.1802 -0.5490
   96MOL   C22625116   6.504   7.554   4.469 -1.2900  0.7291 -0.1787
   96MOL   C22725117   6.612   7.394   4.300 -1.2278 -0.4187  0.2691
   96MOL   H22825118   6.890   7.345   4.476 -0.4288  0.8208  1.4712
   96MOL   H22925119   6.904   7.424   4.330 -0.6177 -2.3338  0.2028
   96MOL   H23025120   6.760   7.569   4.557  1.5671 -0.8566  0.4040
   96MOL   H23125121   6.487   7.631   4.394 -1.9268 -0.4113 -1.2191
   96MOL   H23225122   6.523   7.587   4.571  2.0194  0.6211 -0.6851
   96MOL   H23325123   6.416   7.490   4.471 -0.9675  0.2705 -0.4667
   96MOL   H23425124   6.523   7.334   4.321 -1.4043  0.8816  3.6217
   96MOL   H23525125   6.697   7.327   4.300  1.1181  2.4448  0.8564
   96MOL   C23625126   6.598   7.470   4.166  0.0603  0.3667  0.4951
   96MOL   C23725127   6.616   7.371   4.050  0.1789  0.5251  0.8556
   96MOL   C23825128   6.653   7.404   3.927 -0.6948  0.5051 -0.7359
   96MOL   C23925129   6.672   7.303   3.818 -0.2104  0.2587 -0.5928
   96MOL   C24025130   6.680   7.550   3.885  0.5547  0.3885  0.6417
   96MOL   H24125131   6.678   7.543   4.155  1.7829 -1.3763  1.2375
   96MOL   H24225132   6.499   7.516   4.158 -1.2221 -2.1527  1.2522
   96MOL   H24325133   6.582   7.271   4.072  0.6157  0.3096  0.5564
   96MOL   H24425134   6.596   7.228   3.840  0.1124  0.3546  0.9147
   96MOL   H24525135   6.769   7.256   3.838 -0.0836  1.3249  1.4808
   96MOL   H24625136   6.654   7.345   3.720 -1.5719  1.7178  0.2671
   96MOL   H24725137   6.634   7.616   3.959 -2.6611 -1.4024  0.2954
   96MOL   H24825138   6.626   7.572   3.793 -0.1554  0.3125  1.0380
   96MOL   C24925139   6.825   7.590   3.865 -0.4561  0.1136  0.0473
   96MOL   C25025140   6.849   7.726   3.804  0.6141 -0.1301  0.2819
   96MOL   C25125141   6.918   7.834   3.856  0.0162  0.8365  0.2781
   96MOL   C25225142   6.938   0.080   3.771 -0.8606 -0.2344 -0.6501
   96MOL   C25325143   6.970   7.840   3.993  0.5469  0.3254 -0.3311
   96MOL   H25425144   6.875   7.523   3.795 -0.5456  0.0623  0.0321
   96MOL   H25525145   6.871   7.584   3.963  0.9668  1.0073 -0.5457
   96MOL   H25625146   6.802   7.729   3.707  0.3240  0.4847  0.4403
   96MOL   H25725147   6.904   0.161   3.835 -1.1715  0.2002 -1.3541
   96MOL   H25825148   6.876   0.076   3.682 -0.7780 -2.5516 -0.6337
   96MOL   H25925149   7.042   0.104   3.746 -0.1367  0.1693  2.5428
   96MOL   H26025150   6.959   7.757   4.063  0.6700  0.3777 -0.2475
   96MOL   H26125151   6.932   0.049   4.046  1.4524  0.0319  0.8257
   96MOL   H26225152   7.079   7.848   3.991  0.6994 -1.7763 -1.3890
   97MOL     C125153   0.934   5.177   3.230  0.2243 -0.0426 -0.2855
   97MOL     C225154   1.070   5.119   3.255  0.4115  0.0095 -0.0206
   97MOL     C325155   1.160   5.084   3.159  0.4584  0.2927  0.4140
   97MOL     C425156   1.297   5.039   3.202 -1.0126  0.1999 -0.2755
   97MOL     C525157   1.129   5.086   3.016  0.1794  0.1422  0.2633
   97MOL     H625158   0.934   5.283   3.205  1.1673 -0.4598 -2.1004
   97MOL     H725159   0.883   5.122   3.151 -0.8635 -0.7458  0.8803
   97MOL     H825160   1.100   5.120   3.358  1.0759  0.9129 -0.2199
   97MOL     H925161   1.340   5.083   3.292  4.0786 -0.7659 -2.0934
   97MOL    H1025162   1.370   5.047   3.121 -0.7591  0.2019 -0.0472
   97MOL    H1125163   1.285   4.934   3.229  0.2470 -0.4291 -2.0533
   97MOL    H1225164   1.191   5.165   2.972 -1.3597  1.1597 -0.1060
   97MOL    H1325165   1.030   5.123   2.992  0.1464  0.7477  1.3141
   97MOL    H1425166   0.867   5.154   3.313 -1.8286  0.3798 -1.7816
   97MOL    C1525167   1.147   4.956   2.942 -0.6062  0.4431 -0.7890
   97MOL    C1625168   1.115   4.959   2.797  0.8409  1.3393  0.3750
   97MOL    C1725169   1.030   4.875   2.739 -1.0695  0.5042 -0.4491
   97MOL    C1825170   0.999   4.880   2.591  0.5319 -0.1645 -0.3874
   97MOL    C1925171   0.946   4.761   2.807 -0.0271 -1.0089 -0.3798
   97MOL    H2025172   1.083   4.887   2.996  2.6006 -0.6205  1.8654
   97MOL    H2125173   1.252   4.925   2.944 -0.4728  0.8837 -0.8947
   97MOL    H2225174   1.165   5.031   2.733  3.1500 -1.8764 -1.6081
   97MOL    H2325175   1.074   4.923   2.524 -0.6582  1.0949 -0.9409
   97MOL    H2425176   0.904   4.930   2.574  1.9784  2.9618  0.3221
   97MOL    H2525177   0.999   4.776   2.558 -0.1326 -0.2371 -0.1605
   97MOL    H2625178   1.003   4.730   2.895  2.6999 -0.1762 -1.7860
   97MOL    H2725179   0.955   4.674   2.741 -0.5751 -1.0368 -0.4206
   97MOL    C2825180   0.802   4.809   2.826  0.0308  0.1585  0.1575
   97MOL    C2925181   0.730   4.720   2.930  0.0154  0.2900 -0.2014
   97MOL    C3025182   0.654   4.612   2.912 -0.2018  0.9127  0.1192
   97MOL    C3125183   0.606   4.534   3.030  0.0467 -0.0025  0.8601
   97MOL    C3225184   0.588   4.573   2.776  0.1580 -0.6084 -0.1793
   97MOL    H3325185   0.756   4.795   2.728  0.1076 -1.8823  0.3962
   97MOL    H3425186   0.802   4.915   2.851  1.2909  0.1724  0.1485
   97MOL    H3525187   0.780   4.731   3.025 -0.8559  0.2077  0.2711
   97MOL    H3625188   0.636   4.431   3.014  3.2379  1.0395 -0.4807
   97MOL    H3725189   0.497   4.532   3.026  0.1282 -0.5170 -1.3873
   97MOL    H3825190   0.653   4.576   3.119  1.9573  0.5853 -0.3794
   97MOL    H3925191   0.610   4.645   2.698 -0.9592  0.1026  0.1482
   97MOL    H4025192   0.484   4.576   2.808 -0.0527  0.3995 -0.9246
   97MOL    C4125193   0.632   4.429   2.731  0.0377  0.8562 -0.0194
   97MOL    C4225194   0.564   4.400   2.601 -0.1881 -0.8750 -0.1243
   97MOL    C4325195   0.447   4.347   2.586 -0.7326 -0.4119 -0.3406
   97MOL    C4425196   0.384   4.346   2.447 -0.3673 -0.2273 -0.2833
   97MOL    C4525197   0.364   4.296   2.706 -0.2413 -0.0255  0.1058
   97MOL    H4625198   0.601   4.362   2.811 -0.1377  0.7433 -0.1831
   97MOL    H4725199   0.740   4.421   2.718 -0.0497 -0.2344 -0.0626
   97MOL    H4825200   0.629   4.442   2.525  2.1694 -2.6973  0.8078
   97MOL    H4925201   0.311   4.266   2.441 -0.5256 -0.0268 -1.0991
   97MOL    H5025202   0.464   4.334   2.374  0.4863 -1.8214  0.8865
   97MOL    H5125203   0.340   4.442   2.419  1.3359  0.9477  0.9452
   97MOL    H5225204   0.433   4.262   2.783  0.4627 -0.9997 -0.9344
   97MOL    H5325205   0.311   4.207   2.669  0.8050 -0.0961 -1.2556
   97MOL    C5425206   0.255   4.389   2.759 -0.1853 -0.0873  0.0089
   97MOL    C5525207   0.160   4.312   2.859 -0.0729 -0.8698  0.3296
   97MOL    C5625208   0.136   4.344   2.987  0.1750 -0.0796  0.2084
   97MOL    C5725209   0.035   4.259   3.060  0.0318 -0.4673  0.2161
   97MOL    C5825210   0.187   4.467   3.061 -0.2431  0.4845 -0.7046
   97MOL    H5925211   0.192   4.414   2.674 -0.5160 -1.6864 -0.2408
   97MOL    H6025212   0.290   4.485   2.798  2.1181 -0.2399 -1.5694
   97MOL    H6125213   0.128   4.217   2.820  0.6485 -0.2552 -1.8649
   97MOL    H6225214   0.083   4.199   3.137 -0.2467  1.5388  1.9951
   97MOL    H6325215   7.865   4.195   2.987  2.1050 -0.8821 -0.8543
   97MOL    H6425216   7.848   4.318   3.123 -1.8641 -1.1261 -1.1210
   97MOL    H6525217   0.103   4.530   3.092  0.2844  0.3182  1.1190
   97MOL    H6625218   0.253   4.537   3.010 -1.7071  2.4349  0.0027
   97MOL    C6725219   0.262   4.438   3.194 -0.0828 -0.8637 -0.3046
   97MOL    C6825220   0.383   4.352   3.189  0.5345  0.5578 -0.0019
   97MOL    C6925221   0.486   4.344   3.274  0.3670  0.5432  0.7658
   97MOL    C7025222   0.586   4.227   3.258 -0.5042 -0.1098  0.6084
   97MOL    C7125223   0.494   4.431   3.396 -0.5280 -0.1676 -0.2660
   97MOL    H7225224   0.192   4.393   3.264  0.8805  1.1930  2.0524
   97MOL    H7325225   0.292   4.537   3.227 -2.0993  0.1926 -1.5094
   97MOL    H7425226   0.385   4.282   3.106  2.0998 -1.9382  2.0391
   97MOL    H7525227   0.603   4.180   3.161  1.0906  1.7688 -0.0530
   97MOL    H7625228   0.564   4.157   3.338  0.3528 -1.1729 -0.0672
   97MOL    H7725229   0.680   4.274   3.286 -1.3234  1.8795  0.1093
   97MOL    H7825230   0.503   4.365   3.482 -0.3189  2.1285  1.5404
   97MOL    H7925231   0.407   4.492   3.423  1.3182  2.6850 -0.4888
   97MOL    C8025232   0.612   4.527   3.396  0.6467 -0.1460  0.1401
   97MOL    C8125233   0.611   4.614   3.520 -0.8090 -0.4279 -0.1497
   97MOL    C8225234   0.678   4.726   3.551 -1.3355 -0.2602  0.4453
   97MOL    C8325235   0.750   4.798   3.437 -0.8847 -0.1240 -0.6894
   97MOL    C8425236   0.672   4.786   3.688 -0.3049 -0.3072 -0.4371
   97MOL    H8525237   0.605   4.593   3.309  1.7296  0.4884  0.5159
   97MOL    H8625238   0.706   4.472   3.398  1.0316  0.4080 -1.7008
   97MOL    H8725239   0.554   4.566   3.598 -0.2769 -1.5590 -0.4514
   97MOL    H8825240   0.841   4.856   3.455 -2.9957  3.9724 -2.3876
   97MOL    H8925241   0.678   4.864   3.390 -2.7426 -1.3800  0.3491
   97MOL    H9025242   0.774   4.725   3.359  0.3799 -2.1297  1.5368
   97MOL    H9125243   0.774   4.808   3.722 -0.9885 -0.5570  1.8395
   97MOL    H9225244   0.636   4.710   3.757  0.1653 -1.0896 -1.0589
   97MOL    C9325245   0.580   4.907   3.686 -0.3050  0.4014 -0.5188
   97MOL    C9425246   0.525   4.942   3.827 -0.0503  0.5746  1.0156
   97MOL    C9525247   0.392   4.939   3.864 -0.5356 -0.9832  0.8346
   97MOL    C9625248   0.350   4.958   4.010 -0.2306 -0.4001 -0.0975
   97MOL    C9725249   0.281   4.924   3.770  0.7395  0.0143 -0.0141
   97MOL    H9825250   0.503   4.902   3.609  0.0048  0.1536 -0.8103
   97MOL    H9925251   0.641   4.993   3.657 -0.9379  0.5362 -1.4602
   97MOL   H10025252   0.601   4.971   3.898  0.0993 -1.5765  1.7854
   97MOL   H10125253   0.278   4.882   4.041  1.6311 -2.1957 -0.1191
   97MOL   H10225254   0.427   4.950   4.087  0.3608  2.7081 -0.2762
   97MOL   H10325255   0.301   5.054   4.030  0.9194  0.3254 -0.6864
   97MOL   H10425256   0.322   4.936   3.670  1.7863  2.8775  0.6985
   97MOL   H10525257   0.216   5.012   3.772 -0.8040 -1.1015  2.0274
   97MOL   C10625258   0.215   4.786   3.782  0.4925 -0.4235 -0.5158
   97MOL   C10725259   0.079   4.787   3.715  0.3144 -0.6292 -0.0227
   97MOL   C10825260   0.048   4.703   3.615 -0.6172 -0.7192  0.3373
   97MOL   C10925261   0.147   4.601   3.556  0.3881  0.3866 -0.2211
   97MOL   C11025262   7.786   4.695   3.559 -0.0086  0.4290 -0.4119
   97MOL   H11125263   0.193   4.771   3.887 -2.4009 -0.1393 -1.0447
   97MOL   H11225264   0.282   4.706   3.751  2.0505  0.8627 -0.5701
   97MOL   H11325265   0.003   4.850   3.760 -2.0270 -3.3822  0.0245
   97MOL   H11425266   0.129   4.499   3.589 -0.8349  0.1348 -1.6106
   97MOL   H11525267   0.129   4.610   3.449 -2.5664  1.7767  0.3420
   97MOL   H11625268   0.252   4.623   3.573  0.0388  0.5023  1.9346
   97MOL   H11725269   7.719   4.719   3.641 -0.6013 -0.0440 -0.7567
   97MOL   H11825270   7.762   4.591   3.537 -2.2036  0.7544  0.3177
   97MOL   C11925271   7.766   4.811   3.455 -0.1944  0.1735 -0.3848
   97MOL   C12025272   7.630   4.800   3.395 -0.5121  0.4193  0.0048
   97MOL   C12125273   7.595   4.753   3.278 -0.3495 -0.4289  0.4605
   97MOL   C12225274   7.448   4.766   3.228  0.2814  0.1557 -0.6976
   97MOL   C12325275   7.680   4.685   3.178  0.5310  0.2080 -0.7986
   97MOL   H12425276   7.846   4.813   3.381  0.0804 -0.0229 -0.0922
   97MOL   H12525277   7.774   4.911   3.499 -1.2413 -0.1334  0.5275
   97MOL   H12625278   7.545   4.834   3.452 -0.9454  1.8855 -1.4985
   97MOL   H12725279   7.407   4.665   3.218 -1.7394  0.7246  1.3165
   97MOL   H12825280   7.440   4.818   3.133  2.0006 -0.6506 -1.2962
   97MOL   H12925281   7.382   4.810   3.304  2.0158  1.4756  0.0672
   97MOL   H13025282   7.628   4.596   3.144 -0.7231  0.2921  0.8627
   97MOL   H13125283   7.763   4.651   3.240  0.3675 -0.1831 -0.7936
   97MOL   C13225284   7.705   4.793   3.070 -0.0072 -0.9340  0.1664
   97MOL   C13325285   7.816   4.748   2.974 -0.0848  0.2347 -0.3504
   97MOL   C13425286   0.029   4.819   2.911  0.5460  0.8802 -0.3350
   97MOL   C13525287   0.119   4.749   2.812  0.2376 -0.4155  0.3622
   97MOL   C13625288   0.053   4.971   2.940  0.2336  0.4544 -0.5783
   97MOL   H13725289   7.718   4.891   3.116 -1.0378 -0.2869 -0.8972
   97MOL   H13825290   7.613   4.808   3.014  0.4123 -2.0753 -0.8303
   97MOL   H13925291   7.819   4.641   2.959 -1.4523 -0.0301  1.1712
   97MOL   H14025292   0.217   4.756   2.859 -1.0017  1.4119  2.8150
   97MOL   H14125293   0.110   4.806   2.719  0.4350  1.2707  1.3422
   97MOL   H14225294   0.096   4.645   2.791 -1.6537 -0.8646  4.2310
   97MOL   H14325295   0.151   4.993   2.981  0.8585 -1.6223 -0.9239
   97MOL   H14425296   7.863   4.985   3.023  1.6025 -0.4701  0.7251
   97MOL   C14525297   0.023   5.056   2.809  0.7863  0.2498 -0.3133
   97MOL   C14625298   0.047   5.208   2.824 -0.0089 -0.4208 -0.4253
   97MOL   C14725299   7.844   5.305   2.767  0.5889  0.1336  0.2412
   97MOL   C14825300   7.853   5.459   2.781 -0.7390 -0.9598  0.3214
   97MOL   C14925301   7.717   5.268   2.696  0.5333 -0.2119  0.2954
   97MOL   H15025302   7.805   5.037   2.765  0.5925  1.4920 -0.4397
   97MOL   H15125303   0.095   5.028   2.732  0.9743 -0.7753  0.2177
   97MOL   H15225304   0.136   5.231   2.881 -0.4636 -1.7710  0.8515
   97MOL   H15325305   7.864   5.510   2.686 -1.3029  2.0097  1.7886
   97MOL   H15425306   0.065   5.481   2.839  0.2685 -3.5626 -0.2022
   97MOL   H15525307   7.765   5.494   2.836 -0.5254 -1.3704  0.9393
   97MOL   H15625308   7.734   5.173   2.646  1.2638  0.4400 -0.7154
   97MOL   H15725309   7.701   5.341   2.616  2.6535  2.4736  2.2181
   97MOL   C15825310   7.599   5.247   2.797  0.6044  0.2177 -0.2656
   97MOL   C15925311   7.473   5.189   2.730 -0.1488  0.0148  0.2274
   97MOL   C16025312   7.417   5.066   2.739 -0.2271 -0.7828  0.2314
   97MOL   C16125313   7.482   4.956   2.824  0.1772 -0.0522 -0.5996
   97MOL   C16225314   7.279   5.029   2.677  0.5151 -0.2743  0.7419
   97MOL   H16325315   7.561   5.340   2.840 -0.3656 -1.5420  2.7674
   97MOL   H16425316   7.635   5.189   2.881 -0.9547  2.1552  1.8186
   97MOL   H16525317   7.413   5.260   2.675  1.4370  2.0492  1.0430
   97MOL   H16625318   7.563   4.991   2.887 -1.2296  1.3560  0.4449
   97MOL   H16725319   7.522   4.883   2.753  1.5121  0.7770 -0.7247
   97MOL   H16825320   7.417   4.898   2.890  1.2469 -0.8534 -0.2284
   97MOL   H16925321   7.257   5.107   2.604  1.7818  0.4380  1.1192
   97MOL   H17025322   7.211   5.029   2.762 -0.1503  1.8065  0.2315
   97MOL   C17125323   7.298   4.905   2.587  0.3526  0.1206 -0.0708
   97MOL   C17225324   7.167   4.874   2.514 -0.1241  0.4410 -1.1071
   97MOL   C17325325   7.121   4.922   2.399 -0.1905 -0.0237 -0.0214
   97MOL   C17425326   7.216   4.997   2.299  0.2842 -0.1340 -0.0326
   97MOL   C17525327   6.986   4.890   2.342  0.8802 -0.4161  0.4042
   97MOL   H17625328   7.325   4.819   2.648  1.7591  0.6128  0.0073
   97MOL   H17725329   7.377   4.921   2.515 -0.3508  0.2964 -0.8142
   97MOL   H17825330   7.085   4.829   2.569 -0.6554  0.6319 -1.7364
   97MOL   H17925331   7.317   4.962   2.320  0.0843 -1.1444 -0.7287
   97MOL   H18025332   7.212   5.105   2.312 -0.3761 -0.1074 -0.4541
   97MOL   H18125333   7.177   4.972   2.200 -0.6759  0.3302  0.2269
   97MOL   H18225334   6.934   4.816   2.403 -0.8584 -0.2275 -0.8160
   97MOL   H18325335   6.982   4.848   2.241 -3.7381  0.7703 -0.0124
   97MOL   C18425336   6.896   5.013   2.336 -0.2392 -0.6045 -0.6765
   97MOL   C18525337   6.752   4.980   2.294 -0.2665 -0.2366 -0.5550
   97MOL   C18625338   6.634   4.998   2.358  0.1418  0.6139  0.1271
   97MOL   C18725339   6.498   4.951   2.299 -0.2279  0.0288  0.1139
   97MOL   C18825340   6.635   5.068   2.500 -0.3516 -0.1184  0.2579
   97MOL   H18925341   6.932   5.086   2.263  0.0998 -0.5382 -0.4430
   97MOL   H19025342   6.901   5.068   2.429  0.2488 -1.0897 -0.4111
   97MOL   H19125343   6.749   4.939   2.194  0.7506  1.5220 -1.3304
   97MOL   H19225344   6.425   5.031   2.287 -0.9345 -0.4561  1.1711
   97MOL   H19325345   6.453   4.875   2.363  1.3019 -2.4993 -1.6960
   97MOL   H19425346   6.511   4.901   2.203 -0.3571  0.6118 -0.2075
   97MOL   H19525347   6.731   5.049   2.549  0.0610 -3.1461 -1.5661
   97MOL   H19625348   6.573   5.023   2.577  0.3083 -3.7834 -1.2512
   97MOL   C19725349   6.600   5.217   2.487  0.1387  0.2871  0.2910
   97MOL   C19825350   6.603   5.277   2.627  0.1985  0.1468 -0.1553
   97MOL   C19925351   6.687   5.367   2.676  0.1673 -0.1474 -0.7023
   97MOL   C20025352   6.671   5.405   2.815  0.6495 -0.1549 -0.3835
   97MOL   C20125353   6.805   5.415   2.599 -0.2210  0.2194  0.1220
   97MOL   H20225354   6.498   5.218   2.447  0.0615 -0.0811  0.4740
   97MOL   H20325355   6.657   5.259   2.405 -0.1940  0.2277  0.0257
   97MOL   H20425356   6.522   5.240   2.688 -0.8645 -1.7168 -2.6167
   97MOL   H20525357   6.696   5.510   2.828  0.7300 -0.1935 -0.2195
   97MOL   H20625358   6.722   5.338   2.884 -0.2983 -0.7943 -0.2858
   97MOL   H20725359   6.568   5.392   2.848  0.2135  0.2594 -1.5610
   97MOL   H20825360   6.813   5.520   2.629  0.1483  0.4114 -0.6131
   97MOL   H20925361   6.792   5.417   2.491  2.2864 -0.0269 -0.2226
   97MOL   C21025362   6.926   5.324   2.615  0.0606 -0.4481  0.5219
   97MOL   C21125363   7.050   5.414   2.632  0.1097 -0.3431  0.2742
   97MOL   C21225364   7.150   5.432   2.544  0.4347  0.0234  0.2551
   97MOL   C21325365   7.276   5.505   2.583 -0.4507  0.1531  0.0555
   97MOL   C21425366   7.156   5.378   2.399 -0.5892  0.2902 -0.8252
   97MOL   H21525367   6.942   5.264   2.526  0.7566  0.7461 -0.1809
   97MOL   H21625368   6.912   5.271   2.709  1.3688  0.6222  1.3352
   97MOL   H21725369   7.059   5.463   2.727  1.9868  1.1873 -0.6646
   97MOL   H21825370   7.262   5.551   2.681 -2.4985  1.3081 -0.7504
   97MOL   H21925371   7.285   5.589   2.514  0.9771 -0.3360 -0.3731
   97MOL   H22025372   7.368   5.448   2.579 -0.6358 -0.0997 -0.8042
   97MOL   H22125373   7.140   5.271   2.411 -2.6047  0.5175 -1.1805
   97MOL   H22225374   7.251   5.396   2.349  1.0557  0.9370  2.3741
   97MOL   C22325375   7.046   5.451   2.317 -0.2562 -0.2227  0.2750
   97MOL   C22425376   7.005   5.369   2.197 -0.0058 -0.2939  0.2525
   97MOL   C22525377   6.895   5.396   2.122  0.2791 -0.0669 -0.1125
   97MOL   C22625378   6.875   5.323   1.993 -0.1289  0.1533  0.2765
   97MOL   C22725379   6.784   5.497   2.161  0.1570  0.7475 -0.0327
   97MOL   H22825380   7.088   5.543   2.278  0.5923 -0.3678  0.8319
   97MOL   H22925381   6.958   5.470   2.379  1.1146 -0.6915  2.4250
   97MOL   H23025382   7.085   5.306   2.160  0.7555  0.4966  0.5579
   97MOL   H23125383   6.959   5.268   1.951  0.2121  1.1546 -0.3693
   97MOL   H23225384   6.823   5.387   1.922  1.2633 -0.7613 -1.5897
   97MOL   H23325385   6.796   5.248   2.003 -1.7341  1.6278 -1.0060
   97MOL   H23425386   6.773   5.499   2.269 -1.2478 -1.8245 -0.0757
   97MOL   H23525387   6.689   5.458   2.125  0.6096 -0.6801  0.2811
   97MOL   C23625388   6.812   5.636   2.122 -0.0160  0.2797  0.1202
   97MOL   C23725389   6.694   5.740   2.134 -0.5327  0.0926  0.2756
   97MOL   C23825390   6.679   5.845   2.220  0.2518  0.4015  0.3801
   97MOL   C23925391   6.565   5.940   2.195 -0.2348 -0.4017 -0.0423
   97MOL   C24025392   6.782   5.877   2.329  0.1365 -0.1642  0.2680
   97MOL   H24125393   6.865   5.657   2.029 -1.4131  1.2128 -0.4777
   97MOL   H24225394   6.899   5.656   2.186  0.2851  2.3464 -0.8861
   97MOL   H24325395   6.620   5.737   2.056  0.8853  0.1169 -1.0908
   97MOL   H24425396   6.508   5.900   2.112 -0.0749 -3.5673  1.3094
   97MOL   H24525397   6.591   6.044   2.171 -0.0148 -0.9531 -2.3411
   97MOL   H24625398   6.497   5.946   2.279 -1.2439 -0.6532 -0.8395
   97MOL   H24725399   6.832   5.970   2.304  1.0921 -1.1919 -1.7802
   97MOL   H24825400   6.858   5.799   2.334  0.9200  0.5983  0.4664
   97MOL   C24925401   6.718   5.884   2.465  0.5662 -0.3872 -0.9529
   97MOL   C25025402   6.816   5.951   2.553 -0.0721  0.2077  0.1335
   97MOL   C25125403   6.821   6.072   2.602  0.5787  0.3354 -1.0161
   97MOL   C25225404   6.928   6.108   2.699  0.4597 -0.1787 -0.1094
   97MOL   C25325405   6.723   6.188   2.579  0.2293  0.1167  0.8475
   97MOL   H25425406   6.689   5.782   2.492 -1.0312  0.2323 -0.2985
   97MOL   H25525407   6.622   5.934   2.456  0.4126 -0.6884 -0.9903
   97MOL   H25625408   6.898   5.890   2.589  1.9938  2.7325 -0.1907
   97MOL   H25725409   6.988   6.182   2.647 -0.4186  0.5083 -0.1654
   97MOL   H25825410   6.989   6.018   2.707  1.8851  0.6630 -1.2747
   97MOL   H25925411   6.891   6.152   2.792  0.0993 -0.2332 -0.2235
   97MOL   H26025412   6.662   6.161   2.494  1.0568  0.3550  0.1721
   97MOL   H26125413   6.778   6.282   2.582 -0.2631  0.4075  0.8318
   97MOL   H26225414   6.639   6.198   2.648 -0.5738 -0.1242 -0.0814
   98MOL     C125415   0.795   6.099   5.637  0.0954  0.3426 -0.2082
   98MOL     C225416   0.877   5.981   5.672  0.4166  0.1205  0.2370
   98MOL     C325417   0.919   5.946   5.795  0.7795  0.0194  0.7220
   98MOL     C425418   1.000   5.819   5.829  0.2449 -0.0861  0.4261
   98MOL     C525419   0.899   6.030   5.924 -0.8810  0.0604  0.3785
   98MOL     H625420   0.833   6.149   5.548 -2.2011  0.5326 -1.0965
   98MOL     H725421   0.692   6.066   5.630  0.5694 -0.7606 -2.3277
   98MOL     H825422   0.905   5.922   5.585  3.5950  0.6708  0.8497
   98MOL     H925423   1.108   5.836   5.826 -0.0460  1.5727 -2.9150
   98MOL    H1025424   0.986   5.732   5.765  0.6161  0.3629 -0.2734
   98MOL    H1125425   0.969   5.786   5.929 -1.7191 -1.5207 -0.6346
   98MOL    H1225426   0.888   5.962   6.009 -2.1863 -0.0015  0.1614
   98MOL    H1325427   0.801   6.078   5.917 -1.1016  0.0345  2.8251
   98MOL    H1425428   0.794   6.179   5.711 -0.1915  0.2995 -0.1655
   98MOL    C1525429   1.007   6.138   5.936  0.1763  0.2355 -0.0138
   98MOL    C1625430   0.987   6.204   6.069 -0.0173 -0.1507  0.1096
   98MOL    C1725431   1.090   6.249   6.154 -0.4394  0.8056 -0.1971
   98MOL    C1825432   1.052   6.325   6.283  0.2517 -0.4109 -0.3802
   98MOL    C1925433   1.238   6.232   6.132 -0.5477 -0.0093 -0.1298
   98MOL    H2025434   0.999   6.218   5.864 -2.1409  1.0875  1.1412
   98MOL    H2125435   1.108   6.100   5.922  0.5034  1.2944 -0.5638
   98MOL    H2225436   0.886   6.222   6.103  0.1249  0.6553  0.1181
   98MOL    H2325437   1.104   6.419   6.299 -1.7304  0.5658  0.4011
   98MOL    H2425438   1.074   6.271   6.376  0.6928 -1.8029 -1.2791
   98MOL    H2525439   0.946   6.347   6.291  0.7431  1.9239  0.0399
   98MOL    H2625440   1.292   6.317   6.173  2.5490 -0.6381 -2.6941
   98MOL    H2725441   1.253   6.235   6.024 -2.6255  1.7668 -0.4004
   98MOL    C2825442   1.292   6.092   6.176 -0.6476 -0.0877  0.1626
   98MOL    C2925443   1.443   6.088   6.158  0.1233  0.6075 -0.1300
   98MOL    C3025444   1.508   6.069   6.042  0.3529  0.1978 -0.4264
   98MOL    C3125445   1.656   6.064   6.053 -0.5563 -0.4272 -0.1489
   98MOL    C3225446   1.435   6.038   5.909  0.3156 -0.0890  0.1921
   98MOL    H3325447   1.245   6.019   6.109  0.8072 -1.8794  1.0551
   98MOL    H3425448   1.263   6.058   6.275 -2.5590 -2.2201 -1.0654
   98MOL    H3525449   1.498   6.100   6.250  0.6325 -1.3856 -0.1525
   98MOL    H3625450   1.683   5.961   6.034 -0.9191 -1.0980  2.7454
   98MOL    H3725451   1.690   6.094   6.153 -0.3044  2.0892 -0.9429
   98MOL    H3825452   1.693   6.128   5.974 -1.1549 -1.6960 -1.4680
   98MOL    H3925453   1.464   6.105   5.829 -1.2972 -0.6960 -0.9232
   98MOL    H4025454   1.326   6.041   5.913  0.3678  1.0164  1.0814
   98MOL    C4125455   1.469   5.887   5.864  0.0930 -0.0097 -0.3476
   98MOL    C4225456   1.391   5.838   5.740  0.6557  0.2503 -0.5002
   98MOL    C4325457   1.438   5.744   5.658 -0.2494  1.0302 -0.1308
   98MOL    C4425458   1.354   5.711   5.535 -0.2061  0.2913  0.3105
   98MOL    C4525459   1.574   5.678   5.678  0.2312  0.0741 -0.2257
   98MOL    H4625460   1.439   5.819   5.943 -1.4545 -2.8393 -3.2679
   98MOL    H4725461   1.577   5.878   5.855  0.0862 -0.2500 -0.1899
   98MOL    H4825462   1.297   5.887   5.717  0.3544 -0.4037 -0.6647
   98MOL    H4925463   1.264   5.772   5.533  0.4552  1.2689  0.2923
   98MOL    H5025464   1.339   5.603   5.527 -0.3274  0.2859  0.6117
   98MOL    H5125465   1.415   5.738   5.449  1.1478 -2.8324  0.2138
   98MOL    H5225466   1.553   5.573   5.661 -2.1129  0.3970  0.4550
   98MOL    H5325467   1.616   5.693   5.777  0.4590 -0.3873 -0.2520
   98MOL    C5425468   1.680   5.733   5.576  0.5687 -0.0389  0.7232
   98MOL    C5525469   1.809   5.656   5.599  0.1652  0.0051 -0.0002
   98MOL    C5625470   1.933   5.700   5.623 -0.1751 -0.6115  0.5116
   98MOL    C5725471   2.043   5.598   5.638 -0.2252 -0.8034  0.4185
   98MOL    C5825472   1.971   5.846   5.630  0.3895 -0.2822 -0.6179
   98MOL    H5925473   1.698   5.841   5.582 -0.1545  0.1657 -0.6782
   98MOL    H6025474   1.666   5.704   5.472 -2.0000 -0.2627  1.0933
   98MOL    H6125475   1.798   5.548   5.601  3.9586 -0.4801 -1.3462
   98MOL    H6225476   2.093   5.612   5.542 -0.2928 -1.6165  0.2643
   98MOL    H6325477   2.013   5.493   5.634  2.2880 -1.5668  0.4782
   98MOL    H6425478   2.104   5.628   5.723  2.2700  0.4929 -1.7440
   98MOL    H6525479   1.882   5.901   5.600  1.2033  0.5243 -1.5678
   98MOL    H6625480   2.053   5.867   5.562  0.1327  1.3240 -0.4554
   98MOL    C6725481   2.007   5.896   5.774 -0.0098  0.3331 -0.0214
   98MOL    C6825482   2.046   6.039   5.790  0.7572 -0.5161 -0.3037
   98MOL    C6925483   2.080   6.100   5.907  0.3209  0.2402  0.2785
   98MOL    C7025484   2.112   6.253   5.901  0.0767  0.6694  0.3051
   98MOL    C7125485   2.070   6.033   6.040  0.3441 -0.1342  0.1828
   98MOL    H7225486   2.102   5.844   5.788 -0.7022 -1.4483 -1.6698
   98MOL    H7325487   1.938   5.860   5.850 -1.0938  1.0713 -0.6362
   98MOL    H7425488   2.036   6.103   5.703 -2.7719  0.7731  0.9696
   98MOL    H7525489   2.206   6.280   5.948  0.0259 -0.0520  0.8305
   98MOL    H7625490   2.029   6.301   5.954 -0.9164  1.2483 -1.7245
   98MOL    H7725491   2.112   6.292   5.799  0.7922 -0.5730 -0.1826
   98MOL    H7825492   2.011   5.942   6.029  1.1355 -0.5082 -1.1364
   98MOL    H7925493   2.017   6.102   6.104 -1.4403  0.0277 -1.4441
   98MOL    C8025494   2.210   5.994   6.089  0.3954  0.4698  0.8306
   98MOL    C8125495   2.210   5.964   6.239 -0.8853  0.0877  0.1303
   98MOL    C8225496   2.287   6.017   6.335  0.3160  1.0876 -0.6873
   98MOL    C8325497   2.372   6.145   6.316 -0.0345  0.4696  0.3952
   98MOL    C8425498   2.281   5.973   6.482 -0.5955 -0.2340 -0.1963
   98MOL    H8525499   2.282   6.076   6.089  0.8292  0.1767 -2.5580
   98MOL    H8625500   2.248   5.902   6.045  0.1613  0.8897 -0.2695
   98MOL    H8725501   2.153   5.876   6.264 -2.4930  0.8871 -0.6274
   98MOL    H8825502   2.451   6.138   6.241 -1.4419  1.7121 -1.2398
   98MOL    H8925503   2.419   6.164   6.412 -2.5904  1.7034  1.4645
   98MOL    H9025504   2.312   6.234   6.296  2.4168  1.7206 -1.7573
   98MOL    H9125505   2.266   6.062   6.543 -0.1157  0.2577 -0.7925
   98MOL    H9225506   2.381   5.934   6.499 -1.8867 -3.9496 -0.6055
   98MOL    C9325507   2.172   5.880   6.530  0.4702  0.1209 -0.1292
   98MOL    C9425508   2.160   5.892   6.678 -0.0195  0.3987 -0.1859
   98MOL    C9525509   2.216   5.814   6.769  0.4766 -0.1031  0.0204
   98MOL    C9625510   2.213   5.848   6.920 -0.2404  0.4546  0.4240
   98MOL    C9725511   2.318   5.704   6.724  0.0624 -0.5049  0.2951
   98MOL    H9825512   2.193   5.777   6.499  1.3993  0.5854 -1.0981
   98MOL    H9925513   2.077   5.904   6.483  0.2729  1.0488  0.7381
   98MOL   H10025514   2.094   5.972   6.708 -1.4690 -1.1711  0.9426
   98MOL   H10125515   2.212   5.754   6.976  0.8617  0.4994  0.5293
   98MOL   H10225516   2.301   5.910   6.938  1.4821 -1.3409 -1.5843
   98MOL   H10325517   2.125   5.911   6.936  1.2244  2.3354  1.2677
   98MOL   H10425518   2.412   5.705   6.779  0.4090  2.2945 -0.2586
   98MOL   H10525519   2.359   5.712   6.624 -0.3113  1.1279  0.2611
   98MOL   C10625520   2.253   5.568   6.739  1.5527 -0.4270  0.4736
   98MOL   C10725521   2.189   5.527   6.607 -0.7537  0.2880 -0.2480
   98MOL   C10825522   2.236   5.432   6.526 -0.0838 -0.1559 -0.3170
   98MOL   C10925523   2.371   5.365   6.542  0.1532  0.3058  0.6249
   98MOL   C11025524   2.155   5.370   6.412 -0.9743 -0.2165 -0.1885
   98MOL   H11125525   2.186   5.563   6.825 -0.3168 -2.6591 -1.0399
   98MOL   H11225526   2.333   5.499   6.765  1.7526  0.7384  3.1071
   98MOL   H11325527   2.090   5.570   6.594 -0.5102  0.2569 -2.3760
   98MOL   H11425528   2.452   5.436   6.559  0.4976  0.2261 -0.6411
   98MOL   H11525529   2.381   5.281   6.611 -1.7204 -0.0367  0.5084
   98MOL   H11625530   2.391   5.340   6.438 -0.5367 -0.0774  0.5836
   98MOL   H11725531   2.200   5.371   6.313  0.5687  2.3790  0.4899
   98MOL   H11825532   2.075   5.442   6.401  0.5935  1.9528  1.9174
   98MOL   C11925533   2.106   5.224   6.440  0.3881  0.0070 -0.2400
   98MOL   C12025534   1.994   5.180   6.349 -0.2545 -0.3571  0.3181
   98MOL   C12125535   1.863   5.190   6.364  0.0461 -0.0702 -0.5471
   98MOL   C12225536   1.755   5.144   6.268 -0.0830  1.0107  0.3300
   98MOL   C12325537   1.792   5.254   6.488  0.0038  0.1110  0.4078
   98MOL   H12425538   2.078   5.213   6.545 -0.9652  0.3571 -0.5590
   98MOL   H12525539   2.194   5.161   6.432  1.8542  1.8020  1.1890
   98MOL   H12625540   2.025   5.136   6.256 -1.7225  0.6304 -0.6497
   98MOL   H12725541   1.694   5.230   6.239  1.0290  1.7527  0.1518
   98MOL   H12825542   1.689   5.071   6.315  0.9217  1.7811  3.0138
   98MOL   H12925543   1.797   5.090   6.184  0.7014 -0.7036  1.8038
   98MOL   H13025544   1.846   5.244   6.582 -0.2748  2.9172  0.8947
   98MOL   H13125545   1.704   5.190   6.501  1.4789 -2.4916 -1.7459
   98MOL   C13225546   1.748   5.406   6.476 -0.0810  0.5775  0.3010
   98MOL   C13325547   1.640   5.451   6.577 -0.8621  0.0148 -0.3615
   98MOL   C13425548   1.670   5.530   6.684  0.4761  0.0824  0.5687
   98MOL   C13525549   1.561   5.567   6.779 -0.1161 -0.3137 -0.0904
   98MOL   C13625550   1.807   5.594   6.708  0.3261 -0.5863 -0.2257
   98MOL   H13725551   1.710   5.440   6.379  0.7824  3.6246  0.9863
   98MOL   H13825552   1.838   5.467   6.486 -0.3010  1.3524 -2.0984
   98MOL   H13925553   1.541   5.408   6.577 -0.2977 -1.3174  0.3325
   98MOL   H14025554   1.593   5.560   6.883  0.4386  3.7459  0.0879
   98MOL   H14125555   1.480   5.495   6.770  2.2082 -3.0791  0.0593
   98MOL   H14225556   1.531   5.670   6.763  1.2559  0.2588  0.9458
   98MOL   H14325557   1.885   5.521   6.687 -1.1602 -2.5569  0.9043
   98MOL   H14425558   1.830   5.589   6.814  0.3101 -0.4450 -0.2151
   98MOL   C14525559   1.819   5.729   6.642  0.1089  0.5759  0.7407
   98MOL   C14625560   1.851   5.732   6.488 -0.1518  0.3058 -0.0289
   98MOL   C14725561   1.809   5.823   6.397  0.9754  0.5477 -0.1690
   98MOL   C14825562   1.841   5.812   6.250 -0.1379 -0.0821  0.5118
   98MOL   C14925563   1.725   5.946   6.426 -0.5702  0.0571 -0.1288
   98MOL   H15025564   1.902   5.782   6.690  0.9013 -1.5857  1.8554
   98MOL   H15125565   1.729   5.788   6.661  0.7026  1.6343  0.3038
   98MOL   H15225566   1.919   5.658   6.451  0.1149  0.2279  0.6091
   98MOL   H15325567   1.915   5.733   6.242  0.6571  0.8306 -1.4047
   98MOL   H15425568   1.860   5.909   6.205 -0.8616 -0.8806 -1.5924
   98MOL   H15525569   1.744   5.789   6.205 -0.0057  0.6009 -0.1282
   98MOL   H15625570   1.648   5.925   6.501 -0.1237  2.7145  1.1106
   98MOL   H15725571   1.665   5.957   6.336 -1.4315  1.9774  0.6624
   98MOL   C15825572   1.808   6.073   6.461 -0.2516 -0.5244 -0.1923
   98MOL   C15925573   1.723   6.200   6.463  0.4037  0.2468 -0.4372
   98MOL   C16025574   1.742   6.316   6.395 -0.5280 -0.5523 -0.2241
   98MOL   C16125575   1.866   6.344   6.304 -0.5112 -0.8055 -0.5541
   98MOL   C16225576   1.643   6.435   6.405 -0.2927  0.5807  0.8292
   98MOL   H16325577   1.888   6.082   6.388  0.1351  1.2181  0.4307
   98MOL   H16425578   1.842   6.059   6.563 -2.1173 -0.6754  0.4293
   98MOL   H16525579   1.643   6.197   6.535  1.5954 -2.9762  0.8373
   98MOL   H16625580   1.832   6.330   6.201 -1.2582  1.5325 -0.6571
   98MOL   H16725581   1.946   6.270   6.313  0.0210 -0.5052 -2.5800
   98MOL   H16825582   1.900   6.447   6.311 -0.4929 -0.7684 -1.1419
   98MOL   H16925583   1.693   6.528   6.430  1.8463 -0.7486  1.6145
   98MOL   H17025584   1.575   6.413   6.487  0.7231  2.2097  2.1244
   98MOL   C17125585   1.557   6.463   6.281  0.4286  0.6707 -0.5221
   98MOL   C17225586   1.442   6.556   6.334  0.3005  0.2252  0.0803
   98MOL   C17325587   1.442   6.692   6.315  0.1408  0.3962  0.1265
   98MOL   C17425588   1.545   6.763   6.235  0.3774 -0.1932 -0.1980
   98MOL   C17525589   1.323   6.773   6.356 -1.2163  0.5039 -0.4783
   98MOL   H17625590   1.515   6.370   6.242  1.0660  0.9853 -1.9782
   98MOL   H17725591   1.626   6.508   6.210  0.4731  1.4876  0.0388
   98MOL   H17825592   1.359   6.513   6.387  0.7356  0.8991  1.3257
   98MOL   H17925593   1.640   6.715   6.256  0.4441  0.6038  1.4451
   98MOL   H18025594   1.556   6.868   6.264 -1.4980 -0.0599  0.0869
   98MOL   H18125595   1.521   6.749   6.130 -1.1483  1.9641 -0.1680
   98MOL   H18225596   1.367   6.862   6.401  1.6962 -0.8869 -0.4394
   98MOL   H18325597   1.266   6.716   6.429  0.1361 -0.9840 -0.5448
   98MOL   C18425598   1.236   6.825   6.239  0.2537  0.5486  0.6717
   98MOL   C18525599   1.129   6.918   6.283 -0.1084  0.3376  0.3788
   98MOL   C18625600   1.132   7.049   6.288  0.5609 -0.4266  0.3660
   98MOL   C18725601   1.022   7.132   6.343 -0.4396  0.0582  0.0817
   98MOL   C18825602   1.255   7.135   6.256 -0.3204 -0.1234 -0.3936
   98MOL   H18925603   1.182   6.736   6.206 -0.0593  1.6126 -1.8073
   98MOL   H19025604   1.302   6.852   6.156  1.9940 -1.2470  1.4144
   98MOL   H19125605   1.036   6.874   6.316 -0.7627  1.5619  0.2072
   98MOL   H19225606   0.944   7.071   6.389  0.9341 -0.1043  2.2872
   98MOL   H19325607   0.975   7.193   6.266  0.9482  0.8198 -0.1716
   98MOL   H19425608   1.060   7.197   6.422 -1.1871  0.6230 -0.0258
   98MOL   H19525609   1.342   7.072   6.274  0.3229  0.9159  0.1786
   98MOL   H19625610   1.271   7.224   6.317 -0.7047 -0.1440 -0.2612
   98MOL   C19725611   1.246   7.175   6.101 -0.7781 -0.2777 -0.3927
   98MOL   C19825612   1.361   7.267   6.058  0.0450  0.3433  0.0319
   98MOL   C19925613   1.354   7.369   5.967  0.1810 -0.0232 -0.3989
   98MOL   C20025614   1.475   7.438   5.911 -0.5413  0.6049  0.2785
   98MOL   C20125615   1.221   7.413   5.903 -0.0469  0.3892  0.6182
   98MOL   H20225616   1.158   7.238   6.088 -0.7300  0.0188  0.7114
   98MOL   H20325617   1.241   7.083   6.042  2.4678 -1.8103  1.5824
   98MOL   H20425618   1.457   7.234   6.094  0.4262  0.3973 -0.9194
   98MOL   H20525619   1.493   7.428   5.804  1.1782  0.9664  0.5122
   98MOL   H20625620   1.566   7.405   5.962  0.0954  0.2834 -1.0361
   98MOL   H20725621   1.456   7.543   5.931  0.7254  0.4576  2.4781
   98MOL   H20825622   1.137   7.346   5.922 -0.9489  1.0842 -0.8815
   98MOL   H20925623   1.228   7.420   5.794 -1.2799 -0.9672  0.4416
   98MOL   C21025624   1.175   7.552   5.951  0.2095 -0.3243  0.4118
   98MOL   C21125625   1.071   7.611   5.860  0.6065  0.2391 -0.2676
   98MOL   C21225626   0.955   7.674   5.899  0.2501  0.0636 -0.1552
   98MOL   C21325627   0.857   7.726   5.798  0.0360  0.1841  0.0266
   98MOL   C21425628   0.898   7.672   6.041  0.3551  0.5076  0.0967
   98MOL   H21525629   1.258   7.622   5.949  0.5618 -0.7048  1.3227
   98MOL   H21625630   1.139   7.545   6.054 -1.9424 -1.9630 -0.4043
   98MOL   H21725631   1.091   7.610   5.753  1.2772  2.6854 -0.1969
   98MOL   H21825632   0.818   7.818   5.843  1.6194  0.1223  1.5984
   98MOL   H21925633   0.774   7.656   5.787 -0.9341  1.7004 -2.7482
   98MOL   H22025634   0.899   7.741   5.699  0.0425  0.1723  0.0273
   98MOL   H22125635   0.935   7.578   6.084 -1.3210 -1.1136 -1.8777
   98MOL   H22225636   0.792   7.649   6.035  0.1849  1.3136  0.0449
   98MOL   C22325637   0.947   7.784   6.134  0.0764  0.5768  0.0694
   98MOL   C22425638   0.888   0.042   6.093 -0.0454  0.1688  0.4445
   98MOL   C22525639   0.958   0.152   6.102 -0.3164 -0.2060  0.7266
   98MOL   C22625640   0.901   0.287   6.054 -0.4300 -0.3913  0.4533
   98MOL   C22725641   1.106   0.152   6.145 -0.1853 -0.3724  0.6338
   98MOL   H22825642   1.055   7.785   6.145 -0.0128 -2.1328  1.5033
   98MOL   H22925643   0.910   7.764   6.234 -0.6985 -1.2981 -0.5692
   98MOL   H23025644   0.787   0.045   6.053  0.1344  1.4401  0.0626
   98MOL   H23125645   0.904   0.373   6.120  2.2687  0.2501 -0.4634
   98MOL   H23225646   0.801   0.278   6.012 -0.5467  0.0973  0.6203
   98MOL   H23325647   0.970   0.325   5.978 -1.3339  0.0022 -0.1765
   98MOL   H23425648   1.131   0.107   6.241 -2.0380 -0.0395  1.2978
   98MOL   H23525649   1.132   0.253   6.177 -0.8877  0.4702 -1.3214
   98MOL   C23625650   1.205   0.116   6.034 -0.0470  0.2394  0.1261
   98MOL   C23725651   1.236   0.233   5.939  0.3299  0.6377  0.0173
   98MOL   C23825652   1.243   0.227   5.803  0.1093  0.0927  0.7547
   98MOL   C23925653   1.280   0.345   5.710  0.1514 -0.3690 -0.6214
   98MOL   C24025654   1.206   0.100   5.730 -0.3308 -0.3217 -0.2135
   98MOL   H24125655   1.170   0.027   5.981 -0.7811  1.3884 -1.3556
   98MOL   H24225656   1.303   0.090   6.075  0.3007 -0.0564 -0.8660
   98MOL   H24325657   1.255   0.330   5.984 -3.1674 -0.0281  3.1067
   98MOL   H24425658   1.330   0.429   5.757 -0.5039 -0.1398 -0.3374
   98MOL   H24525659   1.188   0.391   5.674 -1.2628 -3.0172 -0.5711
   98MOL   H24625660   1.356   0.324   5.633  0.1448 -0.7018 -0.5370
   98MOL   H24725661   1.142   0.134   5.649 -1.3346  2.2294  1.5952
   98MOL   H24825662   1.141   0.026   5.776 -0.1583 -1.9373 -2.4968
   98MOL   C24925663   1.335   0.029   5.678 -0.4035  1.0532 -0.5169
   98MOL   C25025664   1.299   7.782   5.603 -0.0256 -0.2582 -0.0043
   98MOL   C25125665   1.378   7.685   5.567 -0.6216 -0.6238  0.6155
   98MOL   C25225666   1.336   7.565   5.474 -0.3423  0.5323  0.2383
   98MOL   C25325667   1.525   7.675   5.588 -0.7628  0.3710  0.1412
   98MOL   H25425668   1.412   0.021   5.755 -0.1272  2.5988 -0.6061
   98MOL   H25525669   1.378   0.099   5.606  1.4652 -1.0908 -1.5415
   98MOL   H25625670   1.193   7.781   5.587 -0.1937 -0.7223  1.1013
   98MOL   H25725671   1.332   7.469   5.527 -0.2325 -0.0599 -0.8207
   98MOL   H25825672   1.401   7.554   5.387 -0.6530 -0.1046  0.0884
   98MOL   H25925673   1.243   7.604   5.433 -0.2656  1.5163  0.9893
   98MOL   H26025674   1.532   7.574   5.630 -0.7346  0.5763  0.6385
   98MOL   H26125675   1.578   7.747   5.650 -1.7735  1.8675 -0.7078
   98MOL   H26225676   1.570   7.668   5.490  0.2087 -0.6745  0.6530
   99MOL     C125677   4.124   3.365   1.506  0.1762  0.1865 -0.2446
   99MOL     C225678   4.252   3.426   1.482  0.3252  0.1377  0.5306
   99MOL     C325679   4.366   3.369   1.434 -0.4824  0.0322  0.1981
   99MOL     C425680   4.495   3.445   1.427  0.7091 -0.2915  0.3014
   99MOL     C525681   4.378   3.222   1.391  0.0189  0.4171 -0.4341
   99MOL     H625682   4.050   3.443   1.486 -0.9071 -0.6085  0.5962
   99MOL     H725683   4.096   3.275   1.452 -0.5697  0.6600 -0.6521
   99MOL     H825684   4.263   3.530   1.508  1.3432 -0.2073  1.5096
   99MOL     H925685   4.487   3.538   1.483  0.0171  0.9393 -1.7695
   99MOL    H1025686   4.509   3.467   1.321  0.2235  0.3077  0.3611
   99MOL    H1125687   4.579   3.384   1.462  1.2391 -0.3006 -0.9633
   99MOL    H1225688   4.416   3.215   1.289  0.9352  0.2731 -0.0925
   99MOL    H1325689   4.280   3.175   1.388  0.6326 -0.8586 -1.0353
   99MOL    H1425690   4.112   3.332   1.609 -1.6649 -1.8046 -1.0591
   99MOL    C1525691   4.471   3.131   1.474  0.5833  0.1506 -0.3205
   99MOL    C1625692   4.458   2.982   1.435  0.1642 -0.1119  0.0201
   99MOL    C1725693   4.541   2.917   1.352 -0.0641 -0.3921  0.7214
   99MOL    C1825694   4.531   2.763   1.332 -0.1097  0.0786 -0.2465
   99MOL    C1925695   4.647   2.983   1.267 -0.4030 -0.6293 -0.3278
   99MOL    H2025696   4.441   3.140   1.579  2.3147 -0.0332  0.2146
   99MOL    H2125697   4.576   3.163   1.468  0.4822  0.6039  0.2483
   99MOL    H2225698   4.381   2.920   1.479  0.2909 -1.0178 -1.0407
   99MOL    H2325699   4.612   2.708   1.380  0.2436  0.1765 -0.7249
   99MOL    H2425700   4.543   2.735   1.227  1.3167  0.1435 -0.1230
   99MOL    H2525701   4.443   2.720   1.378 -0.8491  2.3773  0.5498
   99MOL    H2625702   4.636   3.092   1.269  1.0100 -0.4904  0.5991
   99MOL    H2725703   4.650   2.937   1.168 -2.0181 -1.1795 -0.1308
   99MOL    C2825704   4.793   2.959   1.324  0.2513 -0.3315 -0.0422
   99MOL    C2925705   4.892   3.032   1.240  0.1250 -0.0405 -0.3533
   99MOL    C3025706   5.023   3.029   1.261 -0.4829 -0.0194 -0.0445
   99MOL    C3125707   5.123   3.104   1.174  0.2529  0.0396  0.8243
   99MOL    C3225708   5.085   2.948   1.383  0.0821  0.7685 -0.7150
   99MOL    H3325709   4.810   2.852   1.339 -2.3273 -0.6652  0.8654
   99MOL    H3425710   4.797   3.013   1.419 -0.4965  1.7339 -1.1539
   99MOL    H3525711   4.852   3.099   1.165  2.4499  0.8467 -0.8348
   99MOL    H3625712   5.211   3.136   1.231  0.8487 -2.1219  1.1709
   99MOL    H3725713   5.075   3.191   1.129 -0.1212 -0.5254  0.1309
   99MOL    H3825714   5.158   3.038   1.095 -2.6995 -2.3843  1.4648
   99MOL    H3925715   5.166   2.890   1.338 -0.3778  1.1903 -2.1036
   99MOL    H4025716   5.011   2.880   1.425 -0.9402  0.3787 -3.1046
   99MOL    C4125717   5.149   3.035   1.490  0.3372  0.5637 -1.1337
   99MOL    C4225718   5.050   3.101   1.583 -0.2803  0.4289 -0.8895
   99MOL    C4325719   5.039   3.232   1.604 -0.1470 -0.3700  1.0454
   99MOL    C4425720   4.939   3.287   1.699  0.2664 -0.4123  0.0206
   99MOL    C4525721   5.110   3.334   1.514  0.0567  0.4047  0.0539
   99MOL    H4625722   5.214   3.100   1.431  0.1738 -0.4921 -2.4891
   99MOL    H4725723   5.219   2.971   1.543  0.3426  0.3287 -1.4294
   99MOL    H4825724   4.995   3.036   1.649  0.6562 -1.1756 -1.6635
   99MOL    H4925725   4.973   3.376   1.752  0.5998 -0.5696  0.0680
   99MOL    H5025726   4.927   3.208   1.773  2.2317 -0.0421  0.7713
   99MOL    H5125727   4.852   3.303   1.634 -0.1690  0.2951  0.7645
   99MOL    H5225728   5.053   3.427   1.513 -2.9230 -1.3516 -2.7134
   99MOL    H5325729   5.098   3.298   1.411 -1.4062  2.8922 -0.6793
   99MOL    C5425730   5.256   3.362   1.556 -0.2690 -0.2511  0.4626
   99MOL    C5525731   5.309   3.493   1.505  0.2404  0.3719 -0.3532
   99MOL    C5625732   5.437   3.515   1.484 -0.3856 -0.0053 -0.4016
   99MOL    C5725733   5.501   3.654   1.456 -0.2703 -0.3045 -0.2475
   99MOL    C5825734   5.543   3.408   1.482  0.3822 -0.2126 -0.3624
   99MOL    H5925735   5.311   3.276   1.519 -0.5360 -0.7004  1.1079
   99MOL    H6025736   5.268   3.356   1.664  0.5794 -0.6936  0.3465
   99MOL    H6125737   5.236   3.572   1.503 -0.6854 -0.3924  1.9370
   99MOL    H6225738   5.539   3.666   1.355 -1.9271 -0.6432 -0.9141
   99MOL    H6325739   5.581   3.673   1.528 -0.3553 -2.9506  0.5953
   99MOL    H6425740   5.428   3.735   1.465 -1.1540 -1.1961  0.8528
   99MOL    H6525741   5.619   3.429   1.407  0.0957  0.1023 -0.5675
   99MOL    H6625742   5.504   3.313   1.444  0.3510 -0.7153  0.9015
   99MOL    C6725743   5.597   3.380   1.612  0.0119 -0.3050 -0.2249
   99MOL    C6825744   5.721   3.291   1.602  0.0816 -0.7697  0.0116
   99MOL    C6925745   5.848   3.329   1.625 -0.1706  1.1016 -1.0145
   99MOL    C7025746   5.965   3.239   1.613 -0.6797  0.0390  0.5936
   99MOL    C7125747   5.886   3.467   1.668  0.0062  0.2373  0.2874
   99MOL    H7225748   5.528   3.316   1.667 -0.3261 -0.9557 -1.3940
   99MOL    H7325749   5.604   3.474   1.667  0.6605 -0.4237 -0.1006
   99MOL    H7425750   5.702   3.186   1.584  2.2522 -1.0973 -0.4901
   99MOL    H7525751   6.044   3.291   1.558  1.4556 -0.3643  3.1410
   99MOL    H7625752   5.952   3.136   1.578 -3.3290  0.7794 -0.7033
   99MOL    H7725753   6.005   3.216   1.712  0.2340  0.6644  0.3781
   99MOL    H7825754   5.807   3.535   1.635  0.5415  1.6011  1.7823
   99MOL    H7925755   5.973   3.497   1.611 -1.4676  2.3030 -0.9762
   99MOL    C8025756   5.910   3.483   1.825 -0.0626  0.5690  0.6032
   99MOL    C8125757   6.053   3.473   1.867  0.0993  1.1644  0.2370
   99MOL    C8225758   6.154   3.560   1.853 -0.4893  0.1642 -0.0713
   99MOL    C8325759   6.129   3.697   1.789  0.7295  0.1498 -0.2806
   99MOL    C8425760   6.294   3.531   1.890 -0.2527  0.0234  0.2228
   99MOL    H8525761   5.844   3.411   1.873  1.2412 -2.2095 -1.6132
   99MOL    H8625762   5.870   3.578   1.861 -0.3263 -0.1772  2.2951
   99MOL    H8725763   6.081   3.378   1.912 -1.5977  0.6103  0.1558
   99MOL    H8825764   6.026   3.726   1.772  1.1665  0.7310 -2.0032
   99MOL    H8925765   6.172   3.696   1.688 -0.6569  2.0792 -0.9109
   99MOL    H9025766   6.180   3.777   1.843  0.4415  1.6983 -2.2240
   99MOL    H9125767   6.361   3.570   1.814  0.6917  0.2548  1.1634
   99MOL    H9225768   6.313   3.424   1.888 -1.3065 -0.2106  1.7896
   99MOL    C9325769   6.334   3.587   2.024  0.1813  0.3252  0.1454
   99MOL    C9425770   6.475   3.562   2.056 -0.0725 -0.1783 -0.0463
   99MOL    C9525771   6.528   3.451   2.117  0.2481 -0.2688 -0.0867
   99MOL    C9625772   6.671   3.450   2.157  0.2296  0.2605  0.4633
   99MOL    C9725773   6.450   3.326   2.136 -0.0640 -0.0460 -0.1132
   99MOL    H9825774   6.269   3.536   2.095 -1.2726  2.2614  0.2510
   99MOL    H9925775   6.316   3.695   2.030  0.8026  0.5094 -1.1724
   99MOL   H10025776   6.536   3.650   2.048  0.4969 -0.7045 -1.7618
   99MOL   H10125777   6.723   3.546   2.162  1.2515 -0.3556  2.1345
   99MOL   H10225778   6.680   3.401   2.254  0.7393  0.7213  0.6473
   99MOL   H10325779   6.718   3.382   2.087 -1.6599  1.1747 -1.7593
   99MOL   H10425780   6.509   3.243   2.097 -0.9733  0.0846 -1.8394
   99MOL   H10525781   6.368   3.315   2.064  0.8503 -1.7780 -0.9277
   99MOL   C10625782   6.407   3.311   2.280 -0.7632 -0.2260 -0.2208
   99MOL   C10725783   6.327   3.182   2.314  0.0200 -0.3232 -0.0042
   99MOL   C10825784   6.312   3.113   2.431 -0.3206  0.2683 -0.6847
   99MOL   C10925785   6.391   3.150   2.560 -0.1220  0.6026 -0.2513
   99MOL   C11025786   6.226   2.988   2.441  0.4407 -0.3845  0.5119
   99MOL   H11125787   6.338   3.391   2.305 -1.4260 -0.5214 -1.0635
   99MOL   H11225788   6.490   3.314   2.350 -0.8537  0.1973 -0.1279
   99MOL   H11325789   6.269   3.151   2.228 -0.3054  0.9291 -0.2516
   99MOL   H11425790   6.443   3.058   2.587  0.4694  0.0779 -2.9534
   99MOL   H11525791   6.466   3.228   2.543 -1.7554  2.1232 -0.6460
   99MOL   H11625792   6.327   3.189   2.639 -0.1938 -0.6499  0.3114
   99MOL   H11725793   6.269   2.888   2.433  1.2511 -0.0624  0.8040
   99MOL   H11825794   6.166   2.990   2.349  2.0786  0.2103 -0.5595
   99MOL   C11925795   6.139   2.974   2.565 -0.1569  0.2363 -0.1761
   99MOL   C12025796   6.029   3.081   2.569 -0.2265  0.4299  0.2047
   99MOL   C12125797   5.901   3.054   2.588 -0.1776 -0.2205  0.4659
   99MOL   C12225798   5.801   3.165   2.589 -0.6242 -0.0539 -0.5859
   99MOL   C12325799   5.840   2.919   2.611 -0.1814 -0.0472 -0.0567
   99MOL   H12425800   6.202   2.988   2.653  1.3620  0.5177 -1.3108
   99MOL   H12525801   6.090   2.876   2.567 -0.8237  0.5352 -1.5756
   99MOL   H12625802   6.057   3.182   2.546 -0.3688  0.5233  0.4449
   99MOL   H12725803   5.715   3.153   2.523 -0.1574  0.0780 -1.2217
   99MOL   H12825804   5.846   3.263   2.571 -1.4329  0.7910  1.7225
   99MOL   H12925805   5.743   3.174   2.681 -1.8061 -2.4235 -1.0708
   99MOL   H13025806   5.751   2.939   2.672  0.3596 -2.3945  1.5730
   99MOL   H13125807   5.900   2.859   2.679  1.2592  0.6209 -0.7221
   99MOL   C13225808   5.803   2.851   2.478  0.1245 -0.4393  0.2214
   99MOL   C13325809   5.678   2.762   2.494 -0.2330 -1.2619 -0.1043
   99MOL   C13425810   5.676   2.629   2.508 -0.2033  0.0609  0.2328
   99MOL   C13525811   5.542   2.550   2.520 -0.0664  0.0347  0.7409
   99MOL   C13625812   5.788   2.531   2.500 -0.2150  0.6063  0.1757
   99MOL   H13725813   5.885   2.805   2.423  1.2244 -0.3781  1.7800
   99MOL   H13825814   5.763   2.920   2.403 -1.5173 -1.5463  0.0452
   99MOL   H13925815   5.585   2.814   2.504  0.7010  0.3145  0.6348
   99MOL   H14025816   5.533   2.487   2.432 -1.5325  1.9280 -0.5062
   99MOL   H14125817   5.458   2.619   2.531 -0.4944 -0.1934 -0.9727
   99MOL   H14225818   5.545   2.490   2.611  0.9401 -0.2405  0.5376
   99MOL   H14325819   5.885   2.565   2.465  0.0131 -2.2705 -2.2064
   99MOL   H14425820   5.748   2.449   2.440 -1.2875 -0.6974  2.5801
   99MOL   C14525821   5.827   2.460   2.634  0.0510 -0.0597 -0.0991
   99MOL   C14625822   5.876   2.318   2.594 -0.0797 -0.6997  0.4393
   99MOL   C14725823   5.993   2.262   2.630  0.4966 -0.2756 -0.1232
   99MOL   C14825824   6.010   2.117   2.598 -0.3755  0.3783  0.2766
   99MOL   C14925825   6.104   2.337   2.702  0.3642 -0.2209  0.3608
   99MOL   H15025826   5.736   2.459   2.694  0.9008 -1.5607  1.2100
   99MOL   H15125827   5.888   2.524   2.698  0.8744 -2.6667  1.8386
   99MOL   H15225828   5.797   2.262   2.545 -1.9463  1.6927  0.5868
   99MOL   H15325829   5.921   2.057   2.577 -0.5167  0.0925  1.6519
   99MOL   H15425830   6.056   2.071   2.686  1.0296  0.5349 -0.3613
   99MOL   H15525831   6.078   2.107   2.514  0.9457 -1.7773  1.5443
   99MOL   H15625832   6.104   2.294   2.802  0.3444 -3.9808 -1.1915
   99MOL   H15725833   6.085   2.443   2.722 -1.1866 -0.9920  3.2702
   99MOL   C15825834   6.246   2.320   2.656 -0.6934  0.3305 -1.0288
   99MOL   C15925835   6.345   2.386   2.750 -0.2786  0.2107  0.1344
   99MOL   C16025836   6.386   2.513   2.739 -0.9308  0.2024  0.5268
   99MOL   C16125837   6.332   2.603   2.632 -0.2890  0.0847 -0.5895
   99MOL   C16225838   6.485   2.566   2.837  0.1989 -0.4432  0.0836
   99MOL   H16325839   6.252   2.339   2.549  0.3429  0.3981 -0.9624
   99MOL   H16425840   6.268   2.213   2.658 -1.1389  0.2529 -0.2861
   99MOL   H16525841   6.397   2.320   2.818  0.2598 -0.3376 -0.7877
   99MOL   H16625842   6.374   2.703   2.644  0.1937 -0.1619 -0.1672
   99MOL   H16725843   6.223   2.605   2.629 -0.2894  1.0464 -0.3349
   99MOL   H16825844   6.372   2.573   2.535  3.0862 -1.0598  1.0755
   99MOL   H16925845   6.489   2.497   2.922  0.8432 -0.5558 -0.0336
   99MOL   H17025846   6.442   2.658   2.877  1.5990  0.7925 -1.2257
   99MOL   C17125847   6.622   2.596   2.772  0.0666  0.2500 -0.0897
   99MOL   C17225848   6.722   2.660   2.870 -0.1521 -0.2341  1.0540
   99MOL   C17325849   6.852   2.681   2.856  0.3959  0.1144  0.3727
   99MOL   C17425850   6.931   2.633   2.730 -0.8983 -0.2759 -0.0294
   99MOL   C17525851   6.936   2.744   2.966  0.2825  0.0056 -0.3231
   99MOL   H17625852   6.598   2.665   2.690  0.1631  3.7673  2.7063
   99MOL   H17725853   6.662   2.507   2.724  2.7592  0.1453  2.2577
   99MOL   H17825854   6.668   2.699   2.955 -0.4566  1.2565  0.2021
   99MOL   H17925855   7.012   2.700   2.703 -0.4406 -0.9108 -0.2467
   99MOL   H18025856   6.877   2.612   2.637  1.0904 -1.8794 -0.8543
   99MOL   H18125857   6.983   2.540   2.752  1.0477  0.2948 -2.0606
   99MOL   H18225858   6.871   2.786   3.043  0.1888 -0.3811 -0.1917
   99MOL   H18325859   6.987   2.830   2.922 -0.7442 -0.3859 -2.3669
   99MOL   C18425860   7.036   2.645   3.028 -0.5347 -0.3881 -0.8227
   99MOL   C18525861   6.962   2.538   3.114 -0.3464  0.1386 -0.5488
   99MOL   C18625862   6.954   2.409   3.102  0.9065 -0.3056  1.0203
   99MOL   C18725863   6.897   2.322   3.214 -0.1123 -0.0726 -0.3789
   99MOL   C18825864   6.999   2.339   2.974  0.0192  0.2695  0.2093
   99MOL   H18925865   7.089   2.710   3.099 -1.4144  0.1056 -0.6097
   99MOL   H19025866   7.113   2.609   2.960  0.0144 -1.1956  0.2089
   99MOL   H19125867   6.941   2.580   3.211  1.6561 -0.9020  0.3595
   99MOL   H19225868   6.971   2.250   3.250 -1.4974 -1.1911  0.2584
   99MOL   H19325869   6.809   2.274   3.171 -0.6685 -0.0927  0.7851
   99MOL   H19425870   6.849   2.378   3.293 -1.8707 -0.9573 -0.7967
   99MOL   H19525871   7.093   2.300   3.013 -1.3789 -0.9471  2.4614
   99MOL   H19625872   7.041   2.408   2.901 -1.1011  0.2628 -0.4529
   99MOL   C19725873   6.917   2.219   2.917 -0.4276 -0.0085  0.6338
   99MOL   C19825874   7.007   2.128   2.840  0.4300 -0.1112  0.1976
   99MOL   C19925875   7.027   2.114   2.703  0.6811 -0.8001  0.0698
   99MOL   C20025876   7.114   2.002   2.650  0.1515  0.1409  0.2817
   99MOL   C20125877   6.964   2.203   2.597  0.9281 -0.2529 -0.7996
   99MOL   H20225878   6.841   2.259   2.850  0.0890 -0.1270 -0.0159
   99MOL   H20325879   6.861   2.152   2.984  0.8709 -2.4861 -0.6892
   99MOL   H20425880   7.048   2.051   2.904 -0.6111 -2.5822 -1.9922
   99MOL   H20525881   7.174   1.949   2.724 -1.8093  1.8125  3.2180
   99MOL   H20625882   7.188   2.046   2.584 -0.8814  0.4171 -0.7133
   99MOL   H20725883   7.068   1.928   2.584  0.6970  0.3398 -0.3218
   99MOL   H20825884   6.872   2.253   2.628  1.1915 -0.5666  0.5159
   99MOL   H20925885   6.925   2.129   2.527  2.4516 -0.3304 -1.5906
   99MOL   C21025886   7.061   2.290   2.519 -0.5901 -0.6466  0.4784
   99MOL   C21125887   7.011   2.346   2.382 -0.5220  0.4924 -0.2090
   99MOL   C21225888   7.057   2.311   2.264 -0.3444 -0.0305  0.4843
   99MOL   C21325889   7.010   2.370   2.128  0.5351 -0.1437 -0.2929
   99MOL   C21425890   7.166   2.209   2.240  0.4585  0.3087 -0.0452
   99MOL   H21525891   7.151   2.231   2.504 -1.1938 -0.9694 -2.3116
   99MOL   H21625892   7.089   2.380   2.573 -0.1316 -0.1344 -0.5939
   99MOL   H21725893   6.930   2.417   2.384  0.4949  1.6536  0.4566
   99MOL   H21825894   6.966   2.288   2.072 -2.9566 -0.6341  2.9696
   99MOL   H21925895   7.092   2.428   2.086  1.8800 -1.5127  0.3845
   99MOL   H22025896   6.926   2.432   2.161 -0.0951 -1.0951 -0.0857
   99MOL   H22125897   7.250   2.231   2.306 -0.4532  0.4769  1.0872
   99MOL   H22225898   7.209   2.213   2.140 -0.9673 -1.4235 -0.7399
   99MOL   C22325899   7.124   2.064   2.267  0.7355  0.3762 -0.1002
   99MOL   C22425900   7.238   1.969   2.251 -0.2071  0.5574 -0.3088
   99MOL   C22525901   7.258   1.877   2.154 -0.2675 -0.8625 -0.8848
   99MOL   C22625902   7.375   1.782   2.152 -0.3163 -0.2702 -0.2086
   99MOL   C22725903   7.154   1.857   2.043  0.0761  0.2249 -0.5109
   99MOL   H22825904   7.033   2.041   2.211  0.2017  1.2632  0.4092
   99MOL   H22925905   7.104   2.037   2.370  3.4092 -1.9026 -0.1168
   99MOL   H23025906   7.313   1.984   2.327  0.6035  0.5154 -1.0902
   99MOL   H23125907   7.338   1.679   2.161 -2.3029  0.6429  2.6879
   99MOL   H23225908   7.447   1.787   2.233  0.1726 -1.6313 -0.5282
   99MOL   H23325909   7.428   1.788   2.057  0.9735 -1.2926  0.4369
   99MOL   H23425910   7.054   1.881   2.082 -0.9018 -1.6272 -1.8326
   99MOL   H23525911   7.146   1.750   2.027 -0.7947  0.3632 -1.0591
   99MOL   C23625912   7.181   1.953   1.924  0.1197 -0.4113  0.7039
   99MOL   C23725913   7.077   1.933   1.812  0.4620  0.7805 -0.1834
   99MOL   C23825914   7.096   1.950   1.677 -0.3461  0.3015  0.5420
   99MOL   C23925915   6.986   1.909   1.585 -0.1927  0.2613 -0.1992
   99MOL   C24025916   7.213   2.024   1.622  0.6235  0.5112  0.8299
   99MOL   H24125917   7.283   1.933   1.889  0.4714 -2.2839  2.7161
   99MOL   H24225918   7.165   2.058   1.949  1.2038 -0.6745  2.5929
   99MOL   H24325919   6.994   1.874   1.847  1.8364 -1.8400 -1.1773
   99MOL   H24425920   7.028   1.847   1.505  0.2704 -1.3967  1.3009
   99MOL   H24525921   6.924   1.985   1.537 -2.1728 -1.3040 -0.1693
   99MOL   H24625922   6.908   1.850   1.632  0.1826  0.0569  0.1739
   99MOL   H24725923   7.258   2.075   1.707  1.5641  2.8630 -1.0403
   99MOL   H24825924   7.176   2.091   1.544 -1.3766 -0.5969  0.7972
   99MOL   C24925925   7.304   1.921   1.558 -0.4892  0.5297  1.2499
   99MOL   C25025926   7.450   1.973   1.548  0.2402  0.4006  0.2263
   99MOL   C25125927   7.555   1.931   1.622  0.2759  0.0814  0.4972
   99MOL   C25225928   7.695   1.991   1.608  0.6230 -0.2785  0.2061
   99MOL   C25325929   7.551   1.823   1.727 -0.0634  0.0858  0.4147
   99MOL   H25425930   7.273   1.900   1.456 -0.6049  0.7632  1.2364
   99MOL   H25525931   7.298   1.825   1.609 -2.9836  0.9207  1.7526
   99MOL   H25625932   7.463   2.045   1.468  1.1010 -2.6121 -2.4522
   99MOL   H25725933   7.770   1.916   1.583  1.6604  1.3254 -1.6544
   99MOL   H25825934   7.723   2.037   1.703 -0.0353 -1.3420  0.9347
   99MOL   H25925935   7.703   2.063   1.527 -0.5730  0.5461  0.8030
   99MOL   H26025936   7.645   1.769   1.729  0.1837  0.5314  0.7833
   99MOL   H26125937   7.470   1.753   1.703  1.6217 -3.2555  4.0091
   99MOL   H26225938   7.542   1.876   1.821  1.5160 -1.2654  1.3434
  100MOL     C125939   4.561   3.475   1.803 -0.0043  0.1700 -0.4129
  100MOL     C225940   4.484   3.548   1.915 -0.2940 -0.6738 -0.1921
  100MOL     C325941   4.355   3.524   1.950  0.6022 -0.3395  0.1038
  100MOL     C425942   4.285   3.600   2.064  0.0518 -0.1919  0.3446
  100MOL     C525943   4.269   3.409   1.886 -0.0475 -1.1936 -1.3286
  100MOL     H625944   4.501   3.481   1.712 -0.2433 -1.9972 -0.4256
  100MOL     H725945   4.655   3.527   1.784  0.4344 -1.2532 -2.2605
  100MOL     H825946   4.541   3.614   1.979 -2.5061  0.4439  0.6820
  100MOL     H925947   4.254   3.541   2.151  0.7616  0.4551  1.0345
  100MOL    H1025948   4.186   3.630   2.029  0.4466  0.6076 -0.1117
  100MOL    H1125949   4.340   3.679   2.114 -0.0774 -0.0543  0.2685
  100MOL    H1225950   4.306   3.381   1.787 -1.0844 -0.8511 -1.8181
  100MOL    H1325951   4.169   3.448   1.872 -0.9417 -3.2101 -0.7861
  100MOL    H1425952   4.582   3.376   1.843 -2.3729  0.6228  2.1340
  100MOL    C1525953   4.272   3.290   1.985 -0.1072 -0.4118 -0.5916
  100MOL    C1625954   4.180   3.179   1.954  0.5607 -0.0211  0.7498
  100MOL    C1725955   4.190   3.054   1.993  0.0815 -0.2404 -0.5388
  100MOL    C1825956   4.092   2.947   1.949  0.4778  0.1868 -0.4413
  100MOL    C1925957   4.308   3.003   2.078  0.4430 -0.6395 -0.4175
  100MOL    H2025958   4.250   3.334   2.083 -1.3916 -1.9721 -0.1531
  100MOL    H2125959   4.373   3.247   1.986  0.5792  1.1722  1.5183
  100MOL    H2225960   4.100   3.198   1.884  1.0655  1.3506  0.5242
  100MOL    H2325961   4.049   2.901   2.039 -1.7953 -0.2575 -1.7165
  100MOL    H2425962   4.129   2.862   1.892  2.4584  0.7608 -0.0245
  100MOL    H2525963   4.009   2.989   1.892 -0.1214 -0.5760 -0.1467
  100MOL    H2625964   4.261   2.954   2.163  0.2648  1.1894  0.5526
  100MOL    H2725965   4.368   3.089   2.107 -0.4092 -0.2771  0.2969
  100MOL    C2825966   4.385   2.885   2.019 -0.3678  0.0155  0.2705
  100MOL    C2925967   4.462   2.927   1.894 -0.2913 -0.0937 -0.1917
  100MOL    C3025968   4.588   2.978   1.896 -0.2866 -0.0253  0.6493
  100MOL    C3125969   4.663   3.012   1.771  0.1984 -0.2512 -0.1117
  100MOL    C3225970   4.666   3.013   2.020  0.2008  0.7411 -0.4948
  100MOL    H3325971   4.310   2.809   1.997 -1.4581  0.5959  1.8572
  100MOL    H3425972   4.445   2.825   2.087  0.3422 -0.2754 -0.5974
  100MOL    H3525973   4.416   2.907   1.799 -0.2858  0.5988 -0.3451
  100MOL    H3625974   4.772   3.011   1.768  0.2353  0.3080  0.8122
  100MOL    H3725975   4.635   3.117   1.765 -1.8804 -0.8067 -0.4523
  100MOL    H3825976   4.619   2.953   1.690 -2.5239  0.1370  1.0391
  100MOL    H3925977   4.599   3.044   2.100 -4.7623 -2.2672 -3.2565
  100MOL    H4025978   4.730   3.100   2.007 -1.8448  2.4585  0.7845
  100MOL    C4125979   4.746   2.906   2.086 -0.5809 -0.3242 -0.2252
  100MOL    C4225980   4.824   2.970   2.204  1.0123  0.2031 -0.0225
  100MOL    C4325981   4.958   2.983   2.212  0.2628 -0.1220 -0.5032
  100MOL    C4425982   5.030   3.068   2.322 -0.0755  0.3782 -0.0304
  100MOL    C4525983   5.063   2.926   2.109  0.3932 -0.1005 -0.0481
  100MOL    H4625984   4.813   2.861   2.012  0.0342  0.5512 -0.2121
  100MOL    H4725985   4.675   2.833   2.125 -0.3555  0.7474  2.2444
  100MOL    H4825986   4.761   3.002   2.286 -0.4639 -2.4970 -0.0394
  100MOL    H4925987   5.096   2.995   2.369  1.4658 -0.7306 -3.7416
  100MOL    H5025988   4.959   3.111   2.392  0.4127  0.9542  0.1072
  100MOL    H5125989   5.088   3.149   2.278  1.8207 -0.0126  1.6625
  100MOL    H5225990   5.028   2.832   2.065 -0.2006 -0.7904  1.8162
  100MOL    H5325991   5.158   2.918   2.160  0.5234 -0.5976 -0.3560
  100MOL    C5425992   5.081   3.018   1.990 -0.2593 -0.6822 -0.3702
  100MOL    C5525993   5.170   2.959   1.879 -0.0548 -0.4533 -0.0677
  100MOL    C5625994   5.296   2.992   1.841 -0.1570 -0.5880  0.3972
  100MOL    C5725995   5.374   2.901   1.748 -0.4163  0.1258  0.2421
  100MOL    C5825996   5.374   3.099   1.907 -0.6276 -0.7574 -1.0915
  100MOL    H5925997   5.124   3.108   2.033  0.1448 -1.2430  0.4077
  100MOL    H6025998   4.981   3.044   1.953 -1.1363  0.0229  2.3973
  100MOL    H6125999   5.119   2.880   1.826  0.5432 -0.0055 -1.3351
  100MOL    H6226000   5.307   2.820   1.720  1.1575 -0.9537 -0.4482
  100MOL    H6326001   5.459   2.869   1.809  0.1729  0.7168 -0.2569
  100MOL    H6426002   5.418   2.951   1.662  2.1942  0.4007  1.6739
  100MOL    H6526003   5.311   3.179   1.945  0.2402 -1.3787  1.7081
  100MOL    H6626004   5.443   3.139   1.831 -2.2778 -1.2263 -2.8836
  100MOL    C6726005   5.459   3.044   2.023  0.7823 -0.3137 -0.2127
  100MOL    C6826006   5.534   3.160   2.085  1.0652  0.1134  0.1945
  100MOL    C6926007   5.559   3.164   2.217 -0.0835  0.3877 -0.0939
  100MOL    C7026008   5.610   3.289   2.285 -0.7067  0.4595  0.0080
  100MOL    C7126009   5.524   3.053   2.310 -0.2071 -0.6365  0.4257
  100MOL    H7226010   5.526   2.966   1.988  0.7889  0.0243 -0.9568
  100MOL    H7326011   5.385   3.004   2.092 -0.4451  2.4335  0.1312
  100MOL    H7426012   5.554   3.245   2.021 -1.2151 -0.5828 -1.5005
  100MOL    H7526013   5.703   3.258   2.333 -2.0858 -0.9607  1.8619
  100MOL    H7626014   5.559   3.336   2.369  1.7994  0.9834  1.2786
  100MOL    H7726015   5.650   3.365   2.219  1.7949 -2.0056 -1.4146
  100MOL    H7826016   5.593   3.062   2.394  1.1196 -0.2997 -0.6864
  100MOL    H7926017   5.540   2.956   2.263 -0.4902 -0.6505  0.3558
  100MOL    C8026018   5.391   3.080   2.379  0.7499  0.2759 -0.1912
  100MOL    C8126019   5.363   2.978   2.494 -0.3465  0.1911  0.5221
  100MOL    C8226020   5.370   2.997   2.625  0.1955  0.2094  0.0541
  100MOL    C8326021   5.411   3.122   2.688 -0.0422 -0.5022 -0.2368
  100MOL    C8426022   5.337   2.888   2.720 -0.2067 -0.1875  0.1991
  100MOL    H8526023   5.318   3.077   2.299 -3.4385  0.6108  3.4097
  100MOL    H8626024   5.396   3.185   2.408 -0.3842 -0.2091  1.8825
  100MOL    H8726025   5.339   2.881   2.453  1.9975 -0.4879  0.6393
  100MOL    H8826026   5.517   3.118   2.712 -0.6932 -3.4227  2.4017
  100MOL    H8926027   5.350   3.123   2.778  0.1351  0.6420 -0.1240
  100MOL    H9026028   5.392   3.213   2.630 -1.0693 -0.9128 -0.5631
  100MOL    H9126029   5.417   2.873   2.793 -0.8973  0.7744  1.1592
  100MOL    H9226030   5.333   2.790   2.671 -2.5256 -0.4188  0.7744
  100MOL    C9326031   5.197   2.882   2.788 -0.1303 -0.1682 -0.3971
  100MOL    C9426032   5.165   2.754   2.859 -0.1928  0.0458  0.6442
  100MOL    C9526033   5.057   2.674   2.848  0.3355 -0.6799 -0.8755
  100MOL    C9626034   5.060   2.539   2.917  0.3229  0.2368  0.2217
  100MOL    C9726035   4.929   2.712   2.765 -0.2396  0.4655 -0.4653
  100MOL    H9826036   5.123   2.913   2.715  1.5702 -1.6245 -2.8099
  100MOL    H9926037   5.204   2.966   2.857 -0.2142 -0.6871  0.2541
  100MOL   H10026038   5.241   2.722   2.929  1.5915 -1.8039 -2.0391
  100MOL   H10126039   5.115   2.525   3.009 -2.3014 -3.1836  1.3554
  100MOL   H10226040   4.959   2.508   2.942 -0.2661  1.4289 -0.6231
  100MOL   H10326041   5.102   2.466   2.847 -1.6624  0.1007 -0.8546
  100MOL   H10426042   4.939   2.813   2.727  1.4998  0.7427  0.6691
  100MOL   H10526043   4.835   2.700   2.820 -0.2272  0.2777 -0.4841
  100MOL   C10626044   4.911   2.624   2.642 -0.1788 -0.4146  0.1044
  100MOL   C10726045   5.008   2.669   2.532  0.0720  0.3483  1.3623
  100MOL   C10826046   5.105   2.586   2.476 -0.2374  0.3377 -0.6531
  100MOL   C10926047   5.141   2.444   2.520 -0.0806  0.1340 -0.6251
  100MOL   C11026048   5.170   2.627   2.350 -0.5267 -0.7425  0.8625
  100MOL   H11126049   4.815   2.652   2.600  1.4434  1.9436 -2.2695
  100MOL   H11226050   4.927   2.517   2.652  0.0270 -0.4590 -0.6782
  100MOL   H11326051   5.007   2.772   2.501 -1.5289  0.0663  0.4167
  100MOL   H11426052   5.239   2.409   2.488 -0.4395 -0.7542 -0.7618
  100MOL   H11526053   5.150   2.447   2.629  1.7077  0.4924 -0.7776
  100MOL   H11626054   5.062   2.378   2.484  0.2744 -0.9400  0.5376
  100MOL   H11726055   5.278   2.622   2.365 -0.2886 -0.8047 -0.7563
  100MOL   H11826056   5.135   2.729   2.332 -2.1114 -1.6187 -1.2662
  100MOL   C11926057   5.127   2.547   2.223  0.3959  0.5392 -0.2854
  100MOL   C12026058   5.198   2.588   2.098 -0.6858 -0.7580 -0.1330
  100MOL   C12126059   5.265   2.506   2.018 -0.4333  0.1532  0.3408
  100MOL   C12226060   5.327   2.553   1.890 -0.0941  0.8044  0.4032
  100MOL   C12326061   5.293   2.359   2.038 -0.3122  0.1384 -0.4677
  100MOL   H12426062   5.018   2.553   2.213  0.1059  0.6199  2.5765
  100MOL   H12526063   5.153   2.443   2.242 -0.7650  0.5212  1.3555
  100MOL   H12626064   5.199   2.693   2.071 -0.4121 -0.2404  1.7647
  100MOL   H12726065   5.313   2.482   1.809  0.6034  0.7596  0.3203
  100MOL   H12826066   5.435   2.552   1.904  0.0077 -0.0201 -0.4495
  100MOL   H12926067   5.300   2.652   1.853  0.5073  0.9610  0.3846
  100MOL   H13026068   5.315   2.347   2.144 -1.1381 -1.2772 -0.4503
  100MOL   H13126069   5.383   2.338   1.980 -0.2319  3.1340 -1.5075
  100MOL   C13226070   5.175   2.274   1.986  0.4043  0.3096 -0.5357
  100MOL   C13326071   5.210   2.123   2.008 -0.6643 -0.3412  0.1253
  100MOL   C13426072   5.125   2.020   2.025  0.1583 -0.2099  0.0503
  100MOL   C13526073   5.174   1.870   2.024 -0.2013 -0.5397 -0.1393
  100MOL   C13626074   4.975   2.035   2.037  0.7980 -0.0716 -0.1195
  100MOL   H13726075   5.169   2.288   1.879  2.0976  1.0503 -0.5538
  100MOL   H13826076   5.081   2.295   2.038  0.4385 -0.2826 -0.2250
  100MOL   H13926077   5.317   2.113   1.994 -0.3330  1.2576  1.3775
  100MOL   H14026078   5.147   1.830   2.122  0.3279  0.4524  0.4086
  100MOL   H14126079   5.282   1.858   2.024 -0.2220 -0.7447  0.0881
  100MOL   H14226080   5.132   1.812   1.941 -0.1669  0.8918 -1.1629
  100MOL   H14326081   4.951   2.129   2.085  0.2440  0.1595 -0.8341
  100MOL   H14426082   4.930   1.962   2.104 -0.0497  0.3837 -0.1983
  100MOL   C14526083   4.902   2.026   1.902 -0.4490  0.4600  0.4094
  100MOL   C14626084   4.754   2.050   1.906  0.4125  0.4647 -0.0898
  100MOL   C14726085   4.677   2.061   1.798 -0.1551  0.1107  0.1569
  100MOL   C14826086   4.526   2.057   1.813  0.0284 -0.0496 -0.1256
  100MOL   C14926087   4.729   2.072   1.657 -0.0453 -0.4604  0.0443
  100MOL   H15026088   4.913   1.921   1.872 -1.8386  0.4142  0.0539
  100MOL   H15126089   4.959   2.083   1.829 -1.1332  1.8422  0.9487
  100MOL   H15226090   4.710   2.039   2.004 -1.3214 -0.0693 -0.9196
  100MOL   H15326091   4.503   2.021   1.913  0.9959 -0.0222  0.1127
  100MOL   H15426092   4.466   1.996   1.746  2.5829 -1.6869 -0.9708
  100MOL   H15526093   4.494   2.162   1.807 -1.4591 -0.5504 -1.1580
  100MOL   H15626094   4.667   2.029   1.579  1.3445 -0.4619 -1.0794
  100MOL   H15726095   4.820   2.012   1.653 -0.7440 -1.4914 -0.4633
  100MOL   C15826096   4.760   2.214   1.624  0.4559 -0.5104 -0.1503
  100MOL   C15926097   4.827   2.226   1.491 -0.5109  0.0144 -0.3115
  100MOL   C16026098   4.821   2.325   1.400 -0.0016  0.4666  0.5298
  100MOL   C16126099   4.744   2.446   1.419 -0.8822 -0.6076  0.0709
  100MOL   C16226100   4.908   2.332   1.267  1.0051  0.3333  0.2765
  100MOL   H16326101   4.823   2.243   1.708  2.1270 -0.6675 -1.3274
  100MOL   H16426102   4.663   2.260   1.643  0.9905  0.8511 -0.6630
  100MOL   H16526103   4.897   2.144   1.477 -3.1702 -2.5622  0.9639
  100MOL   H16626104   4.653   2.441   1.359 -0.2415 -1.1999 -0.8529
  100MOL   H16726105   4.787   2.540   1.384 -4.2235  0.7751 -0.5270
  100MOL   H16826106   4.706   2.470   1.519 -0.6089  0.2412 -0.0284
  100MOL   H16926107   4.833   2.344   1.189  1.5734 -3.5145 -0.9747
  100MOL   H17026108   4.951   2.235   1.243  2.0066  0.8451 -0.0374
  100MOL   C17126109   5.028   2.431   1.268 -0.5294 -0.1778 -0.2811
  100MOL   C17226110   5.146   2.369   1.322 -0.8059 -0.2526 -0.5505
  100MOL   C17326111   5.198   2.386   1.449 -0.3898 -0.4776 -0.0831
  100MOL   C17426112   5.142   2.469   1.560 -0.2219 -0.5499  0.6841
  100MOL   C17526113   5.328   2.319   1.496 -0.0448  0.6545  0.0950
  100MOL   H17626114   4.999   2.510   1.338 -0.6783  0.1340 -0.6931
  100MOL   H17726115   5.050   2.481   1.174 -1.0662 -0.8589 -0.7656
  100MOL   H17826116   5.211   2.318   1.253 -1.6172 -1.0046 -0.7750
  100MOL   H17926117   5.097   2.408   1.638  0.5374 -2.5495 -0.3813
  100MOL   H18026118   5.058   2.532   1.532  0.2224 -0.5374 -0.6870
  100MOL   H18126119   5.222   2.532   1.598 -2.9011  3.4465  0.0589
  100MOL   H18226120   5.344   2.233   1.430 -4.1175 -0.2617  0.1746
  100MOL   H18326121   5.334   2.281   1.598  0.5116  0.5969  0.0400
  100MOL   C18426122   5.455   2.408   1.491 -0.4002  0.3001 -0.1393
  100MOL   C18526123   5.586   2.351   1.549  0.3103  0.2473 -0.5612
  100MOL   C18626124   5.704   2.333   1.484  0.4589  0.5817  0.6761
  100MOL   C18726125   5.819   2.280   1.566 -0.5151 -0.0125  0.3098
  100MOL   C18826126   5.732   2.339   1.331 -0.0893 -1.3297 -0.3425
  100MOL   H18926127   5.421   2.492   1.552 -1.6022  0.6898 -1.3015
  100MOL   H19026128   5.457   2.459   1.394  2.2240  1.4867  0.4896
  100MOL   H19126129   5.567   2.333   1.654 -1.0748 -2.5380 -1.2272
  100MOL   H19226130   5.911   2.326   1.529 -0.5906  0.1591  0.3387
  100MOL   H19326131   5.840   2.174   1.551  2.2525  0.3210  1.4578
  100MOL   H19426132   5.808   2.302   1.672  0.0544 -0.6168  0.4982
  100MOL   H19526133   5.808   2.416   1.320 -0.2853 -0.9228  1.0339
  100MOL   H19626134   5.643   2.381   1.282  1.1303 -1.0403 -2.3843
  100MOL   C19726135   5.788   2.213   1.271 -0.1326 -0.6372  0.1106
  100MOL   C19826136   5.679   2.105   1.266  0.5032  0.6683  0.4102
  100MOL   C19926137   5.697   1.973   1.250  0.2483  0.6226  0.1946
  100MOL   C20026138   5.576   1.879   1.253  0.1941 -0.3113 -0.2994
  100MOL   C20126139   5.835   1.905   1.231  0.0323 -1.0304  0.3455
  100MOL   H20226140   5.879   2.180   1.323  1.1309  1.1414 -0.9258
  100MOL   H20326141   5.816   2.228   1.167  1.5800  1.7002  0.8719
  100MOL   H20426142   5.579   2.145   1.265  0.4328  0.4818  0.1809
  100MOL   H20526143   5.490   1.930   1.296  0.8610 -0.0044  0.6845
  100MOL   H20626144   5.590   1.788   1.311 -0.1798  0.1900  0.5825
  100MOL   H20726145   5.548   1.843   1.153 -1.9353 -0.1715  0.2093
  100MOL   H20826146   5.905   1.986   1.210 -1.3971  0.4729  1.2747
  100MOL   H20926147   5.829   1.842   1.142 -2.1977  0.0314 -0.2826
  100MOL   C21026148   5.884   1.815   1.339  0.0534 -0.8258 -0.0703
  100MOL   C21126149   5.929   1.897   1.460 -0.1643  0.1743 -0.3254
  100MOL   C21226150   6.054   1.917   1.506 -0.8880  0.6001 -0.2465
  100MOL   C21326151   6.082   2.006   1.621  0.1160  0.9084  0.7556
  100MOL   C21426152   6.178   1.880   1.430 -0.4729  0.1334 -0.7927
  100MOL   H21526153   5.970   1.761   1.299 -0.5328 -1.4803 -0.4345
  100MOL   H21626154   5.807   1.750   1.379 -0.4256  0.1522  0.6200
  100MOL   H21726155   5.846   1.942   1.512  0.3596  0.0950  0.5965
  100MOL   H21826156   6.168   2.071   1.603 -0.2814  1.9897  2.6038
  100MOL   H21926157   6.100   1.952   1.714 -0.8317  0.8569  0.9156
  100MOL   H22026158   5.990   2.060   1.639 -0.6092  0.4402 -1.4077
  100MOL   H22126159   6.217   1.965   1.374  1.4696 -1.7293 -2.3623
  100MOL   H22226160   6.160   1.793   1.367  0.3672 -1.2129  0.7690
  100MOL   C22326161   6.293   1.833   1.525 -0.2534  0.5804 -0.3535
  100MOL   C22426162   6.425   1.811   1.450  0.1806 -0.3506 -0.4731
  100MOL   C22526163   6.547   1.873   1.468  0.7859 -0.7397  0.0627
  100MOL   C22626164   6.671   1.832   1.397 -0.0622 -0.1300  0.4835
  100MOL   C22726165   6.563   1.971   1.584  0.2589 -0.3434 -0.0823
  100MOL   H22826166   6.260   1.739   1.567  0.3504  1.0144  1.1111
  100MOL   H22926167   6.310   1.898   1.611 -1.1652  1.3253 -0.7334
  100MOL   H23026168   6.419   1.744   1.366 -2.1197  1.3992 -1.7558
  100MOL   H23126169   6.641   1.781   1.306 -2.8280  1.3496  0.4929
  100MOL   H23226170   6.742   1.778   1.459  0.4517 -1.0529 -0.8915
  100MOL   H23326171   6.723   1.918   1.354 -0.1684 -0.7055 -0.8009
  100MOL   H23426172   6.485   2.043   1.609  2.6892  2.8030 -1.2081
  100MOL   H23526173   6.645   2.034   1.551 -0.2661  0.6538  0.4754
  100MOL   C23626174   6.607   1.896   1.710 -0.3623  0.0771  0.0172
  100MOL   C23726175   6.680   1.988   1.809 -0.4157 -0.6276  0.6908
  100MOL   C23826176   6.699   1.977   1.938 -0.4455 -0.3937 -0.6181
  100MOL   C23926177   6.785   2.089   1.996 -0.1664  0.5100 -0.1438
  100MOL   C24026178   6.643   1.863   2.030 -0.0873  0.7586 -0.0636
  100MOL   H24126179   6.685   1.826   1.683 -1.0691 -0.2649 -1.1812
  100MOL   H24226180   6.524   1.842   1.757  0.1557 -2.1670 -1.5741
  100MOL   H24326181   6.725   2.072   1.757 -2.7543  0.5117  0.4656
  100MOL   H24426182   6.771   2.182   1.941  2.0086 -0.3035 -2.1470
  100MOL   H24526183   6.881   2.040   1.980 -0.3104 -0.2423  1.1721
  100MOL   H24626184   6.753   2.105   2.100  0.2625  0.7270 -0.0463
  100MOL   H24726185   6.573   1.794   1.983 -0.0541 -0.5043  1.7063
  100MOL   H24826186   6.584   1.912   2.106  1.3700 -0.3130  1.8000
  100MOL   C24926187   6.769   1.792   2.082  1.0132  0.2508 -0.1419
  100MOL   C25026188   6.746   1.657   2.154  0.3912 -0.6355 -0.6080
  100MOL   C25126189   6.813   1.603   2.258  0.0410 -0.9023 -0.2478
  100MOL   C25226190   6.780   1.468   2.305  0.5345 -0.6891  0.4440
  100MOL   C25326191   6.928   1.673   2.332  0.2131  0.1943  0.8888
  100MOL   H25426192   6.808   1.867   2.151 -1.6847  1.2057  0.4026
  100MOL   H25526193   6.838   1.769   2.001 -0.4001  0.3826 -1.3920
  100MOL   H25626194   6.681   1.594   2.095 -1.5207 -0.5876  1.4252
  100MOL   H25726195   6.679   1.431   2.287  1.1179 -0.9453 -2.4238
  100MOL   H25826196   6.792   1.472   2.414 -1.5777 -1.1381  0.7057
  100MOL   H25926197   6.848   1.393   2.266  0.3553 -0.9039  0.5451
  100MOL   H26026198   6.964   1.744   2.258 -0.8914 -1.2368 -1.0672
  100MOL   H26126199   7.006   1.597   2.340  0.5120  0.2708 -1.0999
  100MOL   H26226200   6.887   1.727   2.418 -2.8274  0.4265 -0.6552
  101MOL     C126201   3.314   6.621   5.630  0.0551 -0.1942  0.2194
  101MOL     C226202   3.290   6.631   5.782  0.7886 -0.2367  0.2485
  101MOL     C326203   3.230   6.540   5.859 -0.9748 -0.2544 -0.4669
  101MOL     C426204   3.219   6.555   6.015  0.1874  0.0894  0.3290
  101MOL     C526205   3.165   6.414   5.810 -0.2461  0.0367  0.6787
  101MOL     H626206   3.309   6.517   5.598 -1.9773  0.7633 -2.7494
  101MOL     H726207   3.245   6.686   5.576 -1.8565 -2.6980 -0.4091
  101MOL     H826208   3.328   6.719   5.832  0.9037  0.0021 -0.2474
  101MOL     H926209   3.266   6.648   6.048 -0.1511 -0.2217  1.7221
  101MOL    H1026210   3.266   6.473   6.069 -0.1520 -0.4290 -0.1621
  101MOL    H1126211   3.117   6.569   6.051 -0.1586  0.8226 -0.8774
  101MOL    H1226212   3.179   6.333   5.881  0.4865 -0.9424 -0.5775
  101MOL    H1326213   3.194   6.372   5.714  1.5113  0.1176  1.1554
  101MOL    H1426214   3.415   6.653   5.607 -0.1188 -0.8366 -1.5237
  101MOL    C1526215   3.011   6.425   5.799 -0.0952 -0.6423 -0.8787
  101MOL    C1626216   2.948   6.291   5.749  0.1102 -0.1652 -0.9607
  101MOL    C1726217   2.830   6.276   5.690  0.0631 -0.1818  0.0707
  101MOL    C1826218   2.769   6.142   5.678  0.5716  0.2852 -0.0158
  101MOL    C1926219   2.743   6.390   5.650 -0.0058  0.5381  0.4959
  101MOL    H2026220   2.988   6.506   5.731 -0.3909 -0.9043 -1.0920
  101MOL    H2126221   2.956   6.454   5.889  0.8783  0.8315 -0.7460
  101MOL    H2226222   2.997   6.199   5.775  2.5634  0.9822 -1.3274
  101MOL    H2326223   2.738   6.121   5.576 -2.2380  2.1316  0.4213
  101MOL    H2426224   2.688   6.130   5.750  0.0149  0.8442 -0.5467
  101MOL    H2526225   2.839   6.063   5.706  1.4925  1.2494  0.4418
  101MOL    H2626226   2.675   6.367   5.568 -0.8943  1.7901  0.8607
  101MOL    H2726227   2.812   6.470   5.624  0.2542  0.7844  1.9159
  101MOL    C2826228   2.635   6.426   5.758  0.3185  0.7548  0.1936
  101MOL    C2926229   2.541   6.532   5.706 -0.1981  0.1853 -0.5524
  101MOL    C3026230   2.423   6.530   5.642 -0.7238  0.2114  0.2617
  101MOL    C3126231   2.360   6.649   5.577  0.0750 -0.2516  0.6671
  101MOL    C3226232   2.356   6.396   5.614  0.4229 -0.3837  0.2758
  101MOL    H3326233   2.693   6.462   5.843  1.5933  1.7440 -1.0559
  101MOL    H3426234   2.578   6.344   5.801  1.4034 -0.6863 -1.0572
  101MOL    H3526235   2.582   6.628   5.731  0.3328  0.0437 -0.8681
  101MOL    H3626236   2.366   6.645   5.468  1.9300 -1.6097  0.7994
  101MOL    H3726237   2.412   6.739   5.608 -1.9931  1.1206  0.2469
  101MOL    H3826238   2.253   6.658   5.598  0.1192 -0.8527  1.1900
  101MOL    H3926239   2.257   6.387   5.659  0.9875 -1.1902  1.4042
  101MOL    H4026240   2.401   6.314   5.670 -0.2415 -2.1401 -1.7014
  101MOL    C4126241   2.341   6.366   5.467 -0.5386  0.3208 -0.0263
  101MOL    C4226242   2.281   6.231   5.440  0.2013  0.6058  0.2048
  101MOL    C4326243   2.196   6.197   5.342  0.4527  0.0049  0.0015
  101MOL    C4426244   2.140   6.054   5.332  0.6618  0.3391  0.1109
  101MOL    C4526245   2.147   6.286   5.230  0.1553  0.4192 -0.5731
  101MOL    H4626246   2.442   6.364   5.426  0.0152 -0.4131  1.3532
  101MOL    H4726247   2.295   6.447   5.410 -0.6758 -1.0675 -1.9320
  101MOL    H4826248   2.306   6.150   5.507  0.1337 -0.1936 -0.7268
  101MOL    H4926249   2.169   5.997   5.420  1.5742  1.5683  0.6254
  101MOL    H5026250   2.199   6.009   5.252 -1.1497 -0.8383 -0.5825
  101MOL    H5126251   2.035   6.030   5.316  1.1177 -2.1652  0.6415
  101MOL    H5226252   2.142   6.226   5.139  1.1568  0.5888 -0.7449
  101MOL    H5326253   2.218   6.369   5.224  1.0546  0.0421  3.2454
  101MOL    C5426254   2.010   6.348   5.254  0.5987 -0.3301  0.0862
  101MOL    C5526255   1.893   6.252   5.241  0.3564  0.0672  0.1436
  101MOL    C5626256   1.794   6.240   5.327  0.2549 -0.3491  0.4692
  101MOL    C5726257   1.686   6.132   5.300 -0.2440 -0.2772 -0.7852
  101MOL    C5826258   1.776   6.333   5.450 -0.7440  0.8034 -0.7511
  101MOL    H5926259   2.000   6.427   5.180 -1.3594 -0.8601 -0.2388
  101MOL    H6026260   2.004   6.396   5.351 -2.1706 -0.5907  0.0691
  101MOL    H6126261   1.900   6.187   5.154  1.6865  1.0458 -0.4923
  101MOL    H6226262   1.661   6.067   5.383 -0.1232  0.3441 -0.2633
  101MOL    H6326263   1.712   6.063   5.220 -0.9745 -1.0766 -0.3385
  101MOL    H6426264   1.592   6.174   5.262 -1.4596 -2.0975  0.1257
  101MOL    H6526265   1.668   6.339   5.462 -0.4563 -0.2575  2.9143
  101MOL    H6626266   1.818   6.432   5.433 -0.2460  0.4495 -1.5862
  101MOL    C6726267   1.823   6.271   5.582  0.4412 -0.0402 -0.3873
  101MOL    C6826268   1.787   6.355   5.704 -0.5239 -0.2155  0.0673
  101MOL    C6926269   1.847   6.468   5.748  0.2052  0.6210  0.3067
  101MOL    C7026270   1.783   6.534   5.872  0.0710  0.1113 -0.4235
  101MOL    C7126271   1.968   6.533   5.674 -0.6521 -0.1704 -0.2952
  101MOL    H7226272   1.931   6.259   5.580  0.2737 -2.0717  0.9707
  101MOL    H7326273   1.784   6.170   5.599 -0.3150  0.7455  2.9483
  101MOL    H7426274   1.691   6.325   5.745 -1.5016  0.4850 -1.6561
  101MOL    H7526275   1.796   6.642   5.873  0.9839  0.0134 -1.0067
  101MOL    H7626276   1.838   6.505   5.961 -0.8941  2.9096  1.1265
  101MOL    H7726277   1.680   6.513   5.901  0.8609  1.9100  3.9435
  101MOL    H7826278   1.975   6.484   5.577  0.4075  1.1774 -0.9241
  101MOL    H7926279   2.055   6.510   5.735 -0.6548 -1.7162 -0.8588
  101MOL    C8026280   1.950   6.678   5.638 -0.9427 -0.2230  0.3206
  101MOL    C8126281   1.845   6.696   5.528 -0.2341  0.4415 -0.1690
  101MOL    C8226282   1.868   6.745   5.400 -0.1564  0.4456 -0.0364
  101MOL    C8326283   2.012   6.773   5.351  0.2600 -0.2147 -0.3108
  101MOL    C8426284   1.761   6.774   5.298  0.0910  0.5418  0.2554
  101MOL    H8526285   2.048   6.719   5.612 -0.4934 -1.9250 -0.7688
  101MOL    H8626286   1.928   6.737   5.726  2.6718  1.1419  0.4002
  101MOL    H8726287   1.742   6.686   5.559  0.1615  0.1429  1.0743
  101MOL    H8826288   2.095   6.741   5.415 -0.4080 -2.0816 -0.3691
  101MOL    H8926289   2.015   6.881   5.365 -1.5725 -0.1316 -0.4351
  101MOL    H9026290   2.028   6.753   5.245  1.4758  3.2134 -0.8669
  101MOL    H9126291   1.765   6.880   5.272  1.6971  0.6288  0.7896
  101MOL    H9226292   1.669   6.766   5.356  1.2556  1.0689  2.2354
  101MOL    C9326293   1.766   6.677   5.179  0.2331  0.5412  0.1556
  101MOL    C9426294   1.631   6.687   5.105  0.4500  0.2038  0.4767
  101MOL    C9526295   1.548   6.593   5.048  0.1552  0.4512 -0.0262
  101MOL    C9626296   1.420   6.618   4.968  0.1255  0.1731 -0.4379
  101MOL    C9726297   1.594   6.444   5.037  0.4577  0.2342  0.2639
  101MOL    H9826298   1.784   6.574   5.210  2.1860  1.0567  0.8146
  101MOL    H9926299   1.839   6.692   5.099  0.3349 -0.0626  0.1337
  101MOL   H10026300   1.591   6.787   5.093 -0.9707 -0.5681 -1.3575
  101MOL   H10126301   1.338   6.549   4.987 -1.8399  2.6134  0.1550
  101MOL   H10226302   1.360   6.706   4.990  0.1220  0.3146 -1.0007
  101MOL   H10326303   1.442   6.638   4.863 -0.0562 -1.8797 -0.8895
  101MOL   H10426304   1.507   6.379   5.048  1.0490 -0.6670 -0.3081
  101MOL   H10526305   1.646   6.412   5.127  0.3945  0.8426  0.5138
  101MOL   C10626306   1.658   6.404   4.903 -0.0457 -0.2021  0.1783
  101MOL   C10726307   1.776   6.489   4.861 -0.0003 -1.1008 -0.6602
  101MOL   C10826308   1.907   6.457   4.843 -0.2644 -0.1527  0.7637
  101MOL   C10926309   1.962   6.318   4.857  0.5915  0.1030 -0.0109
  101MOL   C11026310   2.002   6.564   4.799  0.6277 -0.6799  0.0936
  101MOL   H11126311   1.584   6.410   4.823  1.2421  0.3033 -0.9814
  101MOL   H11226312   1.689   6.300   4.896  0.3201 -0.1915  1.4791
  101MOL   H11326313   1.739   6.590   4.855  0.3017 -1.0135 -1.1445
  101MOL   H11426314   1.885   6.248   4.890 -1.1008  1.2804 -1.3259
  101MOL   H11526315   1.999   6.281   4.761 -2.8482  0.3812 -1.5324
  101MOL   H11626316   2.044   6.314   4.928 -0.5828 -0.6249  1.3475
  101MOL   H11726317   1.944   6.655   4.786  0.7381 -0.2151  2.6266
  101MOL   H11826318   2.061   6.533   4.712 -0.9435  0.4270 -1.3930
  101MOL   C11926319   2.097   6.598   4.910 -0.7997 -0.1532  0.0912
  101MOL   C12026320   2.191   6.714   4.874  1.1011 -0.3386 -0.5815
  101MOL   C12126321   2.322   6.719   4.896  1.0836  0.0200 -0.5610
  101MOL   C12226322   2.398   6.845   4.857  0.0899 -0.4485  0.5904
  101MOL   C12326323   2.403   6.628   4.986  0.1971  0.2181  0.2069
  101MOL   H12426324   2.160   6.512   4.931 -1.5393 -1.4644 -2.7865
  101MOL   H12526325   2.049   6.618   5.006  0.6613 -1.0320  1.0276
  101MOL   H12626326   2.142   6.789   4.812 -1.2860 -0.3859  1.2061
  101MOL   H12726327   2.497   6.818   4.820 -0.2428 -0.9152  0.0408
  101MOL   H12826328   2.422   6.910   4.941  1.6584  1.0222 -0.9459
  101MOL   H12926329   2.339   6.905   4.788  0.7488 -0.6731 -0.1653
  101MOL   H13026330   2.344   6.581   5.066 -0.1705  1.2952  0.5721
  101MOL   H13126331   2.463   6.694   5.048 -0.6746 -1.7619  3.3154
  101MOL   C13226332   2.494   6.522   4.917  0.3946 -0.2629 -0.5807
  101MOL   C13326333   2.416   6.419   4.850 -0.0801  0.3791  0.3692
  101MOL   C13426334   2.427   6.284   4.859  0.5341  0.2909 -0.1695
  101MOL   C13526335   2.328   6.200   4.785 -0.2450 -0.1709 -0.3101
  101MOL   C13626336   2.529   6.199   4.939 -0.2305 -0.3342  0.5495
  101MOL   H13726337   2.551   6.472   4.994 -0.7553  1.2450  1.2887
  101MOL   H13826338   2.557   6.566   4.840  0.0709  0.8084 -0.2454
  101MOL   H13926339   2.350   6.469   4.781  0.8093  0.5337 -0.3769
  101MOL   H14026340   2.386   6.124   4.732  0.1888  0.8954 -1.3843
  101MOL   H14126341   2.269   6.251   4.708 -1.6380 -1.5798 -0.2051
  101MOL   H14226342   2.259   6.156   4.858  0.4988 -2.0309 -0.6965
  101MOL   H14326343   2.622   6.252   4.961  0.3976 -0.6181 -1.3593
  101MOL   H14426344   2.572   6.113   4.888 -2.3744  0.0533 -2.0619
  101MOL   C14526345   2.471   6.150   5.075 -0.0523 -0.8239  0.6352
  101MOL   C14626346   2.559   6.045   5.143  0.6935 -0.1070 -0.3517
  101MOL   C14726347   2.665   6.062   5.221 -0.2914  0.0564 -0.0673
  101MOL   C14826348   2.725   5.946   5.299  0.5292 -0.2584 -0.4525
  101MOL   C14926349   2.716   6.198   5.265 -0.2400 -0.5984 -0.1651
  101MOL   H15026350   2.379   6.093   5.063 -0.2138 -0.6443  1.0007
  101MOL   H15126351   2.453   6.231   5.147 -0.7196  1.4230 -1.9682
  101MOL   H15226352   2.517   5.946   5.147 -1.3925  0.7968  0.8629
  101MOL   H15326353   2.726   5.974   5.405  4.1627  0.3216 -0.5765
  101MOL   H15426354   2.827   5.920   5.271  1.1952  0.6987  1.0038
  101MOL   H15526355   2.666   5.857   5.279  1.8040 -1.5889  1.4612
  101MOL   H15626356   2.700   6.208   5.373  3.1812 -2.3426  0.5606
  101MOL   H15726357   2.665   6.281   5.216  2.4447  0.4719 -1.2584
  101MOL   C15826358   2.864   6.235   5.233 -0.8182  0.0443  0.0268
  101MOL   C15926359   2.919   6.342   5.321  0.1132 -0.2699  0.0664
  101MOL   C16026360   3.007   6.436   5.284 -0.1982 -0.4595 -0.3309
  101MOL   C16126361   3.048   6.471   5.142 -0.7631 -0.2153  0.6446
  101MOL   C16226362   3.055   6.538   5.386  1.0522  0.4443  0.3955
  101MOL   H16326363   2.905   6.242   5.132 -2.6488  0.0730 -0.7384
  101MOL   H16426364   2.918   6.153   5.281  1.2890  1.5235  0.2474
  101MOL   H16526365   2.893   6.335   5.426 -3.3485  0.8969 -0.6480
  101MOL   H16626366   3.156   6.473   5.127 -0.8961  1.2554 -0.2374
  101MOL   H16726367   3.015   6.571   5.115 -0.6214 -1.0906 -3.1312
  101MOL   H16826368   3.006   6.418   5.056 -2.9264  0.0339  1.5265
  101MOL   H16926369   3.164   6.543   5.385  1.1925 -2.1499 -0.5493
  101MOL   H17026370   3.035   6.505   5.488 -2.0922  0.4477 -0.1520
  101MOL   C17126371   3.013   6.689   5.362 -0.1071  0.4477  0.5622
  101MOL   C17226372   2.875   6.722   5.400  0.4397  0.3330 -0.1977
  101MOL   C17326373   2.782   6.773   5.321  0.6955  0.1982 -0.3497
  101MOL   C17426374   2.813   6.793   5.170  0.3354  0.5162 -0.7642
  101MOL   C17526375   2.635   6.781   5.360 -0.1060  0.3491 -0.5989
  101MOL   H17626376   3.049   6.708   5.260  1.5097 -2.0728  0.6288
  101MOL   H17726377   3.083   6.753   5.416  2.1545 -0.7450 -0.8939
  101MOL   H17826378   2.841   6.709   5.501  0.7116 -0.9678 -0.2607
  101MOL   H17926379   2.739   6.843   5.108  0.5667  1.1484 -0.5334
  101MOL   H18026380   2.829   6.694   5.127 -0.5909  0.0861 -0.1515
  101MOL   H18126381   2.899   6.859   5.159  1.1783 -0.2809  0.7777
  101MOL   H18226382   2.619   6.723   5.451  0.1210  0.7608 -0.2977
  101MOL   H18326383   2.580   6.723   5.286  2.5637 -1.0935 -1.5209
  101MOL   C18426384   2.588   6.932   5.388 -0.0857  0.4877  0.4112
  101MOL   C18526385   2.437   6.938   5.418  0.5112  0.1351  0.2749
  101MOL   C18626386   2.372   7.035   5.492 -0.5290  0.0945  0.0428
  101MOL   C18726387   2.221   7.050   5.508  0.5469  0.3430  0.5047
  101MOL   C18826388   2.450   7.144   5.569  0.2589  0.0106  0.6934
  101MOL   H18926389   2.603   6.988   5.295 -1.4819 -0.8336 -0.6241
  101MOL   H19026390   2.659   6.981   5.454  1.0716  0.6090 -0.8999
  101MOL   H19126391   2.366   6.875   5.366 -1.7576  0.6114  2.6880
  101MOL   H19226392   2.187   7.102   5.597 -1.1292  0.0286  0.0638
  101MOL   H19326393   2.177   6.950   5.510  1.5194 -0.1074 -0.1547
  101MOL   H19426394   2.186   7.093   5.415 -1.4019  3.4062  2.5846
  101MOL   H19526395   2.558   7.132   5.568  0.2203 -0.3136  0.3903
  101MOL   H19626396   2.420   7.119   5.671 -2.5169  2.2740  0.5007
  101MOL   C19726397   2.402   7.281   5.541  0.4112 -0.3292 -0.1122
  101MOL   C19826398   2.479   7.386   5.610 -1.1383 -0.5928  0.2506
  101MOL   C19926399   2.462   7.434   5.731 -0.2355  0.3532  0.4489
  101MOL   C20026400   2.558   7.538   5.786  0.2102  0.1650 -0.3050
  101MOL   C20126401   2.354   7.396   5.833 -1.1962 -0.4377  0.4940
  101MOL   H20226402   2.294   7.287   5.554  0.4748  1.5559 -0.2422
  101MOL   H20326403   2.416   7.292   5.433 -2.4190  3.1391 -0.1938
  101MOL   H20426404   2.563   7.428   5.557 -1.9396  0.6036 -0.0901
  101MOL   H20526405   2.567   7.554   5.893  3.0394  0.1708 -0.5075
  101MOL   H20626406   2.550   7.625   5.720 -0.4076 -0.8001 -1.5178
  101MOL   H20726407   2.657   7.503   5.760 -0.2225 -1.1383 -0.2472
  101MOL   H20826408   2.402   7.394   5.931 -0.1770  3.2377  0.1268
  101MOL   H20926409   2.329   7.291   5.819 -1.8043 -0.3143  0.6441
  101MOL   C21026410   2.229   7.488   5.819  0.0583  0.4158  0.2335
  101MOL   C21126411   2.116   7.445   5.910  0.1711 -0.3360 -1.0309
  101MOL   C21226412   1.987   7.417   5.879  0.4030  0.3676  0.9611
  101MOL   C21326413   1.897   7.371   5.988 -0.6979 -0.4097 -0.1958
  101MOL   C21426414   1.936   7.406   5.740 -0.2089 -0.0873  0.4410
  101MOL   H21526415   2.200   7.491   5.714  1.6272  0.8984 -0.2060
  101MOL   H21626416   2.263   7.588   5.848  1.3288  0.7014 -2.0815
  101MOL   H21726417   2.145   7.446   6.014  1.2361 -2.3152 -1.2649
  101MOL   H21826418   1.817   7.446   5.991  0.6149  0.9891  0.7681
  101MOL   H21926419   1.946   7.370   6.086 -1.5106 -0.7461  0.2138
  101MOL   H22026420   1.866   7.271   5.958 -1.4271 -0.6659  1.3643
  101MOL   H22126421   1.864   7.326   5.721  0.6199 -0.1768 -2.5516
  101MOL   H22226422   2.016   7.389   5.668 -3.5877 -1.1173 -3.2189
  101MOL   C22326423   1.858   7.523   5.700 -0.3576  0.3222  0.2253
  101MOL   C22426424   1.810   7.505   5.560 -0.0832  0.0518 -0.3054
  101MOL   C22526425   1.882   7.534   5.451  0.4054  0.7010 -0.0488
  101MOL   C22626426   1.827   7.510   5.311  0.5297  0.0808 -0.0676
  101MOL   C22726427   2.026   7.587   5.447  0.4276 -0.4870 -0.5929
  101MOL   H22826428   1.910   7.617   5.717  1.1352 -0.3716 -0.4549
  101MOL   H22926429   1.769   7.532   5.763  0.3625 -2.0892  1.6910
  101MOL   H23026430   1.707   7.471   5.554  0.2700 -1.3490  1.1894
  101MOL   H23126431   1.876   7.425   5.264  0.4556 -0.4270  0.7560
  101MOL   H23226432   1.837   7.600   5.251 -3.2826  2.7235  3.0587
  101MOL   H23326433   1.719   7.497   5.317  0.7401 -1.8952 -0.2911
  101MOL   H23426434   2.060   7.568   5.549  2.0494  0.6472 -0.9002
  101MOL   H23526435   2.034   7.695   5.438  0.0332 -0.3318  0.7235
  101MOL   C23626436   2.122   7.526   5.343  0.7655  0.9309 -0.3162
  101MOL   C23726437   2.263   7.578   5.357  0.8299  0.2025  0.0094
  101MOL   C23826438   2.327   7.659   5.276  0.1594 -0.1990  0.9996
  101MOL   C23926439   2.471   7.706   5.316  0.5425 -0.0845  0.3244
  101MOL   C24026440   2.267   7.722   5.154  0.0477 -0.5198 -0.4049
  101MOL   H24126441   2.087   7.525   5.240 -4.8375 -4.6786  1.3257
  101MOL   H24226442   2.125   7.418   5.359  1.8109  0.7741 -1.4743
  101MOL   H24326443   2.308   7.530   5.442 -2.5380 -0.6800  1.3562
  101MOL   H24426444   2.531   7.723   5.227  0.0446 -1.1431 -0.2290
  101MOL   H24526445   2.524   7.639   5.384  0.1916  0.4973  1.1771
  101MOL   H24626446   2.454   7.800   5.367 -3.1274  0.4981 -1.7363
  101MOL   H24726447   2.292   7.827   5.144  0.4940 -0.3698  1.9433
  101MOL   H24826448   2.159   7.723   5.172  0.1781  0.4715  0.3978
  101MOL   C24926449   2.307   7.648   5.018 -0.8430  0.2805  0.1518
  101MOL   C25026450   2.268   7.725   4.893  0.3852  0.1737  0.5890
  101MOL   C25126451   2.351   7.799   4.817 -0.2746 -0.4575 -0.1267
  101MOL   C25226452   2.293   7.875   4.703 -0.8142  0.0361  0.4298
  101MOL   C25326453   2.498   7.816   4.853 -0.2481 -0.3044 -0.2996
  101MOL   H25426454   2.252   7.554   5.009 -1.7205  0.9547 -1.8033
  101MOL   H25526455   2.412   7.621   5.024 -0.5833  1.6669  1.8421
  101MOL   H25626456   2.163   7.722   4.866  0.4637 -0.9809  0.3822
  101MOL   H25726457   2.269   0.097   4.735 -0.9476  0.3811 -0.7519
  101MOL   H25826458   2.209   7.822   4.657 -0.1337  0.0796 -0.8697
  101MOL   H25926459   2.370   0.000   4.627 -0.7224 -3.9015  0.1718
  101MOL   H26026460   2.560   7.730   4.827 -0.3291 -0.7787  1.0248
  101MOL   H26126461   2.521   7.821   4.959  1.7126  2.1138 -0.7904
  101MOL   H26226462   2.531   0.025   4.798  3.7242 -1.8155 -0.4520
  102MOL     C126463   3.793   5.611   1.704 -0.5762 -0.1814  0.0640
  102MOL     C226464   3.781   5.470   1.639 -0.8916 -0.2602 -0.6948
  102MOL     C326465   3.864   5.365   1.675 -0.5287 -0.4916  0.2976
  102MOL     C426466   3.844   5.237   1.613  0.4512  0.1408 -0.0672
  102MOL     C526467   3.961   5.372   1.791  0.0836  0.8077 -0.1856
  102MOL     H626468   3.869   5.611   1.782 -1.0498  0.4465  0.5223
  102MOL     H726469   3.811   5.685   1.626 -0.5613 -0.4447 -0.1840
  102MOL     H826470   3.710   5.465   1.558 -0.1436 -0.9412 -1.3168
  102MOL     H926471   3.811   5.163   1.686  2.4129  0.4937  1.1983
  102MOL    H1026472   3.940   5.213   1.567  0.5090 -2.1747  1.1689
  102MOL    H1126473   3.760   5.248   1.545 -0.9389  0.8383  1.7600
  102MOL    H1226474   3.959   5.272   1.835 -1.0520  1.0723  0.3976
  102MOL    H1326475   3.920   5.433   1.872 -1.0804  2.5875 -2.0548
  102MOL    H1426476   3.695   5.632   1.747  0.6697  1.2580  2.2682
  102MOL    C1526477   4.105   5.416   1.762 -0.2571 -0.2283  0.1696
  102MOL    C1626478   4.202   5.411   1.877 -0.7171 -0.6087  0.6205
  102MOL    C1726479   4.207   5.506   1.970  0.1550  0.2078  0.4266
  102MOL    C1826480   4.308   5.483   2.084  0.3965 -1.4561  0.5204
  102MOL    C1926481   4.131   5.636   1.963 -0.8255  1.1563 -0.2554
  102MOL    H2026482   4.094   5.512   1.712  1.3367 -0.9195 -1.5890
  102MOL    H2126483   4.146   5.352   1.684  1.6233  0.9159  0.2050
  102MOL    H2226484   4.269   5.329   1.892  0.1952  0.2347  1.2082
  102MOL    H2326485   4.364   5.577   2.089  0.7311 -1.6871  1.1223
  102MOL    H2426486   4.363   5.391   2.068  1.3922 -0.7586 -0.0967
  102MOL    H2526487   4.256   5.474   2.180  0.4750 -0.3588  0.6718
  102MOL    H2626488   4.085   5.662   1.868  0.3512 -1.5440 -1.6032
  102MOL    H2726489   4.196   5.717   1.998  0.6381 -0.1914  0.2239
  102MOL    C2826490   4.021   5.640   2.073 -0.1580 -0.4034  0.2627
  102MOL    C2926491   3.936   5.766   2.080  0.8116  0.2419  0.3954
  102MOL    C3026492   3.806   5.765   2.129  0.2913 -0.8715 -0.0075
  102MOL    C3126493   3.720   5.892   2.115  0.1568 -0.0499 -0.1135
  102MOL    C3226494   3.743   5.645   2.198  0.0642 -0.1680 -0.6116
  102MOL    H3326495   4.073   5.644   2.169 -2.7913  1.5826  1.6834
  102MOL    H3426496   3.959   5.551   2.085 -1.1959  0.4234  1.1431
  102MOL    H3526497   3.979   5.855   2.035  0.2800  2.6988  4.4934
  102MOL    H3626498   3.707   5.952   2.205 -1.6829 -1.0639  0.3196
  102MOL    H3726499   3.613   5.880   2.096  0.1856 -1.0120  0.3032
  102MOL    H3826500   3.751   5.961   2.037 -2.8857  0.2121 -1.1575
  102MOL    H3926501   3.695   5.693   2.284 -2.2607 -2.7277 -0.3837
  102MOL    H4026502   3.806   5.575   2.252  0.4255  1.0610  0.5696
  102MOL    C4126503   3.624   5.573   2.118  0.2311 -0.2033  0.1237
  102MOL    C4226504   3.665   5.467   2.027  0.0914  0.3255  0.6340
  102MOL    C4326505   3.668   5.333   2.051  0.8929 -0.2270 -0.3934
  102MOL    C4426506   3.693   5.223   1.952  0.4972 -0.8590 -0.2007
  102MOL    C4526507   3.625   5.273   2.190 -0.1499 -0.2648  0.1715
  102MOL    H4626508   3.568   5.645   2.059 -0.6003 -1.0122 -0.0982
  102MOL    H4726509   3.554   5.528   2.189  2.1826 -2.1034  0.8757
  102MOL    H4826510   3.690   5.499   1.927 -2.0802 -1.8840 -0.6722
  102MOL    H4926511   3.785   5.169   1.973 -0.0893 -1.5587  0.5788
  102MOL    H5026512   3.681   5.252   1.848  0.5608 -0.8097 -0.1945
  102MOL    H5126513   3.622   5.145   1.977  0.5939 -0.8404  0.1331
  102MOL    H5226514   3.667   5.338   2.267  0.2898 -1.0844  0.6325
  102MOL    H5326515   3.674   5.178   2.214 -1.3511 -1.0515 -0.4340
  102MOL    C5426516   3.473   5.256   2.207  0.0269  0.5364  0.5769
  102MOL    C5526517   3.437   5.231   2.355  0.2520 -0.1855 -0.8293
  102MOL    C5626518   3.372   5.133   2.412 -0.4585 -0.2936 -0.4890
  102MOL    C5726519   3.360   5.132   2.559  0.4062  0.1494 -1.0415
  102MOL    C5826520   3.320   5.012   2.336 -0.2048  0.4713 -0.3683
  102MOL    H5926521   3.449   5.170   2.143 -1.7560  1.6484 -0.2756
  102MOL    H6026522   3.407   5.338   2.181  1.0595  1.1721 -0.0950
  102MOL    H6126523   3.476   5.298   2.430 -0.0181  1.3632 -2.0448
  102MOL    H6226524   3.396   5.034   2.590 -1.1545  0.1625  0.8918
  102MOL    H6326525   3.260   5.159   2.592  0.2909 -0.7081 -0.6760
  102MOL    H6426526   3.419   5.211   2.605 -0.3873 -0.9246  1.9154
  102MOL    H6526527   3.287   5.035   2.235 -3.7947 -1.8412  0.1941
  102MOL    H6626528   3.226   4.978   2.379  0.9252 -0.6415  1.2655
  102MOL    C6726529   3.428   4.902   2.324 -0.1149 -0.2112  0.0911
  102MOL    C6826530   3.376   4.765   2.291 -0.4585  0.4222  0.2778
  102MOL    C6926531   3.402   4.691   2.179 -0.8291  0.3074 -0.9135
  102MOL    C7026532   3.343   4.553   2.164 -0.5557 -0.0599  0.0079
  102MOL    C7126533   3.497   4.733   2.075 -0.0281 -0.8775 -0.4224
  102MOL    H7226534   3.468   4.900   2.426  2.1460  1.2321 -0.7241
  102MOL    H7326535   3.516   4.936   2.268  0.0495 -0.0293  0.4587
  102MOL    H7426536   3.303   4.720   2.356  0.6173 -1.3416  0.3129
  102MOL    H7526537   3.242   4.540   2.204 -0.4462 -1.9549 -0.2683
  102MOL    H7626538   3.412   4.477   2.201 -0.5065 -0.3226 -0.6206
  102MOL    H7726539   3.331   4.546   2.056  1.1610  1.0837 -0.2793
  102MOL    H7826540   3.566   4.652   2.051  0.9719 -0.2044  0.1451
  102MOL    H7926541   3.572   4.801   2.115 -1.4897  1.6243 -1.8291
  102MOL    C8026542   3.427   4.792   1.954 -0.2376  0.2164 -0.2365
  102MOL    C8126543   3.520   4.847   1.847  0.4104 -0.1994  0.9416
  102MOL    C8226544   3.516   4.818   1.714  0.1600  0.2859  0.7004
  102MOL    C8326545   3.404   4.735   1.653 -0.4800  0.0111 -0.7573
  102MOL    C8426546   3.616   4.878   1.615 -0.4580  0.4026 -0.2543
  102MOL    H8526547   3.362   4.875   1.979  1.5751  1.7871 -0.6154
  102MOL    H8626548   3.362   4.716   1.909  0.5964 -1.0737  0.7083
  102MOL    H8726549   3.594   4.918   1.883  0.4635 -0.5697  1.5583
  102MOL    H8826550   3.439   4.686   1.562 -1.8416 -2.6713  0.1151
  102MOL    H8926551   3.318   4.796   1.626 -1.5655 -0.5195  1.3789
  102MOL    H9026552   3.380   4.655   1.723 -0.2907  1.3710  0.8916
  102MOL    H9126553   3.669   4.792   1.573  0.0762  0.0725  1.0625
  102MOL    H9226554   3.684   4.931   1.682 -2.8226  1.3912  1.4356
  102MOL    C9326555   3.547   4.960   1.508  0.1855 -0.3386 -0.0427
  102MOL    C9426556   3.501   5.092   1.564  0.1166 -0.0307 -0.1597
  102MOL    C9526557   3.463   5.198   1.494  0.3598  0.3741  1.1805
  102MOL    C9626558   3.411   5.310   1.573 -0.1068  0.4335 -0.2668
  102MOL    C9726559   3.437   5.212   1.345  0.5446  0.0397 -0.2938
  102MOL    H9826560   3.468   4.904   1.460 -0.3753  0.8362 -0.5162
  102MOL    H9926561   3.631   4.979   1.440 -0.7729  2.6466 -0.4943
  102MOL   H10026562   3.504   5.095   1.672 -0.5523 -0.7190 -0.1160
  102MOL   H10126563   3.467   5.403   1.559  0.0959  0.2899 -0.4129
  102MOL   H10226564   3.306   5.327   1.548 -0.0296 -1.8854 -2.3511
  102MOL   H10326565   3.416   5.293   1.681 -2.3955 -0.1353 -0.2197
  102MOL   H10426566   3.331   5.216   1.321  0.4274 -0.8270  0.0689
  102MOL   H10526567   3.469   5.123   1.291  1.7760  0.6255 -0.5559
  102MOL   C10626568   3.512   5.333   1.276 -0.9298  0.3299  0.2418
  102MOL   C10726569   3.545   5.309   1.126  0.2714 -0.2387 -0.6266
  102MOL   C10826570   3.582   5.400   1.033  0.5308  0.1122  0.0684
  102MOL   C10926571   3.592   5.550   1.076 -0.7851 -0.2828  0.1566
  102MOL   C11026572   3.600   5.355   0.888  0.3870 -0.1765  0.4962
  102MOL   H11126573   3.601   5.356   1.334  0.0687 -0.8550 -0.7848
  102MOL   H11226574   3.438   5.413   1.282 -0.5782  0.7379 -0.7593
  102MOL   H11326575   3.545   5.204   1.102  1.8052 -0.5402  0.5908
  102MOL   H11426576   3.627   5.562   1.178  0.5924 -0.3331 -0.2873
  102MOL   H11526577   3.661   5.607   1.013 -0.2766 -0.0049  0.9696
  102MOL   H11626578   3.496   5.600   1.073  0.8859  3.0271 -1.6009
  102MOL   H11726579   3.513   5.392   0.834  0.1515 -0.2748  0.8095
  102MOL   H11826580   3.601   5.246   0.882 -3.0087 -0.2039 -0.8233
  102MOL   C11926581   3.741   5.377   0.826 -0.5376  0.4268 -0.1214
  102MOL   C12026582   3.741   5.359   0.672  0.0543 -0.4952 -0.1240
  102MOL   C12126583   3.681   5.441   0.584 -0.3040  0.6232  0.0579
  102MOL   C12226584   3.690   5.427   0.431 -0.7732 -0.6695 -0.2471
  102MOL   C12326585   3.614   5.573   0.637 -0.5035 -0.0332  0.5151
  102MOL   H12426586   3.804   5.315   0.889  2.5055  2.6980 -0.7929
  102MOL   H12526587   3.770   5.481   0.843  0.3403  0.0724  0.6198
  102MOL   H12626588   3.803   5.278   0.639 -0.6161 -1.4654  0.9548
  102MOL   H12726589   3.769   5.357   0.401  0.7329  1.6107 -1.8063
  102MOL   H12826590   3.702   5.527   0.388 -2.1273  0.2953  1.5897
  102MOL   H12926591   3.599   5.392   0.384 -0.7356  0.7170 -1.4040
  102MOL   H13026592   3.587   5.576   0.743  1.1968 -0.9745  0.9909
  102MOL   H13126593   3.516   5.576   0.590  0.4859  0.1634 -1.5952
  102MOL   C13226594   3.677   5.701   0.586 -0.3079  0.7985  0.2949
  102MOL   C13326595   3.615   5.829   0.638 -0.8039 -0.0771  0.1619
  102MOL   C13426596   3.671   5.945   0.684  0.1463 -0.7516  0.0839
  102MOL   C13526597   3.577   6.051   0.739  0.0766 -0.0418 -0.2600
  102MOL   C13626598   3.823   5.965   0.698 -0.1391  0.7347 -0.5291
  102MOL   H13726599   3.648   5.711   0.482  1.1619  0.2838 -0.1808
  102MOL   H13826600   3.784   5.712   0.605 -0.6510  1.6822  1.8243
  102MOL   H13926601   3.509   5.835   0.617 -0.3619  1.4913 -1.7711
  102MOL   H14026602   3.473   6.030   0.713 -0.0597 -1.2265  1.1841
  102MOL   H14126603   3.611   6.154   0.724 -0.9540  0.3288 -0.1414
  102MOL   H14226604   3.575   6.039   0.847  2.6449 -1.1117 -0.3122
  102MOL   H14326605   3.844   6.066   0.661 -0.1099  0.6113 -0.8411
  102MOL   H14426606   3.882   5.893   0.642  0.6222  0.9687 -0.0391
  102MOL   C14526607   3.863   5.952   0.840 -0.9861 -0.5545  0.7695
  102MOL   C14626608   4.013   5.974   0.854 -0.9673 -0.4874 -0.6117
  102MOL   C14726609   4.103   5.885   0.899 -0.0204  0.2886  0.2848
  102MOL   C14826610   4.251   5.924   0.899  0.0384  0.8542  0.7265
  102MOL   C14926611   4.078   5.748   0.962  0.8830 -0.6866  0.7449
  102MOL   H15026612   3.829   5.858   0.882  0.1528 -1.6492 -0.7168
  102MOL   H15126613   3.814   6.040   0.883 -1.4980 -1.2450  1.6182
  102MOL   H15226614   4.045   6.066   0.806 -0.5256 -0.3078  0.0263
  102MOL   H15326615   4.287   6.007   0.839  1.6969  0.4229  1.1039
  102MOL   H15426616   4.310   5.841   0.860 -1.3161  0.6861 -1.0527
  102MOL   H15526617   4.292   5.948   0.997 -0.6247  0.0874  1.2031
  102MOL   H15626618   4.116   5.668   0.899  1.2218  0.4976 -0.5832
  102MOL   H15726619   3.971   5.729   0.969  0.7187  0.8662  3.1280
  102MOL   C15826620   4.146   5.730   1.099  0.1441 -0.1048  0.2004
  102MOL   C15926621   4.096   5.594   1.159 -0.0470  0.1671 -0.1488
  102MOL   C16026622   4.071   5.564   1.288 -0.7885 -0.3862  0.2766
  102MOL   C16126623   4.094   5.648   1.407  0.1551  0.8732  0.6467
  102MOL   C16226624   4.021   5.429   1.339  0.3395 -0.3371  0.0758
  102MOL   H16326625   4.113   5.810   1.165 -1.7061 -0.0272 -0.7638
  102MOL   H16426626   4.254   5.742   1.093  0.0018  0.1464 -2.4795
  102MOL   H16526627   4.074   5.525   1.079 -0.7468 -0.8969  0.9365
  102MOL   H16626628   4.138   5.737   1.363  0.5172  0.6046  0.4608
  102MOL   H16726629   4.172   5.598   1.465 -0.4539  1.3125  1.8594
  102MOL   H16826630   4.010   5.682   1.467  2.6440 -0.9353  5.4225
  102MOL   H16926631   3.916   5.454   1.355  0.7304  0.8549  0.8722
  102MOL   H17026632   4.072   5.392   1.427 -0.9253 -1.9487  0.1576
  102MOL   C17126633   4.035   5.317   1.234  0.2087  0.6493 -0.0583
  102MOL   C17226634   4.049   5.177   1.293 -0.5504 -1.7896  0.0373
  102MOL   C17326635   3.950   5.085   1.293 -0.4572 -0.1665  0.0838
  102MOL   C17426636   3.812   5.108   1.238  0.4867 -0.0894  0.8501
  102MOL   C17526637   3.967   4.944   1.348  0.3468 -0.1429  0.2802
  102MOL   H17626638   4.135   5.339   1.195 -0.4669  0.1286 -2.1865
  102MOL   H17726639   3.968   5.314   1.147 -1.1688 -0.6973  1.0252
  102MOL   H17826640   4.149   5.165   1.333  0.1735  1.3364 -0.7031
  102MOL   H17926641   3.827   5.112   1.131  0.9203 -0.9529  0.8750
  102MOL   H18026642   3.758   5.200   1.258 -1.2521 -1.3277  2.0913
  102MOL   H18126643   3.738   5.033   1.266  0.3704 -0.1404  0.4106
  102MOL   H18226644   3.888   4.913   1.417 -1.0789 -0.5945 -1.5260
  102MOL   H18326645   4.060   4.934   1.404  0.8134 -0.9374 -0.6240
  102MOL   C18426646   3.975   4.841   1.239  0.1981 -0.3583 -0.7312
  102MOL   C18526647   4.086   4.850   1.143 -0.6961 -0.3004 -0.3264
  102MOL   C18626648   4.127   4.761   1.049  0.4533 -0.3150 -0.2927
  102MOL   C18726649   4.252   4.788   0.957  0.1130  0.1496 -0.0635
  102MOL   C18826650   4.049   4.633   1.021  0.4644  0.7354  0.1594
  102MOL   H18926651   3.888   4.839   1.173 -0.4525  1.5718  0.0497
  102MOL   H19026652   3.975   4.744   1.289 -0.4200  0.8625  1.7207
  102MOL   H19126653   4.132   4.946   1.159 -0.5021 -0.7152  1.7279
  102MOL   H19226654   4.284   4.891   0.949  1.1350 -0.2082 -0.6864
  102MOL   H19326655   4.220   4.771   0.854  0.2367  1.8947 -0.3981
  102MOL   H19426656   4.341   4.730   0.982  0.3490 -0.3874 -2.0205
  102MOL   H19526657   3.998   4.645   0.926  0.9634  1.8261  0.0165
  102MOL   H19626658   3.967   4.616   1.090  0.3760 -0.8063 -0.3161
  102MOL   C19726659   4.138   4.514   1.020  0.0175  1.2068  0.2727
  102MOL   C19826660   4.073   4.380   1.047 -0.4486  0.5648 -0.1163
  102MOL   C19926661   4.062   4.279   0.954 -0.0063 -0.1452 -0.3185
  102MOL   C20026662   3.989   4.148   0.995 -0.8278 -1.0791 -0.5642
  102MOL   C20126663   4.127   4.270   0.810  0.2331  0.6401 -0.3424
  102MOL   H20226664   4.213   4.528   1.098  3.2647  0.1336 -2.5494
  102MOL   H20326665   4.203   4.511   0.933  1.4842 -2.8886  1.4062
  102MOL   H20426666   4.033   4.380   1.148  0.7738  0.9321  0.3733
  102MOL   H20526667   3.918   4.126   0.916 -0.6588 -2.0680 -0.4578
  102MOL   H20626668   3.931   4.157   1.086 -0.8873  1.4456 -0.8269
  102MOL   H20726669   4.061   4.066   0.988 -0.1423 -0.6939  1.5804
  102MOL   H20826670   4.180   4.175   0.800  1.3875  1.3062 -0.6456
  102MOL   H20926671   4.203   4.348   0.801 -0.0305  1.1185  1.2709
  102MOL   C21026672   4.014   4.275   0.698  0.0348 -0.4690 -0.3024
  102MOL   C21126673   4.054   4.355   0.571 -0.2224  0.5508 -0.4140
  102MOL   C21226674   4.016   4.482   0.537 -0.0174  0.1036  0.2738
  102MOL   C21326675   4.047   4.548   0.400 -0.2132 -0.2671  0.2520
  102MOL   C21426676   3.924   4.573   0.619 -0.4632 -0.1257 -0.4492
  102MOL   H21526677   3.924   4.320   0.740  0.6591  1.5236 -1.0220
  102MOL   H21626678   3.989   4.174   0.666 -0.0086 -0.2845 -0.8540
  102MOL   H21726679   4.115   4.300   0.501 -0.2073  0.6129 -0.4505
  102MOL   H21826680   4.133   4.614   0.410 -0.5617  0.2454 -0.0992
  102MOL   H21926681   3.969   4.619   0.374  0.6693 -0.1915 -2.2867
  102MOL   H22026682   4.066   4.467   0.329  1.2627 -0.2820  0.6406
  102MOL   H22126683   3.936   4.550   0.725 -5.4236  2.7220  0.8882
  102MOL   H22226684   3.821   4.552   0.592 -0.3550 -0.1414 -0.8490
  102MOL   C22326685   3.965   4.726   0.612  0.7243  0.3360  0.0973
  102MOL   C22426686   3.922   4.806   0.733  0.3057 -0.2804 -0.0701
  102MOL   C22526687   3.794   4.855   0.754 -1.2614 -0.4127  0.0103
  102MOL   C22626688   3.767   4.935   0.882 -0.0180 -0.6478  0.1293
  102MOL   C22726689   3.672   4.824   0.660 -0.2379  0.1883 -0.4009
  102MOL   H22826690   3.929   4.776   0.522  1.1900  2.8316  1.2781
  102MOL   H22926691   4.074   4.731   0.615  0.8880 -1.1807 -1.9421
  102MOL   H23026692   4.003   4.828   0.801  0.3594  0.9738 -0.5165
  102MOL   H23126693   3.734   5.037   0.863 -0.0167 -0.5316  0.7280
  102MOL   H23226694   3.848   4.938   0.955  0.3509  0.3090 -0.3043
  102MOL   H23326695   3.679   4.900   0.936 -0.3220 -0.5624 -0.3049
  102MOL   H23426696   3.701   4.792   0.560 -1.5501  2.2924 -1.5038
  102MOL   H23526697   3.615   4.916   0.648 -0.7434 -0.3003 -1.9475
  102MOL   C23626698   3.585   4.714   0.719  0.4990  0.3710  0.2499
  102MOL   C23726699   3.462   4.679   0.630 -0.3102  1.1221  0.1077
  102MOL   C23826700   3.399   4.557   0.622 -0.4253 -0.3886  0.5025
  102MOL   C23926701   3.273   4.539   0.535  0.0668 -0.0066  0.0860
  102MOL   C24026702   3.446   4.434   0.699  0.9375  0.2684  0.4240
  102MOL   H24126703   3.540   4.745   0.813 -0.0509  0.6007 -0.0877
  102MOL   H24226704   3.639   4.621   0.736 -0.6570  0.1514  2.8347
  102MOL   H24326705   3.428   4.759   0.566  1.2982  1.7393  0.0147
  102MOL   H24426706   3.263   4.625   0.469  2.3797 -0.3056 -0.6882
  102MOL   H24526707   3.179   4.533   0.590  0.6910 -3.0849  0.9433
  102MOL   H24626708   3.278   4.448   0.475  2.2363 -0.0583  0.3174
  102MOL   H24726709   3.551   4.421   0.674  0.8227  1.7470 -0.9492
  102MOL   H24826710   3.393   4.355   0.647  2.4631 -0.5508  0.0869
  102MOL   C24926711   3.419   4.440   0.849 -0.2033  0.2619 -0.7530
  102MOL   C25026712   3.458   4.313   0.926  0.1554  0.1364 -0.9014
  102MOL   C25126713   3.574   4.295   0.989 -0.4103  0.3499  0.5726
  102MOL   C25226714   3.612   4.156   1.035 -0.4423 -0.8206  0.9473
  102MOL   C25326715   3.691   4.395   0.990  0.5706  0.8069  0.3678
  102MOL   H25426716   3.314   4.460   0.872 -0.7380 -2.5896 -0.6093
  102MOL   H25526717   3.475   4.527   0.885  1.6241 -0.6132 -1.4531
  102MOL   H25626718   3.387   4.233   0.914  1.0148 -0.7343 -0.2955
  102MOL   H25726719   3.638   4.144   1.140 -2.2939 -0.8326  1.4145
  102MOL   H25826720   3.698   4.129   0.973 -0.3548  1.5565 -0.0046
  102MOL   H25926721   3.534   4.081   1.024 -1.8213  0.6758  0.4291
  102MOL   H26026722   3.751   4.390   1.081 -0.0146  2.6177  0.8742
  102MOL   H26126723   3.673   4.501   0.972  0.5927  1.0096  1.5390
  102MOL   H26226724   3.763   4.370   0.912 -0.1055 -1.4192  0.4136
  103MOL     C126725   6.379   0.820   4.227  0.0185 -0.5721  0.0598
  103MOL     C226726   6.362   0.775   4.368 -0.1918  0.0722 -0.6183
  103MOL     C326727   6.419   0.668   4.430  0.2711 -0.4649 -0.5442
  103MOL     C426728   6.379   0.625   4.569  0.5531  0.8709  0.4111
  103MOL     C526729   6.524   0.584   4.361  0.3494  0.3496  0.5528
  103MOL     H626730   6.343   0.922   4.224 -1.0985 -0.8903  1.9065
  103MOL     H726731   6.481   0.826   4.188 -1.3488 -0.8616 -3.7622
  103MOL     H826732   6.296   0.838   4.425  0.6385 -0.0925  0.5375
  103MOL     H926733   6.464   0.630   4.636  0.5741  1.0984  0.3686
  103MOL    H1026734   6.333   0.526   4.566  1.7950  0.2900  0.3311
  103MOL    H1126735   6.306   0.691   4.616 -0.8694 -1.4378  1.5861
  103MOL    H1226736   6.582   0.525   4.433  1.8634  1.3449  0.1608
  103MOL    H1326737   6.597   0.639   4.302  0.1069  1.9164  1.6750
  103MOL    H1426738   6.320   0.758   4.159 -0.7108 -0.7455  0.8512
  103MOL    C1526739   6.453   0.472   4.280  0.2387 -0.1881  0.7302
  103MOL    C1626740   6.552   0.388   4.207  0.4638 -0.5482  0.0746
  103MOL    C1726741   6.576   0.258   4.227  0.5257 -0.4640 -0.0814
  103MOL    C1826742   6.670   0.190   4.134  0.0221  0.4494 -0.1104
  103MOL    C1926743   6.515   0.170   4.336  0.0801 -0.6725  0.1060
  103MOL    H2026744   6.387   0.528   4.214  1.2433 -0.0389 -0.1563
  103MOL    H2126745   6.393   0.409   4.346 -0.6258 -1.4463 -1.1897
  103MOL    H2226746   6.599   0.429   4.120 -2.4481  2.8419 -0.0314
  103MOL    H2326747   6.628   0.100   4.089 -2.1623  2.0913 -1.4776
  103MOL    H2426748   6.751   0.157   4.199 -0.6056 -0.2844  0.2984
  103MOL    H2526749   6.702   0.253   4.051 -1.3936  2.3517  0.7514
  103MOL    H2626750   6.490   0.074   4.291 -3.0718 -0.9028  2.1701
  103MOL    H2726751   6.417   0.201   4.372 -0.6264 -2.1867 -0.4825
  103MOL    C2826752   6.616   0.149   4.446  0.4753 -0.4792 -0.1351
  103MOL    C2926753   6.546   0.078   4.559  0.7419 -0.5311 -0.0649
  103MOL    C3026754   6.509   0.115   4.684  0.2095  0.2150 -0.4935
  103MOL    C3126755   6.421   0.029   4.772  0.6533  0.7623  0.4495
  103MOL    C3226756   6.548   0.244   4.748 -0.2313 -0.5769  0.1415
  103MOL    H3326757   6.659   0.245   4.475 -0.5126 -0.8881  2.8117
  103MOL    H3426758   6.700   0.089   4.411  1.7112  1.8311 -1.2725
  103MOL    H3526759   6.514   7.859   4.525 -0.5003 -0.0423 -0.3238
  103MOL    H3626760   6.407   7.811   4.724  1.9588  1.6546 -1.8307
  103MOL    H3726761   6.331   0.088   4.783 -0.3905 -0.1617 -2.6540
  103MOL    H3826762   6.466   0.013   4.869 -0.3146 -0.9453  0.6337
  103MOL    H3926763   6.454   0.295   4.770  1.3479  2.5611 -0.0597
  103MOL    H4026764   6.600   0.314   4.683  0.4033 -2.1622 -1.0893
  103MOL    C4126765   6.626   0.234   4.882  0.2214 -0.3599 -0.1838
  103MOL    C4226766   6.726   0.119   4.895 -0.0801 -0.6133  0.2707
  103MOL    C4326767   6.770   0.072   5.012  0.0769  0.2140  0.1387
  103MOL    C4426768   6.883   7.847   5.008  0.1712  0.1281  0.1627
  103MOL    C4526769   6.721   0.133   5.141  0.2465 -0.1294 -0.1513
  103MOL    H4626770   6.549   0.238   4.959  1.0293 -2.5182  0.7792
  103MOL    H4726771   6.678   0.329   4.888  0.2177 -0.2331 -1.7346
  103MOL    H4826772   6.770   0.080   4.805 -0.4753  0.9980 -0.6361
  103MOL    H4926773   6.883   7.789   4.916 -1.0460 -0.8881  0.7849
  103MOL    H5026774   6.870   7.780   5.093 -1.9240 -0.4366 -0.5682
  103MOL    H5126775   6.981   0.013   5.025  0.2146 -0.3860  1.3332
  103MOL    H5226776   6.686   0.235   5.130  2.5820  1.0742  2.9247
  103MOL    H5326777   6.811   0.147   5.200  0.6775 -1.3687 -0.4998
  103MOL    C5426778   6.613   0.047   5.214 -0.2485  0.1745  0.3554
  103MOL    C5526779   6.677   7.812   5.299  0.0880  0.3901 -0.6006
  103MOL    C5626780   6.642   7.682   5.295  0.5444 -0.2390  0.1286
  103MOL    C5726781   6.723   7.581   5.372  0.7695 -0.6434  0.7813
  103MOL    C5826782   6.518   7.628   5.228 -0.3196  0.2275 -0.4622
  103MOL    H5926783   6.536   0.012   5.144  0.2918  0.3356 -0.3295
  103MOL    H6026784   6.567   0.113   5.288 -1.3141 -2.7702  2.3861
  103MOL    H6126785   6.768   7.837   5.353 -0.9555  1.6724  0.5878
  103MOL    H6226786   6.773   7.520   5.297  1.9347  2.4236 -1.0013
  103MOL    H6326787   6.663   7.511   5.431 -0.4210 -0.6981 -0.4817
  103MOL    H6426788   6.808   7.620   5.429  0.4697 -0.6901  1.2669
  103MOL    H6526789   6.433   7.697   5.228  0.9028  1.7473  0.1426
  103MOL    H6626790   6.483   7.534   5.271  1.3538 -0.1899  0.0195
  103MOL    C6726791   6.553   7.591   5.082  0.2441  0.7269  0.0878
  103MOL    C6826792   6.438   7.534   5.003  0.2102  0.0704  0.4176
  103MOL    C6926793   6.450   7.434   4.908 -0.3952 -0.1672  0.2321
  103MOL    C7026794   6.330   7.392   4.816 -0.3217  0.6500 -0.6174
  103MOL    C7126795   6.575   7.356   4.876  0.2527 -0.1000 -0.3689
  103MOL    H7226796   6.638   7.525   5.071 -2.4874 -2.8336 -0.4231
  103MOL    H7326797   6.588   7.681   5.030  0.1700  0.2423 -0.8094
  103MOL    H7426798   6.341   7.578   5.020  0.6182  0.3437  2.1264
  103MOL    H7526799   6.332   7.284   4.830  0.6583  0.7573  0.1480
  103MOL    H7626800   6.344   7.418   4.711 -0.1753  2.2189 -0.2303
  103MOL    H7726801   6.234   7.425   4.857 -0.0781 -1.5085  1.8412
  103MOL    H7826802   6.663   7.416   4.900  0.4937 -1.0681  1.1931
  103MOL    H7926803   6.575   7.349   4.767 -0.4695 -1.4591 -0.2900
  103MOL    C8026804   6.592   7.224   4.941 -0.8304 -0.0379 -0.0134
  103MOL    C8126805   6.736   7.177   4.936 -0.5692 -1.0404  0.1311
  103MOL    C8226806   6.822   7.171   5.044 -0.5612  0.3404 -0.0760
  103MOL    C8326807   6.793   7.218   5.186 -0.0036  0.0476  0.3224
  103MOL    C8426808   6.966   7.124   5.027  0.1701  0.8535 -0.1674
  103MOL    H8526809   6.530   7.149   4.892  0.9491 -0.8235 -1.1200
  103MOL    H8626810   6.564   7.226   5.047 -0.3583  3.2774  0.0871
  103MOL    H8726811   6.764   7.136   4.840 -2.4942 -0.4314 -0.7243
  103MOL    H8826812   6.689   7.228   5.217  0.1828 -2.5459  1.9023
  103MOL    H8926813   6.858   7.298   5.220 -0.1812  0.4954 -0.3659
  103MOL    H9026814   6.809   7.138   5.257 -3.2215 -0.8795  0.0723
  103MOL    H9126815   7.038   7.195   5.068  0.9833 -0.6136  1.0125
  103MOL    H9226816   6.986   7.131   4.920 -1.4039  0.2541 -0.5078
  103MOL    C9326817   6.996   6.987   5.085  0.0804 -0.1700  0.0770
  103MOL    C9426818   7.136   6.952   5.062  0.0574 -0.1154 -1.2227
  103MOL    C9526819   7.193   6.828   5.040  0.2365  0.6583  0.1655
  103MOL    C9626820   7.343   6.804   5.036 -0.2053 -0.1646  0.3340
  103MOL    C9726821   7.113   6.703   5.017 -0.0522  0.4969  0.0531
  103MOL    H9826822   6.950   6.914   5.018  1.3119 -1.9740  1.1645
  103MOL    H9926823   6.967   6.986   5.190  0.5363 -1.6901  0.2008
  103MOL   H10026824   7.213   7.027   5.076 -2.0829  2.2668 -1.7604
  103MOL   H10126825   7.369   6.762   4.938  0.9877  1.1166  0.0813
  103MOL   H10226826   7.402   6.896   5.035 -1.3885  0.6154  1.7276
  103MOL   H10326827   7.377   6.754   5.126 -2.1415 -1.1481  0.5263
  103MOL   H10426828   7.032   6.698   5.090  1.1764 -0.3264  1.3710
  103MOL   H10526829   7.162   6.614   5.057  2.7582  1.8836 -0.2070
  103MOL   C10626830   7.067   6.680   4.877 -0.0115 -0.2031  0.3135
  103MOL   C10726831   7.052   6.530   4.839 -0.0905  0.3737 -0.3922
  103MOL   C10826832   6.935   6.458   4.832 -0.1101  0.3065  0.9212
  103MOL   C10926833   6.795   6.497   4.876  0.4553  0.2653 -0.1296
  103MOL   C11026834   6.932   6.322   4.762 -0.0207  0.3951  0.1461
  103MOL   H11126835   7.130   6.724   4.799  0.3622 -3.3405 -1.2226
  103MOL   H11226836   6.971   6.728   4.860 -0.6132 -1.2716  0.6538
  103MOL   H11326837   7.149   6.501   4.801  0.9335  1.5556  1.2876
  103MOL   H11426838   6.773   6.590   4.824 -1.0824 -0.4830 -0.8483
  103MOL   H11526839   6.726   6.419   4.844 -1.0239  2.1527 -1.6222
  103MOL   H11626840   6.798   6.515   4.983 -0.5482 -2.3702  0.3908
  103MOL   H11726841   6.892   6.242   4.824 -0.2320 -0.3475 -0.9306
  103MOL   H11826842   7.037   6.298   4.745 -0.7312 -3.0997  0.3282
  103MOL   C11926843   6.877   6.313   4.622  0.0355  0.8092  0.3267
  103MOL   C12026844   6.869   6.168   4.578 -0.2034 -0.0865  0.3635
  103MOL   C12126845   6.946   6.110   4.484 -0.3255  0.0961 -0.4822
  103MOL   C12226846   6.941   5.972   4.431 -0.5865 -0.3898 -0.0980
  103MOL   C12326847   7.047   6.195   4.410 -0.4463  0.1065  0.1151
  103MOL   H12426848   6.923   6.389   4.560 -0.7235  0.4103 -0.7453
  103MOL   H12526849   6.776   6.354   4.619  0.2654  1.2477 -1.6034
  103MOL   H12626850   6.796   6.109   4.630 -0.7639  1.2005  1.0704
  103MOL   H12726851   7.036   5.918   4.425 -0.0799  0.6090 -1.3008
  103MOL   H12826852   6.903   5.975   4.329 -0.8661  1.1905  0.0494
  103MOL   H12926853   6.875   5.911   4.492  0.2402 -1.5914 -0.3890
  103MOL   H13026854   7.143   6.144   4.406 -0.8689 -0.6811 -0.3668
  103MOL   H13126855   7.069   6.283   4.470  0.1899  1.2721 -1.7736
  103MOL   C13226856   7.004   6.238   4.273 -0.4591  0.0941 -0.2159
  103MOL   C13326857   7.112   6.327   4.213 -0.1799 -0.0554 -0.4238
  103MOL   C13426858   7.096   6.430   4.125 -0.2601  0.3693 -0.0915
  103MOL   C13526859   7.216   6.503   4.063 -0.0967  0.4215  0.1375
  103MOL   C13626860   6.966   6.487   4.071  0.2620 -0.0354  0.5647
  103MOL   H13726861   6.908   6.289   4.272  0.5150  2.0152  1.1480
  103MOL   H13826862   6.984   6.154   4.206 -4.0654  0.2287  0.6161
  103MOL   H13926863   7.214   6.294   4.230 -0.4869 -1.4930 -1.2608
  103MOL   H14026864   7.245   6.444   3.976  0.7796  2.0194 -0.6743
  103MOL   H14126865   7.292   6.506   4.142  0.9012 -1.4105 -0.7121
  103MOL   H14226866   7.186   6.603   4.034  0.0065  1.2619  2.8051
  103MOL   H14326867   6.892   6.408   4.067  0.1723  0.1006 -0.6186
  103MOL   H14426868   6.984   6.514   3.967  0.8963 -0.9641  0.4298
  103MOL   C14526869   6.915   6.597   4.165 -0.1944 -0.1034 -0.4175
  103MOL   C14626870   6.797   6.668   4.096  0.3350  0.4681  0.2587
  103MOL   C14726871   6.808   6.782   4.026 -0.0723  0.0530 -0.2572
  103MOL   C14826872   6.693   6.849   3.955  0.2865  0.0813 -0.2086
  103MOL   C14926873   6.938   6.857   3.992  0.3177 -0.0070  0.5184
  103MOL   H15026874   6.989   6.676   4.183  1.3113 -1.8738  1.4271
  103MOL   H15126875   6.896   6.546   4.260  0.5708 -1.1380 -0.8085
  103MOL   H15226876   6.705   6.612   4.105  0.9914 -0.5176  0.8742
  103MOL   H15326877   6.597   6.824   4.001  0.4355 -2.9633 -1.4570
  103MOL   H15426878   6.691   6.823   3.849  1.3632 -0.8699  0.0032
  103MOL   H15526879   6.705   6.957   3.960  0.6145 -0.0061  1.2077
  103MOL   H15626880   7.018   6.846   4.065 -1.4268 -2.0661  2.1705
  103MOL   H15726881   6.918   6.962   4.012  0.3013 -0.1317  1.1642
  103MOL   C15826882   6.991   6.843   3.849  0.3272 -0.2880 -0.7795
  103MOL   C15926883   7.085   6.958   3.825  0.1987 -0.2891 -0.8218
  103MOL   C16026884   7.218   6.956   3.791  0.1310 -0.1737 -0.6908
  103MOL   C16126885   7.298   6.831   3.758 -0.2739  0.4531  0.0337
  103MOL   C16226886   7.289   7.088   3.775  0.2872  0.5119 -1.2154
  103MOL   H16326887   6.905   6.842   3.781 -0.6237  2.7554  0.3100
  103MOL   H16426888   7.021   6.738   3.848 -2.1932 -1.0965  1.4982
  103MOL   H16526889   7.034   7.052   3.842  1.5125  0.6451 -1.8722
  103MOL   H16626890   7.324   6.810   3.655 -1.0264  0.2788 -0.1245
  103MOL   H16726891   7.253   6.739   3.797 -0.5857  1.5980  2.4891
  103MOL   H16826892   7.398   6.850   3.797 -0.4608  2.2682 -0.3224
  103MOL   H16926893   7.379   7.066   3.834 -0.6971  1.1015  0.5484
  103MOL   H17026894   7.235   7.161   3.835 -0.1205  0.9413 -2.0983
  103MOL   C17126895   7.305   7.134   3.632  0.0124 -0.1716 -0.4469
  103MOL   C17226896   7.380   7.262   3.647  0.0809 -0.2553  0.1080
  103MOL   C17326897   7.346   7.387   3.602 -0.4719 -0.5928 -0.5402
  103MOL   C17426898   7.200   7.417   3.553 -0.6764 -0.2546  0.7102
  103MOL   C17526899   7.429   7.509   3.616  0.4036  0.6817 -1.3879
  103MOL   H17626900   7.208   7.145   3.582 -0.6142  0.9783  0.9619
  103MOL   H17726901   7.362   7.062   3.574  0.5276 -2.8972  3.2215
  103MOL   H17826902   7.481   7.247   3.681  0.4329 -4.1863 -2.3782
  103MOL   H17926903   7.137   7.330   3.533 -1.4683  0.8663 -1.8660
  103MOL   H18026904   7.180   7.482   3.468 -0.4127  1.3453  1.8541
  103MOL   H18126905   7.145   7.476   3.626  0.2293  1.6548 -0.1445
  103MOL   H18226906   7.421   7.578   3.532  1.8632 -0.4505 -2.4879
  103MOL   H18326907   7.531   7.476   3.598 -0.7987 -4.1111 -0.0970
  103MOL   C18426908   7.414   7.596   3.741 -0.2682  0.7875  0.5413
  103MOL   C18526909   7.500   7.728   3.737 -0.2263 -0.1593 -0.3462
  103MOL   C18626910   7.595   7.757   3.820 -0.8504  0.2280 -0.9223
  103MOL   C18726911   7.672   0.008   3.805  0.5166 -0.7696  0.9094
  103MOL   C18826912   7.661   7.659   3.924  0.4771 -0.4871 -0.1326
  103MOL   H18926913   7.429   7.531   3.828 -0.2154 -1.3727 -1.0444
  103MOL   H19026914   7.306   7.609   3.743 -0.4054 -0.3307  0.8810
  103MOL   H19126915   7.469   7.789   3.653  0.1557  1.0759  0.4024
  103MOL   H19226916   7.641   0.074   3.724  1.8011 -1.2500  0.0134
  103MOL   H19326917   7.775   7.858   3.788  0.6436 -0.0922  0.4838
  103MOL   H19426918   7.667   0.071   3.894  1.5967  0.7855 -0.0998
  103MOL   H19526919   7.759   7.695   3.954  0.0890  0.0065  0.5589
  103MOL   H19626920   7.682   7.569   3.866  3.9470 -0.3369  0.7954
  103MOL   C19726921   7.570   7.640   4.046 -0.0404  0.2954 -0.2767
  103MOL   C19826922   7.623   7.547   4.159  0.4571 -0.6311 -0.0726
  103MOL   C19926923   7.590   7.415   4.186 -0.7668 -0.7971  0.8717
  103MOL   C20026924   7.664   7.342   4.294 -0.0130  0.6218  0.8060
  103MOL   C20126925   7.474   7.347   4.125  0.1888  0.4057 -0.2391
  103MOL   H20226926   7.468   7.609   4.023 -0.9746  1.6967  1.8144
  103MOL   H20326927   7.565   7.736   4.097  1.8059  0.5010 -0.4723
  103MOL   H20426928   7.695   7.593   4.225  0.6956 -1.4035  0.2137
  103MOL   H20526929   7.701   7.253   4.243 -0.7682  0.7041  0.0931
  103MOL   H20626930   7.589   7.314   4.368 -0.5173  0.6223  0.3008
  103MOL   H20726931   7.739   7.398   4.349  0.5792  1.6080 -0.9575
  103MOL   H20826932   7.495   7.242   4.103 -0.7032  0.5878 -2.0343
  103MOL   H20926933   7.464   7.397   4.029  1.7141 -0.4586 -0.8679
  103MOL   C21026934   7.349   7.378   4.199 -0.0605 -0.1839  0.0104
  103MOL   C21126935   7.233   7.379   4.107 -0.8132 -0.3763 -0.6047
  103MOL   C21226936   7.142   7.284   4.085 -0.4292  0.1524  0.1384
  103MOL   C21326937   7.020   7.312   4.002 -0.0740 -0.8752  0.4396
  103MOL   C21426938   7.145   7.145   4.145  0.3578  0.0955 -0.1619
  103MOL   H21526939   7.357   7.476   4.246  0.1494 -2.0729  4.1863
  103MOL   H21626940   7.339   7.301   4.275  1.2541 -1.8284 -1.4357
  103MOL   H21726941   7.219   7.476   4.061  0.0714  0.3458  0.6315
  103MOL   H21826942   7.034   7.389   3.927  0.1539 -1.4106 -0.0766
  103MOL   H21926943   6.937   7.341   4.066  0.9940  1.5464  0.7647
  103MOL   H22026944   6.986   7.222   3.950 -1.0513 -1.2770  1.7556
  103MOL   H22126945   7.251   7.125   4.162  0.2545 -0.6155 -0.3374
  103MOL   H22226946   7.126   7.063   4.075 -2.4139  0.5973 -0.0742
  103MOL   C22326947   7.056   7.128   4.270 -0.4717 -0.6600  0.1425
  103MOL   C22426948   7.082   6.991   4.340  0.1568  0.0945  0.2094
  103MOL   C22526949   6.995   6.911   4.401  0.4311  0.6392 -0.0312
  103MOL   C22626950   7.039   6.785   4.465  0.4660  0.3547 -0.5865
  103MOL   C22726951   6.840   6.943   4.407  0.5200 -0.5277  0.5587
  103MOL   H22826952   6.954   7.145   4.233 -0.4124  0.4330  0.4700
  103MOL   H22926953   7.061   7.207   4.345 -1.1685 -1.2149  0.7962
  103MOL   H23026954   7.183   6.950   4.339  0.8974  1.7483  2.8151
  103MOL   H23126955   7.142   6.764   4.436 -0.4275 -1.9391 -2.2699
  103MOL   H23226956   6.984   6.698   4.428  0.3671  1.0907 -2.1976
  103MOL   H23326957   7.041   6.800   4.573 -1.0765 -2.4641 -0.1262
  103MOL   H23426958   6.776   6.865   4.365 -1.9744  2.0803 -0.6764
  103MOL   H23526959   6.820   7.031   4.345 -1.0631 -0.4058  1.2316
  103MOL   C23626960   6.781   6.979   4.543  0.0253 -0.2158  0.6112
  103MOL   C23726961   6.640   7.051   4.536 -0.1981 -0.8994 -0.1801
  103MOL   C23826962   6.521   7.002   4.555  0.2404  0.0749 -0.1552
  103MOL   C23926963   6.399   7.083   4.519 -0.4386  0.4030 -0.3519
  103MOL   C24026964   6.488   6.858   4.605  0.3354 -0.0649  0.2130
  103MOL   H24126965   6.850   7.033   4.607  3.2479 -3.1493 -0.1977
  103MOL   H24226966   6.766   6.896   4.613  2.2236  0.6933  2.2075
  103MOL   H24326967   6.651   7.151   4.497 -0.2056  0.2467  2.6297
  103MOL   H24426968   6.328   7.078   4.602 -1.0259  0.8023 -0.8317
  103MOL   H24526969   6.353   7.044   4.428 -1.4496 -0.2811  0.4374
  103MOL   H24626970   6.426   7.187   4.498  1.1079 -0.1874 -1.3285
  103MOL   H24726971   6.426   6.870   4.694  2.4711  2.7077  1.4277
  103MOL   H24826972   6.580   6.809   4.638 -0.7720 -0.5243  2.7172
  103MOL   C24926973   6.424   6.770   4.494 -0.2128  0.3383  0.0701
  103MOL   C25026974   6.386   6.636   4.548 -0.0262 -0.2930 -0.2492
  103MOL   C25126975   6.468   6.526   4.546 -0.0347 -0.2913 -0.1269
  103MOL   C25226976   6.409   6.404   4.616  0.1666 -0.5966  1.2628
  103MOL   C25326977   6.614   6.525   4.500 -0.2080  0.0754 -0.1594
  103MOL   H25426978   6.488   6.748   4.409  0.5521 -1.0922  0.9931
  103MOL   H25526979   6.336   6.831   4.479 -0.5524  0.0159  0.7328
  103MOL   H25626980   6.287   6.637   4.593 -0.5274 -0.6173 -1.3281
  103MOL   H25726981   6.357   6.431   4.708 -0.9587 -1.0251  0.7591
  103MOL   H25826982   6.485   6.333   4.647  2.5049  0.8201 -0.9905
  103MOL   H25926983   6.337   6.357   4.549  1.3395 -0.7951  0.1176
  103MOL   H26026984   6.635   6.597   4.420  1.2098 -1.6731 -1.3904
  103MOL   H26126985   6.635   6.431   4.449 -1.7462 -0.1352 -0.4356
  103MOL   H26226986   6.678   6.552   4.583 -1.0062 -0.8853  0.7773
  104MOL     C126987   3.838   5.535   3.551 -1.1664  0.0079  0.0646
  104MOL     C226988   3.759   5.407   3.524 -0.5970 -1.3574  0.4400
  104MOL     C326989   3.666   5.383   3.432 -0.5392 -0.2691  0.7634
  104MOL     C426990   3.604   5.248   3.415  0.1995 -0.6682 -0.1094
  104MOL     C526991   3.630   5.479   3.317 -0.3104  0.0109 -0.5150
  104MOL     H626992   3.861   5.535   3.657  0.1580 -0.5163 -0.2078
  104MOL     H726993   3.930   5.526   3.493 -1.6208 -0.3154 -0.6207
  104MOL     H826994   3.786   5.322   3.586  1.9769  0.1813  1.4999
  104MOL     H926995   3.671   5.182   3.470 -1.1952 -1.4292  0.7057
  104MOL    H1026996   3.600   5.216   3.311 -0.2060 -0.9566 -0.0050
  104MOL    H1126997   3.502   5.240   3.452  0.9063 -0.4898  1.9355
  104MOL    H1226998   3.676   5.432   3.230  0.8896  1.9194 -0.9297
  104MOL    H1326999   3.695   5.565   3.332  0.8424 -1.1603  1.3842
  104MOL    H1427000   3.793   5.631   3.525 -0.5716 -0.2494 -2.0146
  104MOL    C1527001   3.475   5.516   3.307  0.4584 -0.4242 -0.3145
  104MOL    C1627002   3.418   5.572   3.441 -0.2233  0.1539 -0.3285
  104MOL    C1727003   3.361   5.691   3.456  1.3910 -0.3134  0.6827
  104MOL    C1827004   3.294   5.741   3.585 -0.1739  0.5713 -0.7450
  104MOL    C1927005   3.344   5.795   3.339 -0.7016  0.1501 -0.1614
  104MOL    H2027006   3.422   5.422   3.289 -1.9710  1.1906 -2.0065
  104MOL    H2127007   3.455   5.578   3.219  1.5168  1.0530  0.4743
  104MOL    H2227008   3.425   5.505   3.526  4.5191 -1.0377 -1.4792
  104MOL    H2327009   3.295   5.670   3.668  2.0882  2.6306  1.0488
  104MOL    H2427010   3.189   5.770   3.576 -0.3286  0.4124  0.5109
  104MOL    H2527011   3.357   5.824   3.615 -1.5913  1.5290 -0.3882
  104MOL    H2627012   3.412   5.785   3.254 -1.6081  0.4474 -0.9247
  104MOL    H2727013   3.381   5.890   3.379 -1.3187  0.1217  0.4960
  104MOL    C2827014   3.200   5.815   3.289 -0.2183  0.5946 -0.3907
  104MOL    C2927015   3.176   5.933   3.202 -0.3303  0.0609  0.8967
  104MOL    C3027016   3.079   5.929   3.110  0.0671 -0.2968 -0.3021
  104MOL    C3127017   3.042   6.061   3.049 -0.1823  0.0075 -0.0292
  104MOL    C3227018   3.007   5.807   3.057  1.2513 -0.0043 -0.0456
  104MOL    H3327019   3.129   5.829   3.371  0.4166  1.0925  0.0824
  104MOL    H3427020   3.173   5.721   3.242 -0.6799  0.1970  0.6715
  104MOL    H3527021   3.226   6.023   3.232 -0.3309  0.2785  0.2614
  104MOL    H3627022   2.934   6.070   3.039 -0.1487  1.8142  1.0696
  104MOL    H3727023   3.080   6.060   2.947 -0.5139  0.1483 -0.1573
  104MOL    H3827024   3.072   6.149   3.106 -0.6353 -0.7541  1.3844
  104MOL    H3927025   2.902   5.835   3.055  1.1821 -0.3080 -0.7407
  104MOL    H4027026   3.005   5.734   3.139 -3.9305 -0.2154 -0.2248
  104MOL    C4127027   3.075   5.755   2.934 -0.2499 -0.4640  0.2821
  104MOL    C4227028   3.037   5.612   2.896  0.7502  0.4694  0.3926
  104MOL    C4327029   2.965   5.570   2.788  0.2994  0.0567  0.0880
  104MOL    C4427030   2.920   5.427   2.757 -0.1357 -0.2856  0.2244
  104MOL    C4527031   2.910   5.665   2.685 -0.0868 -0.5008 -0.3001
  104MOL    H4627032   3.181   5.757   2.958 -0.4887 -0.7975  1.4173
  104MOL    H4727033   3.070   5.824   2.850 -2.5018  0.7611  1.3723
  104MOL    H4827034   3.082   5.544   2.967  0.3772  0.3779  0.5457
  104MOL    H4927035   2.812   5.427   2.740  0.0671 -1.0805 -1.1165
  104MOL    H5027036   2.959   5.352   2.825  0.3867  0.2110  0.4798
  104MOL    H5127037   2.968   5.414   2.660  0.7951 -0.7608  0.7337
  104MOL    H5227038   2.897   5.616   2.588  0.5624 -0.9231 -0.1759
  104MOL    H5327039   2.994   5.726   2.654 -0.4091 -0.7809 -1.7736
  104MOL    C5427040   2.784   5.743   2.727  0.5918  0.2594  0.3174
  104MOL    C5527041   2.726   5.848   2.629 -0.2246 -0.8265 -0.2338
  104MOL    C5627042   2.627   5.834   2.535  0.3317 -0.2499  0.5004
  104MOL    C5727043   2.579   5.950   2.446 -0.2725 -0.0612 -0.0860
  104MOL    C5827044   2.542   5.709   2.526 -0.3119  0.2922 -0.3587
  104MOL    H5927045   2.812   5.789   2.821  1.7322  1.6008 -0.6505
  104MOL    H6027046   2.706   5.669   2.747 -0.2315  0.6488 -1.3647
  104MOL    H6127047   2.785   5.938   2.625 -1.1085 -0.2424 -0.2746
  104MOL    H6227048   2.474   5.963   2.469  0.4681  0.8537  3.0501
  104MOL    H6327049   2.598   5.928   2.341  1.2518  0.4193  0.0729
  104MOL    H6427050   2.629   6.040   2.482 -1.3610  1.4215 -2.1588
  104MOL    H6527051   2.599   5.617   2.543 -0.8946 -0.1713 -0.8954
  104MOL    H6627052   2.512   5.714   2.421 -2.0497  3.3188  0.2137
  104MOL    C6727053   2.430   5.716   2.627  0.1585  0.4157  0.1642
  104MOL    C6827054   2.325   5.611   2.598 -0.4059  0.7322  0.2661
  104MOL    C6927055   2.192   5.612   2.625 -0.1238  0.2637  0.2301
  104MOL    C7027056   2.107   5.499   2.581  0.4629  0.6764  0.4921
  104MOL    C7127057   2.112   5.723   2.689 -0.1410 -0.1996  0.8210
  104MOL    H7227058   2.388   5.816   2.632 -0.9155  0.0315 -1.1668
  104MOL    H7327059   2.471   5.689   2.725 -2.2069  0.2344  1.1255
  104MOL    H7427060   2.362   5.513   2.572  1.5906  1.6706 -0.4515
  104MOL    H7527061   2.169   5.421   2.539 -0.1883  0.3154  0.1944
  104MOL    H7627062   2.036   5.515   2.500 -2.4717  2.0130  3.1922
  104MOL    H7727063   2.050   5.452   2.662 -1.4164  0.1204 -1.1121
  104MOL    H7827064   2.173   5.779   2.760  1.8021 -1.0077 -0.1592
  104MOL    H7927065   2.027   5.683   2.744 -0.1484 -0.9755  0.2456
  104MOL    C8027066   2.065   5.822   2.579 -0.8577 -0.1111  0.1616
  104MOL    C8127067   1.954   5.920   2.622 -0.4019 -0.1180  0.7905
  104MOL    C8227068   1.961   6.051   2.599  0.6281  0.8599 -0.7539
  104MOL    C8327069   2.078   6.121   2.527  0.2252 -0.4153  0.1002
  104MOL    C8427070   1.850   6.140   2.658 -0.3993 -0.7759 -0.2092
  104MOL    H8527071   2.027   5.756   2.501  0.6028  0.5476 -1.1190
  104MOL    H8627072   2.148   5.878   2.536 -0.7005  2.0683  3.0851
  104MOL    H8727073   1.876   5.874   2.679 -0.9863  0.0313  0.1198
  104MOL    H8827074   2.167   6.098   2.585  0.8558 -2.2229 -1.5491
  104MOL    H8927075   2.083   6.230   2.534  0.1527 -0.4009 -0.0876
  104MOL    H9027076   2.094   6.084   2.426 -2.0258 -2.9456  0.5870
  104MOL    H9127077   1.773   6.083   2.710 -1.9806 -0.2276 -1.9083
  104MOL    H9227078   1.792   6.186   2.577  0.8739  0.4465 -0.4472
  104MOL    C9327079   1.902   6.249   2.757 -0.3034 -0.0995  0.0052
  104MOL    C9427080   1.798   6.326   2.833  0.9660  0.3406 -0.4542
  104MOL    C9527081   1.768   6.459   2.842  0.3795 -0.1740  0.4016
  104MOL    C9627082   1.651   6.511   2.931  0.2331  0.0920  0.7988
  104MOL    C9727083   1.847   6.567   2.763  0.6653 -0.1962  0.2296
  104MOL    H9827084   1.961   6.317   2.696  0.8219 -0.9643  0.1166
  104MOL    H9927085   1.959   6.197   2.834  0.0029  0.8054  0.3970
  104MOL   H10027086   1.732   6.268   2.895  0.0246  0.9794 -0.8539
  104MOL   H10127087   1.582   6.566   2.866  2.0359  0.2622 -1.0108
  104MOL   H10227088   1.594   6.437   2.988 -2.4166  1.0028 -0.5424
  104MOL   H10327089   1.684   6.574   3.013 -1.6564  0.6033  1.1930
  104MOL   H10427090   1.943   6.526   2.731 -0.8623 -3.4586 -0.4076
  104MOL   H10527091   1.850   6.648   2.835  2.7968 -1.7576  1.9559
  104MOL   C10627092   1.777   6.612   2.633  0.3794  0.4817 -0.4673
  104MOL   C10727093   1.857   6.712   2.561 -0.2151 -0.4219  0.0868
  104MOL   C10827094   1.908   6.706   2.435  0.5216 -0.6445  0.5088
  104MOL   C10927095   1.876   6.587   2.339  0.4752 -0.3492 -0.6626
  104MOL   C11027096   1.987   6.824   2.385 -0.4018 -0.1212  0.0014
  104MOL   H11127097   1.685   6.666   2.659  0.3785  0.0342  0.4615
  104MOL   H11227098   1.746   6.528   2.571  0.5203  0.4745 -0.5274
  104MOL   H11327099   1.884   6.800   2.618 -3.2234  1.2282 -0.9047
  104MOL   H11427100   1.966   6.557   2.285  0.4156 -3.3677  0.8320
  104MOL   H11527101   1.839   6.492   2.378  2.9200 -1.7835 -1.7503
  104MOL   H11627102   1.804   6.630   2.270  0.2909  0.4795  0.0336
  104MOL   H11727103   2.075   6.776   2.344  0.1520  1.9832 -1.3454
  104MOL   H11827104   2.009   6.882   2.474 -0.0028 -3.1140  1.9193
  104MOL   C11927105   1.923   6.908   2.278  0.1008  0.6788  0.0430
  104MOL   C12027106   2.004   7.036   2.267 -0.3168  0.2455  0.1589
  104MOL   C12127107   1.982   7.161   2.311  0.7138 -0.5066 -0.1455
  104MOL   C12227108   2.092   7.260   2.288  0.4898  0.2692 -0.2985
  104MOL   C12327109   1.847   7.213   2.369  0.0655  0.1635  0.0671
  104MOL   H12427110   1.821   6.937   2.304  0.4153  2.3684 -0.4976
  104MOL   H12527111   1.904   6.851   2.188 -2.2835 -0.1587  1.0601
  104MOL   H12627112   2.097   7.018   2.215  1.0773  0.7401  2.4362
  104MOL   H12727113   2.069   7.332   2.209 -1.5075 -1.1077 -1.0139
  104MOL   H12827114   2.183   7.210   2.255  1.4774  1.5490  0.4464
  104MOL   H12927115   2.119   7.320   2.375  3.9539 -1.2246 -0.2713
  104MOL   H13027116   1.785   7.133   2.409 -0.6830  0.9329  0.4628
  104MOL   H13127117   1.789   7.268   2.295  1.0592  2.6101  1.0524
  104MOL   C13227118   1.867   7.312   2.487 -0.0559  0.0624 -0.1597
  104MOL   C13327119   1.732   7.358   2.550 -0.1922 -0.1720  0.8744
  104MOL   C13427120   1.714   7.430   2.663 -0.0260  0.4231 -0.2933
  104MOL   C13527121   1.573   7.478   2.701 -0.3317 -0.2568 -0.1031
  104MOL   C13627122   1.826   7.495   2.756  0.2307  0.2108  0.1774
  104MOL   H13727123   1.918   7.400   2.448  0.8895 -1.1576 -1.7732
  104MOL   H13827124   1.925   7.263   2.565  1.0234  1.5194 -0.0331
  104MOL   H13927125   1.647   7.322   2.494 -0.2464 -1.5908  1.8333
  104MOL   H14027126   1.573   7.583   2.731 -0.4404  0.1613 -1.4983
  104MOL   H14127127   1.539   7.405   2.775 -1.1360 -1.2364 -1.4107
  104MOL   H14227128   1.506   7.464   2.616  1.4163 -1.8828 -1.2556
  104MOL   H14327129   1.901   7.416   2.766  0.2002  0.1294 -0.2347
  104MOL   H14427130   1.786   7.507   2.857 -2.3259  0.1162 -0.7928
  104MOL   C14527131   1.879   7.624   2.697  0.0733  0.3513  0.6273
  104MOL   C14627132   1.999   7.665   2.779 -0.4820  0.2718 -0.1585
  104MOL   C14727133   2.013   7.753   2.879  0.8070  0.4671  0.4195
  104MOL   C14827134   2.140   7.778   2.959  0.0457 -0.7322 -0.1277
  104MOL   C14927135   1.898   7.841   2.924  0.0314  0.1012  0.1784
  104MOL   H15027136   1.798   7.697   2.692  0.3320  0.5752 -0.5785
  104MOL   H15127137   1.914   7.601   2.596 -1.0100 -0.3136  0.4024
  104MOL   H15227138   2.088   7.607   2.763 -0.0214  1.1428 -0.8178
  104MOL   H15327139   2.232   7.734   2.921  1.0702  0.5714  0.7746
  104MOL   H15427140   2.125   7.766   3.066 -1.4276 -0.6502 -0.3163
  104MOL   H15527141   2.154   0.005   2.939 -2.7082 -0.0254  1.4322
  104MOL   H15627142   1.894   7.844   3.033  0.1473  1.7885  0.1362
  104MOL   H15727143   1.803   7.793   2.902 -0.5804  1.9003 -1.1291
  104MOL   C15827144   1.905   0.108   2.872  0.2257 -0.1025 -0.8540
  104MOL   C15927145   1.905   0.120   2.718 -0.2917 -0.0465 -0.0826
  104MOL   C16027146   1.868   0.240   2.662 -0.6540  0.2765  0.3012
  104MOL   C16127147   1.841   0.375   2.735 -0.3293  0.4213 -0.2139
  104MOL   C16227148   1.879   0.246   2.510  0.1102  0.1752 -0.7407
  104MOL   H16327149   1.984   0.170   2.915 -0.7850  0.0447  0.8492
  104MOL   H16427150   1.815   0.161   2.904  1.2831 -0.0695  2.1863
  104MOL   H16527151   1.924   0.032   2.658 -0.3984  1.0304 -1.7467
  104MOL   H16627152   1.754   0.418   2.686 -1.3010 -0.9351  0.3172
  104MOL   H16727153   1.927   0.438   2.711 -1.2225  1.1411 -1.6007
  104MOL   H16827154   1.831   0.363   2.843 -2.0105  1.3079 -0.2602
  104MOL   H16927155   1.933   0.160   2.472 -0.2651 -0.8280  0.9201
  104MOL   H17027156   1.952   0.321   2.480 -1.3671  1.5875 -0.9138
  104MOL   C17127157   1.742   0.264   2.442  0.2143 -0.3117 -0.1110
  104MOL   C17227158   1.639   0.152   2.465 -0.2952 -0.0897 -0.1951
  104MOL   C17327159   1.560   0.096   2.372  0.3885  0.3032  0.1714
  104MOL   C17427160   1.548   0.129   2.227  0.0160  0.9937 -0.2273
  104MOL   C17527161   1.456   7.871   2.413 -0.2542 -0.2633 -0.2800
  104MOL   H17627162   1.748   0.279   2.334 -1.9776  1.0972 -0.0800
  104MOL   H17727163   1.710   0.363   2.474  0.4173 -1.2048  2.9548
  104MOL   H17827164   1.649   0.126   2.569  3.1508  1.2120 -0.1373
  104MOL   H17927165   1.647   0.158   2.190  0.0103 -0.4246 -1.4026
  104MOL   H18027166   1.484   0.217   2.216 -0.8820  0.4525  0.6281
  104MOL   H18127167   1.500   0.050   2.169 -0.2887  0.3415  0.9007
  104MOL   H18227168   1.357   0.008   2.371 -1.2376 -3.8442  0.5446
  104MOL   H18327169   1.449   0.003   2.521  1.8679  0.3111 -0.1702
  104MOL   C18427170   1.500   7.731   2.380 -0.2299 -0.2584 -0.1329
  104MOL   C18527171   1.388   7.635   2.390 -0.3756 -0.1285  0.8442
  104MOL   C18627172   1.375   7.506   2.352  0.4224  0.6896 -0.0219
  104MOL   C18727173   1.250   7.424   2.374 -0.1529  0.5467  0.7320
  104MOL   C18827174   1.486   7.426   2.283 -0.2547  0.0728  0.3854
  104MOL   H18927175   1.583   7.697   2.441  0.1025 -0.3079 -0.6067
  104MOL   H19027176   1.538   7.739   2.278 -0.5508 -1.5500 -0.3611
  104MOL   H19127177   1.310   7.676   2.453  0.3962 -2.1870  3.2606
  104MOL   H19227178   1.169   7.485   2.414 -2.6191 -1.4519 -1.0275
  104MOL   H19327179   1.269   7.334   2.432  1.1116  1.7088  2.1609
  104MOL   H19427180   1.211   7.395   2.276  0.9155  1.2524  0.0929
  104MOL   H19527181   1.502   7.326   2.322 -1.7982 -1.2017 -2.0650
  104MOL   H19627182   1.572   7.487   2.309  2.1281 -1.8878 -2.4659
  104MOL   C19727183   1.475   7.434   2.136 -0.2134 -0.2616  0.0842
  104MOL   C19827184   1.582   7.339   2.077  0.1327  0.2281  0.8419
  104MOL   C19927185   1.698   7.373   2.011  0.0355 -0.3616 -0.0076
  104MOL   C20027186   1.795   7.262   1.956 -0.0760 -0.3700 -0.5890
  104MOL   C20127187   1.743   7.516   1.980 -0.2475  0.6994 -0.4116
  104MOL   H20227188   1.475   7.539   2.107  0.2405 -0.1543  0.4809
  104MOL   H20327189   1.381   7.389   2.103 -0.8044  0.5826  0.6209
  104MOL   H20427190   1.567   7.233   2.092  1.4199 -0.1818 -0.6146
  104MOL   H20527191   1.813   7.284   1.851  3.0671 -2.5185 -0.5783
  104MOL   H20627192   1.756   7.160   1.968  1.9504 -1.0901  0.0643
  104MOL   H20727193   1.889   7.263   2.011 -1.2024  1.6148  1.3790
  104MOL   H20827194   1.658   7.584   1.969 -0.1219  0.8323 -0.5603
  104MOL   H20927195   1.800   7.508   1.887  0.3794 -1.6499  0.1607
  104MOL   C21027196   1.835   7.566   2.090  0.0796 -0.2544  0.3082
  104MOL   C21127197   1.922   7.679   2.034 -0.0465  0.0390  0.2501
  104MOL   C21227198   2.049   7.714   2.083  0.0507  0.2855  0.5157
  104MOL   C21327199   2.121   7.828   2.011  0.0307 -0.3971  0.0278
  104MOL   C21427200   2.127   7.649   2.197 -0.1141  0.9260  0.2255
  104MOL   H21527201   1.904   7.497   2.139  0.0078 -0.6058 -0.0818
  104MOL   H21627202   1.774   7.598   2.174 -2.6653 -0.5026 -1.5215
  104MOL   H21727203   1.899   7.729   1.941  1.3347  0.6908  0.2558
  104MOL   H21827204   2.077   7.838   1.912 -1.4625 -0.2212  0.6952
  104MOL   H21927205   2.226   7.804   1.993 -0.0700 -0.0742 -1.0451
  104MOL   H22027206   2.107   0.047   2.056 -0.7840 -0.5006  0.0089
  104MOL   H22127207   2.230   7.629   2.170 -0.5851 -1.1417 -0.1489
  104MOL   H22227208   2.090   7.546   2.207  0.0621  0.7730 -0.6786
  104MOL   C22327209   2.121   7.734   2.330 -0.2079 -0.2282  0.4793
  104MOL   C22427210   2.201   7.670   2.441  0.4305  0.4043  0.4376
  104MOL   C22527211   2.320   7.698   2.494 -0.0366  0.2025 -0.3254
  104MOL   C22627212   2.359   7.630   2.629 -0.6848 -0.0048  0.6528
  104MOL   C22727213   2.409   7.809   2.443  0.5865 -0.5002  0.1423
  104MOL   H22827214   2.018   7.730   2.365 -0.8240  2.8968 -0.7792
  104MOL   H22927215   2.135   7.841   2.313  1.5424 -0.5719 -0.4080
  104MOL   H23027216   2.142   7.593   2.489  0.0165 -0.0635 -0.8125
  104MOL   H23127217   2.305   7.536   2.639  0.7537 -0.8015  1.1099
  104MOL   H23227218   2.337   7.704   2.707 -1.7535 -1.7124  2.0248
  104MOL   H23327219   2.465   7.607   2.626 -1.4918 -4.2382  1.3694
  104MOL   H23427220   2.449   7.861   2.530 -1.2471 -3.4367  2.8464
  104MOL   H23527221   2.357   7.878   2.378 -1.7091  1.3029  3.7351
  104MOL   C23627222   2.533   7.751   2.372  0.1155  0.0365  0.0261
  104MOL   C23727223   2.518   7.718   2.224 -0.4047 -0.1646  0.5293
  104MOL   C23827224   2.534   7.600   2.165  0.1775 -0.3061 -0.4447
  104MOL   C23927225   2.520   7.572   2.013 -0.4996 -0.0949 -0.0641
  104MOL   C24027226   2.593   7.483   2.238 -0.9185 -0.0120 -0.1747
  104MOL   H24127227   2.561   7.668   2.438 -1.8947 -0.6516  0.0664
  104MOL   H24227228   2.606   7.831   2.370  0.7710 -0.5050  1.2043
  104MOL   H24327229   2.479   7.792   2.156  0.9482  2.2851  2.3098
  104MOL   H24427230   2.617   7.559   1.966  0.3217 -1.0381  1.8396
  104MOL   H24527231   2.484   7.662   1.962  2.5203  2.1540  1.5891
  104MOL   H24627232   2.462   7.485   1.982  1.1296 -0.0895 -3.3735
  104MOL   H24727233   2.649   7.519   2.324 -1.2067  0.1851 -0.0678
  104MOL   H24827234   2.673   7.431   2.185  1.0237  2.5226  0.1205
  104MOL   C24927235   2.500   7.374   2.286 -0.0339  0.3481 -0.3493
  104MOL   C25027236   2.560   7.282   2.394 -0.1301  0.1640  0.3524
  104MOL   C25127237   2.505   7.234   2.505  0.3484 -0.2269 -0.0549
  104MOL   C25227238   2.575   7.135   2.597 -0.6088 -0.7829 -0.1032
  104MOL   C25327239   2.361   7.259   2.541 -0.5665 -0.2616  0.0482
  104MOL   H25427240   2.450   7.312   2.212  1.5347 -0.6082 -0.6366
  104MOL   H25527241   2.421   7.434   2.330  0.6884  2.3821 -1.7553
  104MOL   H25627242   2.658   7.241   2.371 -0.8722 -0.6683 -1.4195
  104MOL   H25727243   2.544   7.031   2.586 -0.0658 -1.0241  0.5671
  104MOL   H25827244   2.542   7.157   2.699  0.2180  1.9882 -0.4016
  104MOL   H25927245   2.683   7.152   2.593 -0.4972 -1.1268  1.1676
  104MOL   H26027246   2.311   7.332   2.477  0.3831  1.3053  1.0582
  104MOL   H26127247   2.368   7.300   2.641  0.3807  2.1252 -0.9711
  104MOL   H26227248   2.306   7.166   2.527 -2.3341  0.8560 -0.5672
  105MOL     C127249   4.756   7.875   6.497  0.1045 -0.0280 -0.1232
  105MOL     C227250   4.607   0.024   6.527 -0.5573  0.0497  0.0871
  105MOL     C327251   4.555   0.082   6.637  0.3006 -0.1283  0.2057
  105MOL     C427252   4.413   0.131   6.640 -0.0400 -0.1330 -0.1540
  105MOL     C527253   4.639   0.105   6.758  0.8151 -0.2493 -0.7147
  105MOL     H627254   4.807   7.829   6.582  2.2588  1.0817 -0.7664
  105MOL     H727255   4.765   7.787   6.433  2.2750  1.3270 -1.7399
  105MOL     H827256   4.539   0.026   6.443 -0.5612  1.3410  0.1018
  105MOL     H927257   4.365   0.120   6.543 -0.2647  1.3315 -0.2278
  105MOL    H1027258   4.403   0.237   6.663  0.4776 -0.1192  0.0135
  105MOL    H1127259   4.368   0.076   6.722  0.4503  0.6265  0.6250
  105MOL    H1227260   4.604   0.202   6.793  0.9052 -0.2364 -0.6600
  105MOL    H1327261   4.742   0.120   6.723  0.2034  2.4345 -1.5477
  105MOL    H1427262   4.810   0.081   6.457  0.9515  0.0627  1.1760
  105MOL    C1527263   4.634   7.871   6.861  0.3836  0.2280 -0.3403
  105MOL    C1627264   4.734   0.019   6.981 -0.0832 -0.7284  1.0583
  105MOL    C1727265   4.808   7.810   7.043  0.3109 -0.4384 -0.0154
  105MOL    C1827266   4.891   7.847   7.162 -0.0084  0.5013  1.1713
  105MOL    C1927267   4.798   7.660   7.030  0.1510 -0.0868 -0.0709
  105MOL    H2027268   4.645   7.779   6.804 -2.4775 -0.1651 -0.3162
  105MOL    H2127269   4.536   7.860   6.908  1.1464 -4.0350  0.4623
  105MOL    H2227270   4.741   0.123   7.009  0.1419  0.1482 -2.0779
  105MOL    H2327271   4.992   7.807   7.163 -0.2307 -0.2010 -1.1379
  105MOL    H2427272   4.839   7.819   7.254  0.8877  1.5880  2.0209
  105MOL    H2527273   4.895   0.077   7.166 -0.4034  0.5999 -0.6297
  105MOL    H2627274   4.698   7.643   6.989  0.4477  0.6313 -1.1224
  105MOL    H2727275   4.796   7.618   7.130  0.0662  2.5732  1.0840
  105MOL    C2827276   4.907   7.602   6.945  0.7093  0.1621 -0.6230
  105MOL    C2927277   4.892   7.451   6.912 -0.7575  0.7432  0.7363
  105MOL    C3027278   4.858   7.406   6.790  0.2568 -0.3164 -0.2182
  105MOL    C3127279   4.842   7.258   6.767  0.0205 -0.2746  0.1137
  105MOL    C3227280   4.833   7.482   6.659  0.2553 -0.8232  0.4699
  105MOL    H3327281   5.002   7.615   6.995  0.4716 -0.2067 -0.0675
  105MOL    H3427282   4.915   7.653   6.849  3.4124  2.1550  0.6256
  105MOL    H3527283   4.918   7.380   6.989  0.2316  0.7514  0.4177
  105MOL    H3627284   4.841   7.202   6.860 -2.6665 -1.4704 -0.5806
  105MOL    H3727285   4.923   7.214   6.709 -0.2986  0.2310 -0.7310
  105MOL    H3827286   4.748   7.231   6.718 -0.2981  1.1804 -0.0907
  105MOL    H3927287   4.831   7.591   6.664  1.9439 -0.7943  1.1024
  105MOL    H4027288   4.734   7.454   6.623  0.6292 -0.7823 -0.6021
  105MOL    C4127289   4.941   7.442   6.556 -0.4809 -0.5274  0.0610
  105MOL    C4227290   4.909   7.322   6.472 -0.2151  0.0571  0.9648
  105MOL    C4327291   5.000   7.258   6.401 -0.0566 -0.4962 -0.3102
  105MOL    C4427292   4.966   7.136   6.317 -0.3014 -0.5100 -0.4305
  105MOL    C4527293   5.151   7.301   6.401  0.5326 -0.4650 -0.2384
  105MOL    H4627294   5.042   7.431   6.596  0.9628  0.3878 -3.1142
  105MOL    H4727295   4.947   7.523   6.483 -1.9835  0.8616  1.4505
  105MOL    H4827296   4.809   7.281   6.475  0.7448 -2.5892 -0.8731
  105MOL    H4927297   4.982   7.151   6.210  0.3286  2.2257  0.0014
  105MOL    H5027298   4.859   7.116   6.322 -0.0746 -1.7136 -0.0781
  105MOL    H5127299   5.017   7.044   6.346 -1.7093 -1.6824 -1.5688
  105MOL    H5227300   5.152   7.409   6.413  1.4293 -0.4320 -0.5825
  105MOL    H5327301   5.186   7.285   6.299 -0.4917 -0.1942 -0.6392
  105MOL    C5427302   5.242   7.218   6.489  0.1325  0.7992  0.6887
  105MOL    C5527303   5.377   7.283   6.513 -0.6748  0.7079 -0.2211
  105MOL    C5627304   5.432   7.315   6.633 -0.0857 -0.9594 -0.4293
  105MOL    C5727305   5.573   7.369   6.638 -0.0746  0.3672 -0.3255
  105MOL    C5827306   5.359   7.319   6.766 -0.0602  0.2942 -0.4409
  105MOL    H5927307   5.255   7.113   6.463 -0.2096  1.1179 -0.7923
  105MOL    H6027308   5.195   7.220   6.588 -1.5360  1.7713 -0.1097
  105MOL    H6127309   5.437   7.306   6.426 -2.0799 -0.1970 -1.4465
  105MOL    H6227310   5.566   7.475   6.660 -1.8024 -0.0641  1.3310
  105MOL    H6327311   5.631   7.366   6.546  1.0238 -1.1120  0.3914
  105MOL    H6427312   5.629   7.321   6.719 -1.1083 -1.1495 -0.4762
  105MOL    H6527313   5.254   7.347   6.755 -1.0410 -2.8844  0.3678
  105MOL    H6627314   5.401   7.402   6.824  2.1434 -0.2463 -1.1978
  105MOL    C6727315   5.372   7.177   6.840 -0.2108 -0.1940 -0.0677
  105MOL    C6827316   5.286   7.165   6.967  0.1345 -0.4917  0.0328
  105MOL    C6927317   5.175   7.091   6.982  0.0508  0.0411  0.3558
  105MOL    C7027318   5.097   7.111   7.104 -0.6857 -0.2377 -0.9009
  105MOL    C7127319   5.120   6.989   6.887  0.0307 -0.3547 -0.1067
  105MOL    H7227320   5.474   7.155   6.872 -0.6794 -1.2520  0.7274
  105MOL    H7327321   5.340   7.102   6.768 -1.5975  0.1351  0.1871
  105MOL    H7427322   5.309   7.228   7.052  0.4537 -0.3681 -0.1487
  105MOL    H7527323   5.136   7.196   7.159  0.4722 -1.5165  0.3005
  105MOL    H7627324   5.092   7.018   7.161 -0.7690 -0.7155 -1.6691
  105MOL    H7727325   4.994   7.132   7.076 -0.5614  2.5632  0.6026
  105MOL    H7827326   5.109   7.039   6.791 -1.5006  0.0597  0.2791
  105MOL    H7927327   5.015   6.981   6.915 -0.0370  3.0845  0.8624
  105MOL    C8027328   5.201   6.860   6.876 -0.2286  0.0733  0.0298
  105MOL    C8127329   5.126   6.764   6.776 -0.3946 -0.7656 -0.4999
  105MOL    C8227330   5.119   6.771   6.643  0.0256 -0.5395  0.2316
  105MOL    C8327331   5.193   6.867   6.554  0.1116  0.1789  0.4489
  105MOL    C8427332   5.017   6.676   6.581  0.3947 -1.0673 -0.1013
  105MOL    H8527333   5.226   6.817   6.973 -0.1990 -0.8341 -0.3745
  105MOL    H8627334   5.296   6.877   6.826 -0.5919  0.2731 -0.5913
  105MOL    H8727335   5.066   6.692   6.829 -0.7367  0.5213  0.9095
  105MOL    H8827336   5.123   6.947   6.530 -0.4133 -0.9852 -2.0068
  105MOL    H8927337   5.226   6.823   6.461  0.2254  0.1456  0.5043
  105MOL    H9027338   5.279   6.913   6.602  1.1206 -0.0872 -1.0672
  105MOL    H9127339   4.977   6.596   6.642 -1.5350  0.0116  0.0789
  105MOL    H9227340   5.078   6.633   6.501 -0.4973 -0.2347 -1.2589
  105MOL    C9327341   4.903   6.755   6.512 -0.4505  0.4462  0.3900
  105MOL    C9427342   4.783   6.670   6.462 -0.1605  0.3133 -0.0119
  105MOL    C9527343   4.721   6.662   6.343 -0.3697 -0.1267  0.1553
  105MOL    C9627344   4.611   6.563   6.308  0.2338  0.0904 -0.1586
  105MOL    C9727345   4.763   6.747   6.228 -0.4517  0.6414  0.5068
  105MOL    H9827346   4.944   6.817   6.433  1.9455 -2.0335 -0.3856
  105MOL    H9927347   4.847   6.820   6.580  0.3126  2.3529 -0.7693
  105MOL   H10027348   4.740   6.608   6.539 -3.0665  0.9562 -1.0390
  105MOL   H10127349   4.649   6.488   6.239 -0.7081 -0.7505  0.2259
  105MOL   H10227350   4.561   6.511   6.390 -0.9678  0.8036 -0.4232
  105MOL   H10327351   4.535   6.614   6.248  1.7161  0.5863 -1.6559
  105MOL   H10427352   4.814   6.837   6.264 -0.3019 -0.1910  2.3977
  105MOL   H10527353   4.674   6.779   6.175 -1.0586  2.4965  2.5801
  105MOL   C10627354   4.867   6.677   6.140 -0.3708  0.6281  0.2715
  105MOL   C10727355   4.917   6.768   6.037  0.1405 -0.3556 -0.1236
  105MOL   C10827356   4.886   6.770   5.906  0.1475  0.1911  0.0891
  105MOL   C10927357   4.810   6.665   5.826 -0.4019  0.4486 -0.1670
  105MOL   C11027358   4.946   6.883   5.815  0.7566  0.1166  0.5534
  105MOL   H11127359   4.830   6.585   6.093  0.4793  0.5086 -0.1764
  105MOL   H11227360   4.951   6.647   6.202  2.3515  0.0232 -3.5236
  105MOL   H11327361   4.980   6.842   6.082  1.9518 -1.7539 -0.2714
  105MOL   H11427362   4.745   6.712   5.753 -0.6473  1.3610  0.6292
  105MOL   H11527363   4.882   6.596   5.780 -0.4058  0.1479  0.2717
  105MOL   H11627364   4.753   6.609   5.900 -0.1751  1.3517  0.7068
  105MOL   H11727365   4.962   6.841   5.715  1.9765  0.2556  0.6851
  105MOL   H11827366   5.047   6.888   5.855  1.5091 -0.4216 -1.2136
  105MOL   C11927367   4.867   7.013   5.806  0.8786 -0.4095 -0.4212
  105MOL   C12027368   4.952   7.114   5.735  0.2290 -0.2274 -0.0708
  105MOL   C12127369   4.932   7.154   5.606 -0.3588  0.8550  0.5031
  105MOL   C12227370   5.001   7.272   5.540  1.0676  0.6226 -0.0788
  105MOL   C12327371   4.819   7.105   5.523 -0.0006  0.2543 -0.9144
  105MOL   H12427372   4.842   7.050   5.906 -0.6120  0.2510 -1.0185
  105MOL   H12527373   4.767   6.999   5.765 -0.3014 -0.8349  2.4418
  105MOL   H12627374   5.032   7.152   5.798 -0.5227 -0.2519  0.9108
  105MOL   H12727375   5.002   7.247   5.434  0.8117 -0.1292  0.0969
  105MOL   H12827376   5.105   7.285   5.571  0.9129  3.1947 -0.5138
  105MOL   H12927377   4.959   7.372   5.550 -0.3536 -0.0849  1.2088
  105MOL   H13027378   4.808   7.167   5.434  0.9168  0.6015 -0.7921
  105MOL   H13127379   4.727   7.131   5.575  0.0295 -1.7544  0.1760
  105MOL   C13227380   4.838   6.962   5.479 -0.5241 -0.4627  0.2760
  105MOL   C13327381   4.731   6.921   5.375 -0.6493  0.6243  0.2678
  105MOL   C13427382   4.751   6.844   5.270 -0.7993 -0.3884  0.2253
  105MOL   C13527383   4.626   6.806   5.185 -0.2300 -0.6494  0.4397
  105MOL   C13627384   4.883   6.780   5.230  0.6334 -0.0838 -0.0704
  105MOL   H13727385   4.842   6.896   5.566 -1.1732 -0.4654  0.3104
  105MOL   H13827386   4.937   6.954   5.435  0.0836 -1.6192  1.8214
  105MOL   H13927387   4.631   6.954   5.397 -1.4003 -1.0266 -0.5295
  105MOL   H14027388   4.628   6.864   5.093  2.4480 -0.9706  0.2704
  105MOL   H14127389   4.528   6.822   5.230 -0.4761 -0.3013 -0.2052
  105MOL   H14227390   4.624   6.703   5.150  2.7339 -0.2044 -1.2343
  105MOL   H14327391   4.869   6.675   5.203  0.9771  0.6157 -3.1558
  105MOL   H14427392   4.948   6.775   5.318  1.5515 -1.5824 -0.7993
  105MOL   C14527393   4.953   6.858   5.116 -0.6506  0.3710  0.2450
  105MOL   C14627394   5.053   6.768   5.052  0.5488 -0.2198 -0.8771
  105MOL   C14727395   5.085   6.768   4.924 -0.4696 -0.8761  0.2695
  105MOL   C14827396   5.197   6.685   4.864 -0.3579  0.2142 -0.6251
  105MOL   C14927397   5.015   6.860   4.823 -0.1733  0.4109 -0.2347
  105MOL   H15027398   5.016   6.934   5.163 -0.8640 -0.4448  1.8844
  105MOL   H15127399   4.886   6.909   5.047 -0.7045  1.2086  0.8978
  105MOL   H15227400   5.117   6.716   5.122  0.3640  0.2572 -0.3497
  105MOL   H15327401   5.226   6.610   4.937  0.3877 -0.2515 -1.4028
  105MOL   H15427402   5.287   6.743   4.842 -0.3994  0.4753 -0.1039
  105MOL   H15527403   5.164   6.642   4.770 -0.5384  1.5939 -1.2136
  105MOL   H15627404   5.092   6.886   4.751  0.4650 -2.5396 -0.6848
  105MOL   H15727405   4.983   6.957   4.863  1.8729  1.0128 -0.0023
  105MOL   C15827406   4.886   6.813   4.750 -0.1817  0.4462  0.5424
  105MOL   C15927407   4.857   6.889   4.626  0.2990  0.1001 -0.5241
  105MOL   C16027408   4.801   7.012   4.619  0.1766  0.5699  0.5742
  105MOL   C16127409   4.764   7.093   4.743 -0.4555  0.1851 -0.2079
  105MOL   C16227410   4.792   7.084   4.489 -0.2073  0.9869 -0.0024
  105MOL   H16327411   4.792   6.798   4.803 -1.5231 -1.4944 -2.2848
  105MOL   H16427412   4.893   6.710   4.715  0.2303  0.2464  1.1964
  105MOL   H16527413   4.890   6.835   4.538  0.3687  0.0525 -0.4694
  105MOL   H16627414   4.724   7.034   4.826  1.0734 -2.5184 -1.3162
  105MOL   H16727415   4.684   7.159   4.710 -1.8055 -1.6604 -0.7695
  105MOL   H16827416   4.843   7.154   4.787 -0.1192 -1.6926  1.8824
  105MOL   H16927417   4.689   7.107   4.460  0.1796  0.5371 -1.7683
  105MOL   H17027418   4.838   7.015   4.418  1.3873 -1.8271  3.6176
  105MOL   C17127419   4.876   7.203   4.485  0.6652 -0.4032 -0.7897
  105MOL   C17227420   4.861   7.283   4.356 -0.4898 -0.3224 -0.0841
  105MOL   C17327421   4.954   7.312   4.262  0.5501  0.1501 -0.7010
  105MOL   C17427422   5.093   7.256   4.277 -0.1253 -0.1058 -0.2576
  105MOL   C17527423   4.931   7.410   4.147 -0.7624 -1.0041 -0.5281
  105MOL   H17627424   4.980   7.180   4.507  0.7396  0.7565  0.1309
  105MOL   H17727425   4.848   7.270   4.566 -0.7559 -1.8072 -0.1028
  105MOL   H17827426   4.765   7.333   4.348 -0.4158 -0.4035 -1.7726
  105MOL   H17927427   5.148   7.274   4.185  0.9011  1.8054  0.7086
  105MOL   H18027428   5.100   7.150   4.301 -1.5701 -0.0678  0.3394
  105MOL   H18127429   5.145   7.314   4.353 -2.1424  0.3129  0.8282
  105MOL   H18227430   4.827   7.437   4.127 -0.2850  0.8363 -0.6865
  105MOL   H18327431   4.967   7.368   4.053  0.1603 -1.5629  0.0769
  105MOL   C18427432   4.992   7.546   4.170  0.1005 -0.1826 -0.2026
  105MOL   C18527433   4.921   7.670   4.117  0.5979  0.3812  0.2471
  105MOL   C18627434   4.925   7.798   4.173 -0.3579  0.2804  0.0948
  105MOL   C18727435   4.862   0.049   4.113 -0.0550 -0.7983  0.1807
  105MOL   C18827436   4.994   7.822   4.304 -0.5189  0.7297 -0.4771
  105MOL   H18927437   5.095   7.544   4.134  0.4004 -0.7139  0.6689
  105MOL   H19027438   4.998   7.552   4.279 -1.1133 -4.0061  0.1385
  105MOL   H19127439   4.893   7.665   4.013  0.6558 -0.5335  0.2723
  105MOL   H19227440   4.828   0.030   4.011  0.7652  1.2737 -0.5047
  105MOL   H19327441   4.942   0.122   4.100 -0.0579 -0.6572  0.9281
  105MOL   H19427442   4.789   0.088   4.184  0.8514  1.5472 -0.1287
  105MOL   H19527443   5.070   0.019   4.289  0.3222 -0.0786 -0.3624
  105MOL   H19627444   5.045   7.734   4.344  0.1501  0.8741 -1.0156
  105MOL   C19727445   4.894   7.859   4.414  0.0033  0.3646  0.2983
  105MOL   C19827446   4.949   7.847   4.561 -0.4833 -0.5032  0.1801
  105MOL   C19927447   4.923   7.750   4.653  0.3913 -0.6841  0.2958
  105MOL   C20027448   4.985   7.764   4.792 -0.0465  0.7757 -0.1976
  105MOL   C20127449   4.833   7.625   4.629  0.8446 -0.7248 -0.8009
  105MOL   H20227450   4.811   7.789   4.407  0.1816  0.2197 -0.3826
  105MOL   H20327451   4.836   0.072   4.401 -0.4707 -0.2203 -1.9946
  105MOL   H20427452   5.007   0.054   4.588  0.8726 -0.7856 -1.7209
  105MOL   H20527453   5.067   7.835   4.787 -1.8849  2.8418 -3.0147
  105MOL   H20627454   5.011   7.664   4.828  0.7175  1.2521  0.5933
  105MOL   H20727455   4.908   7.807   4.856  0.0665 -1.2862  1.3638
  105MOL   H20827456   4.868   7.546   4.696 -0.6972 -1.9697 -1.4400
  105MOL   H20927457   4.847   7.594   4.525  2.5890 -0.8030 -0.5648
  105MOL   C21027458   4.681   7.643   4.646  0.2361  0.2887  0.5052
  105MOL   C21127459   4.611   7.511   4.619  0.0612  0.3010  0.1267
  105MOL   C21227460   4.537   7.483   4.507  0.2191 -0.6365 -0.1351
  105MOL   C21327461   4.472   7.346   4.492  0.0535  0.0797 -0.9657
  105MOL   C21427462   4.496   7.582   4.400  0.5453 -0.4056  0.2947
  105MOL   H21527463   4.653   7.728   4.584  0.4875 -0.6104 -0.8736
  105MOL   H21627464   4.675   7.673   4.751  2.6490 -0.0308  0.7577
  105MOL   H21727465   4.631   7.433   4.691 -1.8884 -0.4809 -0.1762
  105MOL   H21827466   4.497   7.287   4.580  0.6442 -0.9307 -1.8000
  105MOL   H21927467   4.521   7.295   4.409 -1.8038 -3.1371 -0.1565
  105MOL   H22027468   4.367   7.354   4.464 -0.6358 -0.3838  1.3890
  105MOL   H22127469   4.509   7.687   4.426 -0.0182 -0.4968  0.9357
  105MOL   H22227470   4.388   7.568   4.389  0.2960  1.1487  0.5638
  105MOL   C22327471   4.565   7.548   4.266 -0.0590  0.3643  0.7224
  105MOL   C22427472   4.573   7.653   4.161 -0.4716  0.1561  0.1062
  105MOL   C22527473   4.513   7.659   4.040  0.0562  0.0497  0.5972
  105MOL   C22627474   4.542   7.770   3.938  0.2802  0.3126  0.1071
  105MOL   C22727475   4.407   7.558   4.002 -0.6494 -0.1203  0.2261
  105MOL   H22827476   4.512   7.458   4.235  1.3633 -0.2392 -0.0028
  105MOL   H22927477   4.669   7.517   4.277 -0.6378 -1.3598  1.4924
  105MOL   H23027478   4.649   7.726   4.184 -1.0477  0.3403  1.4733
  105MOL   H23127479   4.445   7.818   3.921 -1.3444 -2.3283  1.5706
  105MOL   H23227480   4.571   7.725   3.843  1.0002 -0.2133  0.5712
  105MOL   H23327481   4.612   7.846   3.971 -0.1749  0.2854  1.1327
  105MOL   H23427482   4.318   7.598   3.955  0.8336  2.7686 -0.2725
  105MOL   H23527483   4.374   7.498   4.087 -2.7978  1.5377  0.5943
  105MOL   C23627484   4.458   7.461   3.889 -0.4171  0.6764  0.0286
  105MOL   C23727485   4.342   7.379   3.832 -0.9393  0.0121  0.0155
  105MOL   C23827486   4.271   7.406   3.718  0.1906  0.0847 -0.2314
  105MOL   C23927487   4.153   7.320   3.689  0.5765  0.3724 -0.2060
  105MOL   C24027488   4.285   7.522   3.628 -0.9016 -0.3054 -0.5427
  105MOL   H24127489   4.548   7.406   3.915 -0.1428  0.9446 -0.3575
  105MOL   H24227490   4.496   7.518   3.804 -0.5319 -3.1809 -2.7529
  105MOL   H24327491   4.310   7.293   3.890 -0.0306  0.1657  0.7495
  105MOL   H24427492   4.136   7.260   3.779  1.8605 -0.2837 -0.3858
  105MOL   H24527493   4.170   7.247   3.610  0.1780 -1.2556  1.1844
  105MOL   H24627494   4.065   7.373   3.652  1.0800 -0.4036 -2.6023
  105MOL   H24727495   4.288   7.480   3.528 -0.8370 -0.4978 -0.4602
  105MOL   H24827496   4.384   7.566   3.638 -0.2742 -2.1028  1.8080
  105MOL   C24927497   4.176   7.628   3.644  0.3916  0.4269  0.0660
  105MOL   C25027498   4.169   7.727   3.525  0.3835  0.5876  0.6652
  105MOL   C25127499   4.105   7.708   3.412  0.2141  0.2976  0.6786
  105MOL   C25227500   4.100   7.816   3.304  0.6053 -0.4371 -0.5175
  105MOL   C25327501   4.041   7.575   3.369  0.0028  0.3247 -0.4562
  105MOL   H25427502   4.205   7.680   3.735  0.0727  0.7599 -0.0208
  105MOL   H25527503   4.080   7.581   3.663 -0.1490  0.9312 -1.3879
  105MOL   H25627504   4.223   7.820   3.535  1.0032  0.4339 -1.0672
  105MOL   H25727505   4.008   7.815   3.247 -0.1145  1.1085  0.5704
  105MOL   H25827506   4.178   7.794   3.231  1.4915 -0.4908  0.4262
  105MOL   H25927507   4.120   0.034   3.351  1.4811 -1.6099  1.6034
  105MOL   H26027508   4.036   7.497   3.445 -0.3646  1.1217  0.3434
  105MOL   H26127509   4.092   7.540   3.280  0.3778 -2.1104  0.6828
  105MOL   H26227510   3.937   7.592   3.342  0.2059  3.3196  0.4725
  106MOL     C127511   4.741   1.250   0.546  0.5363  1.0784  1.5597
  106MOL     C227512   4.592   1.284   0.527  0.4636  0.6946  0.2864
  106MOL     C327513   4.513   1.355   0.616  0.2163 -0.3112  0.1807
  106MOL     C427514   4.369   1.383   0.578 -0.1936 -0.0417  0.4683
  106MOL     C527515   4.555   1.402   0.750 -0.0163 -0.0140  0.9158
  106MOL     H627516   4.800   1.314   0.480  1.3817 -2.0729 -0.8426
  106MOL     H727517   4.766   1.275   0.650  1.1890 -2.4686  2.3035
  106MOL     H827518   4.547   1.270   0.430  0.3042  2.6449  0.0506
  106MOL     H927519   4.325   1.297   0.526  1.0099  0.1414 -0.9094
  106MOL    H1027520   4.369   1.472   0.515 -0.1241  1.1264  2.1195
  106MOL    H1127521   4.294   1.403   0.654 -2.2420  1.6451 -1.9257
  106MOL    H1227522   4.507   1.499   0.756  0.1902  0.0597  1.4347
  106MOL    H1327523   4.660   1.431   0.754 -0.1897  0.7118  0.1062
  106MOL    H1427524   4.773   1.148   0.526 -2.6261  0.3605 -0.1631
  106MOL    C1527525   4.526   1.297   0.860 -0.2027  0.2184 -0.6268
  106MOL    C1627526   4.593   1.160   0.835  0.7446 -0.9274  0.2365
  106MOL    C1727527   4.694   1.098   0.904 -0.2643  0.0007  0.8074
  106MOL    C1827528   4.744   0.965   0.861  0.5680 -0.2680  0.5669
  106MOL    C1927529   4.762   1.152   1.029  0.1884  0.0079  0.0982
  106MOL    H2027530   4.418   1.281   0.866 -0.1767  0.2745  0.0334
  106MOL    H2127531   4.553   1.329   0.961  0.0300  0.3350 -0.7255
  106MOL    H2227532   4.556   1.115   0.743  0.4504 -1.2139  0.4943
  106MOL    H2327533   4.702   0.934   0.765  0.4976 -0.3492  0.6254
  106MOL    H2427534   4.715   0.889   0.933  0.4918 -0.4483  0.3451
  106MOL    H2527535   4.852   0.957   0.848  0.7985  3.4267 -0.4651
  106MOL    H2627536   4.734   1.254   1.055  0.4383  0.5728 -1.8150
  106MOL    H2727537   4.869   1.168   1.012  0.2397  0.0407  0.4505
  106MOL    C2827538   4.727   1.072   1.162  0.8473 -0.2493 -0.0514
  106MOL    C2927539   4.824   1.107   1.275  0.3696  0.3922  0.5899
  106MOL    C3027540   4.799   1.083   1.408  0.2186  0.1179  0.2660
  106MOL    C3127541   4.894   1.119   1.515 -0.0120  0.3831  0.0922
  106MOL    C3227542   4.668   1.028   1.456  0.6874  0.0838 -0.1110
  106MOL    H3327543   4.734   0.965   1.143  0.3131 -0.7779  2.5149
  106MOL    H3427544   4.629   1.110   1.189  1.8374  0.7341  2.2511
  106MOL    H3527545   4.921   1.152   1.259  0.3031  1.5471  3.2812
  106MOL    H3627546   4.835   1.177   1.586 -2.5759  1.7741 -3.0615
  106MOL    H3727547   4.974   1.184   1.478  1.4125 -1.0838  0.5653
  106MOL    H3827548   4.931   1.027   1.561 -1.6629 -0.3940 -0.1048
  106MOL    H3927549   4.605   1.006   1.370  1.1591  0.5424 -0.5783
  106MOL    H4027550   4.620   1.111   1.508 -3.1437 -0.9630 -1.7855
  106MOL    C4127551   4.672   0.906   1.550 -0.4359  0.4524  0.3206
  106MOL    C4227552   4.534   0.872   1.603  0.0161 -0.1684  0.5685
  106MOL    C4327553   4.472   0.928   1.707  0.0772 -0.4358 -0.4692
  106MOL    C4427554   4.333   0.878   1.741  0.0409  0.2709  0.0263
  106MOL    C4527555   4.528   1.029   1.799  0.6622 -0.5289 -0.2566
  106MOL    H4627556   4.728   0.935   1.639  1.0476  0.3549 -0.5707
  106MOL    H4727557   4.727   0.827   1.498 -1.1434 -0.7391  1.3698
  106MOL    H4827558   4.479   0.810   1.533  1.1787  0.1155 -0.6232
  106MOL    H4927559   4.293   0.823   1.655  1.6159  0.8735 -1.1300
  106MOL    H5027560   4.274   0.964   1.770 -0.5986  0.1562 -0.9214
  106MOL    H5127561   4.337   0.817   1.831 -1.0664  0.9632  0.5465
  106MOL    H5227562   4.455   1.108   1.817  0.0572 -1.6405  2.3103
  106MOL    H5327563   4.613   1.076   1.748  2.4277 -2.2432  1.0477
  106MOL    C5427564   4.578   0.966   1.936 -0.3484  0.8963 -0.6091
  106MOL    C5527565   4.612   1.071   2.040  0.3408 -0.4251 -0.0105
  106MOL    C5627566   4.598   1.065   2.176 -0.0358 -0.6267 -0.3038
  106MOL    C5727567   4.653   1.174   2.264  0.0666 -0.6247  0.0974
  106MOL    C5827568   4.559   0.935   2.244 -0.2802  0.3813 -0.4222
  106MOL    H5927569   4.676   0.919   1.924  0.2374  1.9454 -0.0200
  106MOL    H6027570   4.507   0.891   1.971 -0.4305  0.3109 -1.9903
  106MOL    H6127571   4.659   1.159   1.998 -2.7384  0.5520 -1.5276
  106MOL    H6227572   4.755   1.153   2.295  0.9842  2.1721 -0.8724
  106MOL    H6327573   4.587   1.174   2.351  1.6143 -0.1559  1.2783
  106MOL    H6427574   4.653   1.270   2.213  0.8627 -1.3549 -1.3130
  106MOL    H6527575   4.492   0.874   2.184 -1.1684  3.2199 -2.4280
  106MOL    H6627576   4.497   0.949   2.333  1.7241 -1.3200  1.2945
  106MOL    C6727577   4.682   0.857   2.289 -0.2321 -0.2645  0.2418
  106MOL    C6827578   4.650   0.736   2.374 -0.6942 -0.1297 -0.5154
  106MOL    C6927579   4.617   0.613   2.334  0.5399  0.5802 -0.4180
  106MOL    C7027580   4.611   0.495   2.434 -0.8083 -0.1706 -0.1101
  106MOL    C7127581   4.585   0.575   2.189 -0.3103  0.1918 -0.3586
  106MOL    H7227582   4.751   0.926   2.337  0.7653  0.1478 -1.7417
  106MOL    H7327583   4.730   0.809   2.203 -1.1245 -1.9704  0.6791
  106MOL    H7427584   4.676   0.764   2.474  0.1390 -1.0703 -0.4610
  106MOL    H7527585   4.705   0.446   2.457 -0.6101 -0.4875 -1.5164
  106MOL    H7627586   4.527   0.429   2.412  0.3703 -1.2031 -1.6723
  106MOL    H7727587   4.582   0.546   2.526  2.1116 -1.6197  1.6656
  106MOL    H7827588   4.573   0.662   2.124 -1.6536 -0.3462 -0.8390
  106MOL    H7927589   4.491   0.520   2.181 -0.6335  0.8592 -1.1935
  106MOL    C8027590   4.699   0.495   2.126  0.2997 -0.5009 -0.7681
  106MOL    C8127591   4.661   0.460   1.988 -0.6813 -0.1046 -0.2891
  106MOL    C8227592   4.756   0.438   1.894  0.2621 -0.2609  0.7316
  106MOL    C8327593   4.910   0.440   1.908 -0.1192 -0.2156 -0.3326
  106MOL    C8427594   4.713   0.382   1.759  0.3401 -0.2831 -0.7438
  106MOL    H8527595   4.730   0.408   2.183  3.4597  0.4864 -0.8374
  106MOL    H8627596   4.790   0.556   2.117  0.3866 -0.4230  0.6066
  106MOL    H8727597   4.558   0.437   1.962 -0.8417  0.7743 -0.4461
  106MOL    H8827598   4.953   0.352   1.859 -2.1447 -2.5880  1.9737
  106MOL    H8927599   4.957   0.460   2.004  0.2193  1.4825 -0.8390
  106MOL    H9027600   4.944   0.523   1.846 -1.4888 -0.5354 -1.5475
  106MOL    H9127601   4.620   0.326   1.769 -0.2601  1.0192  1.2134
  106MOL    H9227602   4.781   0.309   1.714  0.0560 -0.5736 -0.7058
  106MOL    C9327603   4.696   0.497   1.656  0.3083  0.8944  0.3627
  106MOL    C9427604   4.675   0.456   1.512  0.0827 -0.2265  0.1601
  106MOL    C9527605   4.768   0.452   1.415 -0.4892 -0.1172 -0.0357
  106MOL    C9627606   4.728   0.395   1.277  0.3807 -0.0116 -0.1162
  106MOL    C9727607   4.916   0.496   1.440 -0.4794 -0.5210  0.5147
  106MOL    H9827608   4.782   0.564   1.660  1.0091  0.2618 -2.9210
  106MOL    H9927609   4.611   0.564   1.668 -0.2881 -0.0334  1.4485
  106MOL   H10027610   4.578   0.416   1.489 -0.3001  0.6430  0.2596
  106MOL   H10127611   4.621   0.400   1.260  0.3675 -0.2147 -0.0947
  106MOL   H10227612   4.762   0.454   1.192 -2.0684  3.6086  1.2845
  106MOL   H10327613   4.761   0.291   1.285 -0.0505 -0.2442 -1.2120
  106MOL   H10427614   4.928   0.536   1.540  0.6468  0.4864 -0.0044
  106MOL   H10527615   4.958   0.571   1.373  0.0737  0.0833  1.5314
  106MOL   C10627616   5.011   0.378   1.419 -0.7599 -0.0072  0.2083
  106MOL   C10727617   5.158   0.422   1.424  1.1186  0.5551 -0.2017
  106MOL   C10827618   5.263   0.380   1.354 -0.8996 -0.2437  1.2422
  106MOL   C10927619   5.254   0.267   1.252  0.6411 -0.9886  0.0264
  106MOL   C11027620   5.405   0.415   1.400 -1.5648 -0.6080  1.1236
  106MOL   H11127621   4.992   0.333   1.321  2.0009  0.1640 -0.4311
  106MOL   H11227622   4.993   0.306   1.499 -0.8462  0.0222  0.2158
  106MOL   H11327623   5.192   0.488   1.502 -0.3574  2.8527 -1.4732
  106MOL   H11427624   5.309   0.289   1.161  1.8759 -0.6544  0.8469
  106MOL   H11527625   5.288   0.169   1.284  1.9556 -0.7702 -0.6685
  106MOL   H11627626   5.152   0.233   1.236 -0.1240  0.9769  0.5248
  106MOL   H11727627   5.417   0.523   1.393 -1.2632 -0.6774  0.5147
  106MOL   H11827628   5.475   0.368   1.331  0.4544  2.0330  1.2606
  106MOL   C11927629   5.446   0.360   1.537 -0.1746 -0.4783 -0.0001
  106MOL   C12027630   5.551   0.460   1.605  0.3626 -0.3731  0.5517
  106MOL   C12127631   5.664   0.423   1.674  0.0831  0.6164 -0.2115
  106MOL   C12227632   5.760   0.528   1.728 -0.1844  0.4121 -0.1951
  106MOL   C12327633   5.713   0.279   1.697 -0.2776  0.4266  0.3891
  106MOL   H12427634   5.481   0.258   1.517  0.2448 -0.1939 -0.7107
  106MOL   H12527635   5.360   0.354   1.603 -0.0825 -2.2567 -0.0156
  106MOL   H12627636   5.539   0.566   1.595 -2.2040 -0.5877  1.0153
  106MOL   H12727637   5.846   0.543   1.662  0.5120 -2.2814  0.0802
  106MOL   H12827638   5.814   0.506   1.820  0.4297  1.9361 -0.1632
  106MOL   H12927639   5.711   0.624   1.750 -1.3021 -0.7133  2.4000
  106MOL   H13027640   5.632   0.205   1.695  0.6329 -0.6236  1.3387
  106MOL   H13127641   5.748   0.279   1.800 -2.8385  0.9193  1.3113
  106MOL   C13227642   5.843   0.240   1.620  0.9090 -0.7224 -0.8271
  106MOL   C13327643   5.866   0.092   1.624 -0.4942 -0.4707  0.0174
  106MOL   C13427644   5.805   0.008   1.541 -0.5428 -1.0507  0.4528
  106MOL   C13527645   5.833   7.737   1.542  0.8626 -0.2369 -0.0479
  106MOL   C13627646   5.701   0.058   1.432  0.4526 -0.4528 -0.0750
  106MOL   H13727647   5.930   0.286   1.665  0.3702 -0.5371  0.0427
  106MOL   H13827648   5.843   0.282   1.519  0.0126  0.9616 -0.1535
  106MOL   H13927649   5.916   0.055   1.712 -0.5328 -1.1258 -0.2323
  106MOL   H14027650   5.737   7.687   1.544  0.5635  0.3491  0.3199
  106MOL   H14127651   5.880   7.706   1.635 -2.1154  0.3820  1.7157
  106MOL   H14227652   5.886   7.702   1.453 -0.3220  2.5898 -1.9596
  106MOL   H14327653   5.661   0.159   1.446  0.1919 -0.5663 -0.0034
  106MOL   H14427654   5.618   7.867   1.438 -0.2944  0.4306  0.1298
  106MOL   C14527655   5.742   0.045   1.290 -1.1862  0.1668  0.0358
  106MOL   C14627656   5.625   0.073   1.191 -0.6066 -0.1247  0.1514
  106MOL   C14727657   5.572   7.864   1.102 -0.4878 -0.6489  0.5521
  106MOL   C14827658   5.456   0.029   1.017  0.2860 -0.2254 -0.1145
  106MOL   C14927659   5.621   7.718   1.073 -0.6027 -0.3073  0.2643
  106MOL   H15027660   5.785   7.824   1.280  0.2259  0.6811  1.0330
  106MOL   H15127661   5.816   0.123   1.275 -1.7812  0.5178 -1.1761
  106MOL   H15227662   5.582   0.171   1.201 -1.5703 -0.6757  1.4996
  106MOL   H15327663   5.431   0.129   1.054  0.7204  0.1319 -0.7512
  106MOL   H15427664   5.368   7.845   1.018  1.5108 -1.9864 -0.9530
  106MOL   H15527665   5.489   0.027   0.913 -1.2701 -1.4266 -0.5999
  106MOL   H15627666   5.724   7.697   1.103 -0.2592 -1.9426 -1.9418
  106MOL   H15727667   5.620   7.705   0.965 -2.3659 -1.1983  0.3679
  106MOL   C15827668   5.526   7.614   1.129 -0.0265 -0.4975 -0.1014
  106MOL   C15927669   5.570   7.471   1.101 -0.6036  0.4501  1.0576
  106MOL   C16027670   5.660   7.406   1.171  0.0938 -0.3230 -0.5071
  106MOL   C16127671   5.714   7.446   1.312 -0.1753 -0.9197  0.8878
  106MOL   C16227672   5.724   7.274   1.115 -0.3604  1.0431 -0.7175
  106MOL   H16327673   5.428   7.617   1.082 -1.9099  0.9666  3.7091
  106MOL   H16427674   5.517   7.618   1.237  1.3255 -0.8777  0.0375
  106MOL   H16527675   5.558   7.433   1.001 -0.4369  1.8671  0.4816
  106MOL   H16627676   5.683   7.369   1.383 -1.8940 -0.6089  0.4892
  106MOL   H16727677   5.663   7.535   1.349 -2.2551 -0.4372 -2.8904
  106MOL   H16827678   5.819   7.475   1.308 -0.6812  1.3433  2.8320
  106MOL   H16927679   5.665   7.230   1.036 -0.8675  1.9128 -0.8307
  106MOL   H17027680   5.731   7.197   1.192  0.2152  0.0008 -1.8120
  106MOL   C17127681   5.863   7.298   1.054  0.3272 -0.3222  0.4438
  106MOL   C17227682   5.849   7.371   0.923  0.6507  0.4593 -0.4825
  106MOL   C17327683   5.896   7.497   0.891  0.1134  0.2139 -0.5689
  106MOL   C17427684   5.982   7.584   0.987 -0.7101 -0.6095  0.7611
  106MOL   C17527685   5.890   7.547   0.750  0.4464 -0.2745  0.3627
  106MOL   H17627686   5.897   7.198   1.027 -0.5521 -0.7836  1.0397
  106MOL   H17727687   5.925   7.354   1.124 -0.4145  1.0000  0.0578
  106MOL   H17827688   5.793   7.317   0.848  0.9167  0.6705 -0.8333
  106MOL   H17927689   5.941   7.593   1.088  0.1680  0.9645  0.9935
  106MOL   H18027690   6.005   7.686   0.955  0.3837 -0.2951  2.4766
  106MOL   H18127691   6.080   7.537   0.999  0.7280  2.1619  0.3825
  106MOL   H18227692   5.853   7.649   0.743 -1.0746 -0.8982 -0.8830
  106MOL   H18327693   5.803   7.498   0.706  0.0547  1.5063 -0.9190
  106MOL   C18427694   6.020   7.541   0.684 -0.8220  0.3783 -0.2453
  106MOL   C18527695   6.020   7.548   0.537  0.5939  0.2346  0.4518
  106MOL   C18627696   6.093   7.622   0.449 -0.2076  0.1857  0.5365
  106MOL   C18727697   6.071   7.604   0.300  0.0618 -0.4080  0.3204
  106MOL   C18827698   6.199   7.734   0.480 -0.8125 -0.8408 -0.0633
  106MOL   H18927699   6.076   7.451   0.712 -2.4498 -0.3767  0.6294
  106MOL   H19027700   6.087   7.624   0.704  0.6807 -0.7991 -0.2497
  106MOL   H19127701   5.954   7.478   0.488 -0.7792  1.1502  0.9416
  106MOL   H19227702   6.033   7.695   0.253  1.0301  0.3094  0.8988
  106MOL   H19327703   5.995   7.528   0.285 -0.0986 -0.1464 -0.2096
  106MOL   H19427704   6.165   7.572   0.254 -1.4003 -2.0671 -1.6042
  106MOL   H19527705   6.192   7.768   0.584 -1.3621 -2.4401  0.4366
  106MOL   H19627706   6.175   7.820   0.418 -0.3655 -0.0005  0.9104
  106MOL   C19727707   6.341   7.694   0.455  0.3012 -0.6519  0.2232
  106MOL   C19827708   6.436   7.818   0.453  0.6844  0.4192 -0.2134
  106MOL   C19927709   6.497   7.869   0.345 -0.0914 -0.5329  0.0399
  106MOL   C20027710   6.586   0.106   0.363 -0.5563  0.1991 -0.3410
  106MOL   C20127711   6.480   7.824   0.203 -0.2365  0.3815  0.0053
  106MOL   H20227712   6.353   7.641   0.360 -2.2031  1.1738 -1.1374
  106MOL   H20327713   6.376   7.621   0.529  1.3868  0.4134  0.7782
  106MOL   H20427714   6.454   7.875   0.543  1.2628 -0.3419  0.1623
  106MOL   H20527715   6.687   0.064   0.357 -1.1173 -1.2321  0.0067
  106MOL   H20627716   6.582   0.158   0.458 -0.3812 -0.1042 -0.1649
  106MOL   H20727717   6.576   0.182   0.286 -1.6333  0.2421 -0.1598
  106MOL   H20827718   6.465   0.033   0.140  1.8230 -0.0856 -1.1690
  106MOL   H20927719   6.399   7.752   0.191  2.7448 -3.3797  1.5369
  106MOL   C21027720   6.593   7.734   0.160  0.1160 -0.0452 -0.1555
  106MOL   C21127721   6.554   7.658   0.035  0.0976  0.8351  0.9380
  106MOL   C21227722   6.558   7.525   0.018 -0.4372  0.1171 -0.0065
  106MOL   C21327723   6.514   7.471   7.766  0.3321  0.7217  0.5600
  106MOL   C21427724   6.610   7.429   0.125 -0.0050  0.3496 -0.1503
  106MOL   H21527725   6.624   7.676   0.247 -1.6382  2.0618  1.9760
  106MOL   H21627726   6.681   7.792   0.133 -1.1369  2.4424  0.9178
  106MOL   H21727727   6.503   7.713   7.836 -1.8195 -2.8397 -0.4853
  106MOL   H21827728   6.573   7.391   7.721 -2.2060 -1.7145  1.4429
  106MOL   H21927729   6.512   7.552   7.692  2.5381  0.5716  0.3114
  106MOL   H22027730   6.412   7.431   7.770 -0.1562  2.0923  2.3238
  106MOL   H22127731   6.673   7.471   0.203  0.4292 -1.8728  0.7178
  106MOL   H22227732   6.682   7.367   0.072 -1.5971 -0.6834 -1.1631
  106MOL   C22327733   6.502   7.348   0.191 -0.0961  0.0666  0.0618
  106MOL   C22427734   6.564   7.228   0.264 -0.5382  0.2720  0.4628
  106MOL   C22527735   6.598   7.217   0.397 -0.1736  0.1719 -0.2133
  106MOL   C22627736   6.644   7.077   0.452 -0.1243 -0.5978  0.0361
  106MOL   C22727737   6.560   7.321   0.504  0.1131  0.3357  0.6836
  106MOL   H22827738   6.428   7.320   0.116 -0.2522 -0.5146  0.4365
  106MOL   H22927739   6.452   7.417   0.259  0.5663  0.5367  0.0738
  106MOL   H23027740   6.593   7.146   0.200 -0.8376 -1.2888  2.3030
  106MOL   H23127741   6.566   7.027   0.510 -0.5172 -0.8013 -0.6610
  106MOL   H23227742   6.733   7.097   0.511 -1.2639 -0.0089  1.5829
  106MOL   H23327743   6.675   7.015   0.367 -0.6844 -0.3262 -0.3732
  106MOL   H23427744   6.490   7.264   0.565  1.0416  0.3154  1.7624
  106MOL   H23527745   6.492   7.392   0.458  0.0332  0.3314  0.7970
  106MOL   C23627746   6.671   7.404   0.565  0.0880  0.3347  0.5224
  106MOL   C23727747   6.767   7.485   0.475  0.3415  0.1101 -0.2819
  106MOL   C23827748   6.789   7.618   0.478 -0.3693 -0.2646  0.6106
  106MOL   C23927749   6.891   7.681   0.382 -0.2697 -0.8104  0.0126
  106MOL   C24027750   6.719   7.711   0.577 -1.1018 -0.3118  0.0903
  106MOL   H24127751   6.742   7.343   0.622 -1.5020 -0.0444  2.1688
  106MOL   H24227752   6.609   7.451   0.642 -2.2207 -0.8398 -0.5474
  106MOL   H24327753   6.819   7.428   0.399 -2.0065  0.9275 -2.5698
  106MOL   H24427754   6.846   7.777   0.356  0.8733 -0.0192  0.8751
  106MOL   H24527755   6.912   7.621   0.293  1.2037 -0.1409 -0.1202
  106MOL   H24627756   6.987   7.697   0.432  0.3425 -1.5754 -0.9035
  106MOL   H24727757   6.615   7.677   0.583 -1.0265 -1.3140 -3.3225
  106MOL   H24827758   6.705   7.805   0.523 -1.8523  0.3079  1.3365
  106MOL   C24927759   6.795   7.741   0.708 -0.8286  0.3878  0.5903
  106MOL   C25027760   6.821   7.619   0.790  0.6267 -0.8116 -0.2607
  106MOL   C25127761   6.943   7.577   0.830 -0.0706  0.2495 -0.0294
  106MOL   C25227762   6.977   7.456   0.912 -0.6884  0.0161 -0.0406
  106MOL   C25327763   7.068   7.653   0.789 -0.2607  0.3317  0.0684
  106MOL   H25427764   6.739   7.803   0.779 -0.6967 -0.8482  1.7859
  106MOL   H25527765   6.886   7.799   0.694 -0.3980  0.0725  1.9813
  106MOL   H25627766   6.742   7.555   0.828  1.8195 -1.3075  1.4278
  106MOL   H25727767   7.020   7.483   1.009 -1.4524 -3.6320  1.3842
  106MOL   H25827768   7.046   7.385   0.868 -0.0990 -0.8507  2.2199
  106MOL   H25927769   6.883   7.414   0.949 -0.4770  0.9097  1.5575
  106MOL   H26027770   7.099   7.603   0.697  1.3657  1.6257 -0.1154
  106MOL   H26127771   7.144   7.641   0.867 -0.1662  0.5110  0.0035
  106MOL   H26227772   7.064   7.760   0.772 -2.6205  0.2280 -0.1126
  107MOL     C127773   0.604   5.775   1.372 -0.3032  0.0300 -0.4714
  107MOL     C227774   0.576   5.822   1.233 -0.0993 -0.4886 -0.6160
  107MOL     C327775   0.465   5.900   1.211  0.4297  0.4253  0.1461
  107MOL     C427776   0.414   5.926   1.073  0.5775  0.0190  0.1476
  107MOL     C527777   0.362   5.932   1.316  0.1723 -0.3032 -1.3230
  107MOL     H627778   0.702   5.729   1.382  0.1738  1.0560 -0.2980
  107MOL     H727779   0.606   5.854   1.447 -1.8527  0.3442 -0.7439
  107MOL     H827780   0.640   5.794   1.150  0.6227  1.1221 -0.6283
  107MOL     H927781   0.387   6.030   1.052  2.0461  0.7129  1.6142
  107MOL    H1027782   0.324   5.866   1.055  0.1723  1.2249 -1.9561
  107MOL    H1127783   0.487   5.897   0.999 -2.4682 -1.6472 -2.3124
  107MOL    H1227784   0.372   5.876   1.409  2.9590  3.0128  0.5044
  107MOL    H1327785   0.261   5.909   1.285  0.2656 -0.9677 -1.1341
  107MOL    H1427786   0.523   5.712   1.408 -0.1450  0.3267  0.4286
  107MOL    C1527787   0.383   6.079   1.355  0.1563  0.2642 -0.4517
  107MOL    C1627788   0.263   6.119   1.438  0.6644 -0.4503 -0.2076
  107MOL    C1727789   0.198   6.236   1.421  0.0518  0.5449  0.5751
  107MOL    C1827790   0.085   6.273   1.510 -0.2958 -0.3735  0.1810
  107MOL    C1927791   0.254   6.341   1.326  0.0956  0.1118  0.4234
  107MOL    H2027792   0.403   6.136   1.264 -0.7643  1.9201  0.3570
  107MOL    H2127793   0.474   6.087   1.414  1.6840  0.4087 -2.7514
  107MOL    H2227794   0.227   6.047   1.510 -4.1967  0.4579 -1.5192
  107MOL    H2327795   7.866   6.267   1.462 -0.4673 -0.1224  0.4942
  107MOL    H2427796   0.090   6.376   1.545 -1.5808  0.9593 -3.2907
  107MOL    H2527797   0.086   6.209   1.598 -0.2109 -0.9508 -0.2371
  107MOL    H2627798   0.362   6.356   1.325 -0.0188  1.1411  2.1149
  107MOL    H2727799   0.219   6.433   1.374  1.2689  1.7851 -1.8014
  107MOL    C2827800   0.196   6.340   1.184  0.6215  0.3474  0.3840
  107MOL    C2927801   0.282   6.421   1.099  0.7251 -0.4728  0.1513
  107MOL    C3027802   0.258   6.536   1.037 -0.2446  1.0165  0.1137
  107MOL    C3127803   0.374   6.608   0.976  0.4291 -0.2797 -0.3766
  107MOL    C3227804   0.122   6.611   1.019 -0.2753  0.5367  0.1428
  107MOL    H3327805   0.093   6.375   1.190  0.7736  0.8462  0.0452
  107MOL    H3427806   0.207   6.239   1.145  0.2761  1.7194 -3.4053
  107MOL    H3527807   0.382   6.381   1.100  0.2924 -1.5806  1.6982
  107MOL    H3627808   0.463   6.547   0.994  0.5332 -0.3027 -0.9765
  107MOL    H3727809   0.391   6.702   1.029  0.1640  0.6979 -1.9771
  107MOL    H3827810   0.366   6.611   0.868 -0.7696  0.2268 -0.2791
  107MOL    H3927811   0.055   6.533   1.056 -1.1859  1.0277 -0.4561
  107MOL    H4027812   0.094   6.613   0.914  2.4956  2.4574 -0.5902
  107MOL    C4127813   0.117   6.742   1.086 -0.5546  0.8147 -0.2886
  107MOL    C4227814   0.118   6.728   1.236 -0.2551  0.0867 -0.1740
  107MOL    C4327815   0.008   6.711   1.318 -0.4947 -0.1906  0.0479
  107MOL    C4427816   0.038   6.712   1.462  0.5767  1.1827 -0.4280
  107MOL    C4527817   7.740   6.687   1.274  1.2197  0.2729  0.3909
  107MOL    H4627818   0.021   6.788   1.066 -0.7787  0.8429  0.7982
  107MOL    H4727819   0.192   6.814   1.053 -0.5178  0.4374 -1.0251
  107MOL    H4827820   0.219   6.728   1.272 -0.3170 -0.7060  0.0136
  107MOL    H4927821   0.008   6.620   1.512 -1.3763  1.3850 -1.2082
  107MOL    H5027822   7.856   6.795   1.497 -0.7461  0.3846 -0.7957
  107MOL    H5127823   0.143   6.727   1.490  0.6487 -1.6898  0.9984
  107MOL    H5227824   7.726   6.708   1.168  2.1355 -0.1654  0.1769
  107MOL    H5327825   7.676   6.763   1.319 -0.0152  0.0888 -1.0545
  107MOL    C5427826   7.695   6.546   1.315 -0.2854  1.1459  0.0549
  107MOL    C5527827   7.556   6.509   1.264 -0.3116  0.5482 -0.3015
  107MOL    C5627828   7.509   6.395   1.204  0.6158 -0.4062  0.2111
  107MOL    C5727829   7.363   6.381   1.172 -0.4580  0.3125 -0.6979
  107MOL    C5827830   7.601   6.283   1.166  0.2635  0.0695 -0.0348
  107MOL    H5927831   7.700   6.540   1.424  1.1269 -0.4899 -0.0855
  107MOL    H6027832   7.764   6.477   1.268 -0.0347  1.9822 -0.8090
  107MOL    H6127833   7.479   6.578   1.295  0.0418  0.4998  0.6889
  107MOL    H6227834   7.352   6.364   1.065  0.4185 -0.3044 -0.6972
  107MOL    H6327835   7.308   6.471   1.198 -2.3462 -0.2342 -2.6168
  107MOL    H6427836   7.317   6.293   1.218 -1.2365  1.9979  1.8680
  107MOL    H6527837   7.708   6.303   1.178  0.1589  0.8461 -0.3489
  107MOL    H6627838   7.586   6.285   1.058  1.9347 -1.8080 -0.3465
  107MOL    C6727839   7.561   6.149   1.224  0.4578 -0.4224 -0.3228
  107MOL    C6827840   7.653   6.043   1.179  0.0580 -0.6360  0.0126
  107MOL    C6927841   7.755   5.988   1.250  0.4662 -0.7239 -0.6518
  107MOL    C7027842   7.839   5.885   1.179  0.4769  0.4163  0.4522
  107MOL    C7127843   7.789   6.017   1.398  0.4691 -0.3426  0.4850
  107MOL    H7227844   7.457   6.129   1.198 -1.5925  1.6836  5.3592
  107MOL    H7327845   7.558   6.159   1.333 -1.0294  3.0200 -0.6089
  107MOL    H7427846   7.628   6.014   1.078 -0.8579  0.2426 -0.0307
  107MOL    H7527847   7.790   5.788   1.189 -2.9831  1.9816 -0.2453
  107MOL    H7627848   0.058   5.895   1.225  1.1733  0.1528 -0.9261
  107MOL    H7727849   7.850   5.910   1.073  0.6633  0.5136  0.4960
  107MOL    H7827850   7.757   6.117   1.428 -1.4958 -0.2193 -1.8485
  107MOL    H7927851   0.019   6.023   1.398  0.3927  2.2062 -1.6355
  107MOL    C8027852   7.761   5.901   1.489  0.1442 -0.3021 -0.1561
  107MOL    C8127853   7.616   5.903   1.521  0.1074  0.1344  0.1678
  107MOL    C8227854   7.565   5.868   1.641  0.2138 -0.5400 -0.3220
  107MOL    C8327855   7.647   5.809   1.756  0.1594  0.2744  0.7676
  107MOL    C8427856   7.417   5.896   1.674  0.0661 -0.0732  0.1135
  107MOL    H8527857   7.816   5.905   1.583  0.9157 -2.2530 -0.5006
  107MOL    H8627858   7.795   5.812   1.436  0.5920 -0.6262  0.6603
  107MOL    H8727859   7.556   5.949   1.444  0.6500 -0.8105 -0.8319
  107MOL    H8827860   7.694   5.881   1.823 -0.4931  0.4780  1.0088
  107MOL    H8927861   7.725   5.748   1.710 -0.5005  0.6050 -0.8292
  107MOL    H9027862   7.592   5.742   1.822  0.8394 -1.1359 -0.0725
  107MOL    H9127863   7.368   5.946   1.590  0.3937  0.5803  0.3092
  107MOL    H9227864   7.399   5.961   1.760  0.5876 -0.4596  0.5118
  107MOL    C9327865   7.341   5.759   1.690  0.4512 -0.2688 -0.6104
  107MOL    C9427866   7.192   5.765   1.692  0.6954  0.1303 -0.8098
  107MOL    C9527867   7.113   5.753   1.803  0.0352  0.8954  0.1163
  107MOL    C9627868   6.970   5.777   1.791  0.0682 -0.1990  0.3129
  107MOL    C9727869   7.164   5.728   1.948 -1.3932  0.1376 -0.2753
  107MOL    H9827870   7.376   5.705   1.778  3.1457 -0.2766 -1.6545
  107MOL    H9927871   7.384   5.704   1.606  3.2420  0.0341  0.5473
  107MOL   H10027872   7.150   5.790   1.596 -1.4135  1.2249  0.3698
  107MOL   H10127873   6.924   5.681   1.814  0.3143  0.5270  4.1030
  107MOL   H10227874   6.933   5.850   1.863  0.9336 -0.7444  1.3331
  107MOL   H10327875   6.931   5.804   1.693 -0.4528 -4.0080 -0.6064
  107MOL   H10427876   7.227   5.639   1.950 -0.3573  0.8671 -0.5590
  107MOL   H10527877   7.080   5.705   2.014 -0.3123 -0.1314  1.0178
  107MOL   C10627878   7.237   5.846   2.012 -0.4883 -0.1251  0.5703
  107MOL   C10727879   7.234   5.825   2.167  0.3341 -0.0135 -0.4548
  107MOL   C10827880   7.178   5.907   2.257 -0.2507  0.2683  0.9981
  107MOL   C10927881   7.114   6.041   2.229  0.7360  0.3009 -0.6580
  107MOL   C11027882   7.190   5.878   2.409 -0.8425 -0.2784  0.7647
  107MOL   H11127883   7.208   5.945   1.974  0.7274 -0.8631 -2.4013
  107MOL   H11227884   7.342   5.849   1.983 -0.7493 -1.8162 -0.6239
  107MOL   H11327885   7.267   5.731   2.209 -1.3236  0.0343  1.0180
  107MOL   H11427886   7.052   6.014   2.143  1.3650  1.1078 -1.3783
  107MOL   H11527887   7.060   6.086   2.311 -0.1221  0.0474 -1.0835
  107MOL   H11627888   7.190   6.113   2.197  1.1083 -0.7205 -2.1807
  107MOL   H11727889   7.197   5.770   2.417  2.4643 -0.1371  0.3237
  107MOL   H11827890   7.098   5.918   2.452  0.5709  2.6041  1.2240
  107MOL   C11927891   7.312   5.939   2.469  0.5767 -0.4491 -0.6618
  107MOL   C12027892   7.320   5.916   2.617  0.4802 -0.0435 -0.4411
  107MOL   C12127893   7.420   5.866   2.689 -0.5346  0.0543 -0.4141
  107MOL   C12227894   7.417   5.862   2.841  0.1189  0.0565  0.4874
  107MOL   C12327895   7.555   5.805   2.627  0.1815  0.4606 -0.5039
  107MOL   H12427896   7.301   6.047   2.464 -0.3953 -0.6039 -2.1443
  107MOL   H12527897   7.408   5.935   2.418  0.6723  0.4643 -0.5581
  107MOL   H12627898   7.230   5.947   2.669 -0.0197 -1.2797 -0.5735
  107MOL   H12727899   7.377   5.767   2.877  0.7941 -0.0817  0.8637
  107MOL   H12827900   7.368   5.944   2.893 -0.2239 -0.3917  0.8785
  107MOL   H12927901   7.518   5.875   2.878  0.2291  1.5597 -0.3065
  107MOL   H13027902   7.540   5.764   2.526 -0.1710  0.2208 -0.3551
  107MOL   H13127903   7.578   5.716   2.685 -0.3533 -0.0061 -0.9939
  107MOL   C13227904   7.676   5.902   2.635  0.5015 -0.8247 -0.4117
  107MOL   C13327905   7.806   5.830   2.625 -0.1404  0.1388 -0.6093
  107MOL   C13427906   0.040   5.863   2.696  0.3849 -0.4639  0.7958
  107MOL   C13527907   0.174   5.794   2.675 -0.0125 -0.2743  0.2717
  107MOL   C13627908   0.044   5.976   2.799  0.0355 -0.4717  0.0910
  107MOL   H13727909   7.669   5.958   2.728  2.4984  0.2117 -0.8431
  107MOL   H13827910   7.673   5.966   2.547  0.6377 -3.3869 -2.3401
  107MOL   H13927911   7.809   5.751   2.552 -0.1460 -0.1274 -0.3184
  107MOL   H14027912   0.201   5.747   2.769 -0.2028  0.7906  0.8693
  107MOL   H14127913   0.248   5.865   2.637  1.3904 -0.9325  1.7288
  107MOL   H14227914   0.176   5.717   2.598 -2.8475 -0.6731  0.5755
  107MOL   H14327915   7.843   6.049   2.786 -0.1237 -0.6621  0.0079
  107MOL   H14427916   0.136   6.034   2.792  0.2048 -0.7389  0.0956
  107MOL   C14527917   0.036   5.928   2.944 -0.5999  0.9222 -0.4210
  107MOL   C14627918   0.179   5.899   3.007 -0.3539 -0.1695  0.2880
  107MOL   C14727919   0.197   5.893   3.138  0.4079 -1.1517  0.5651
  107MOL   C14827920   0.331   5.858   3.205 -0.9176  0.7706 -0.1151
  107MOL   C14927921   0.088   5.914   3.242 -0.4698  0.5185 -0.3027
  107MOL   H15027922   7.865   5.833   2.958  2.2053 -0.8556 -2.0383
  107MOL   H15127923   7.875   6.003   3.013 -0.0668 -0.1376  1.0640
  107MOL   H15227924   0.258   5.884   2.935  2.6703  0.5533  3.3425
  107MOL   H15327925   0.326   5.810   3.303 -1.1980 -1.7326 -1.3126
  107MOL   H15427926   0.384   5.948   3.238 -2.9673  1.3586  1.6992
  107MOL   H15527927   0.404   5.811   3.138  0.2098  3.2299 -0.6609
  107MOL   H15627928   0.108   5.842   3.321  0.6435  0.8520 -0.2719
  107MOL   H15727929   7.872   5.889   3.196  0.2961 -0.4565 -1.3991
  107MOL   C15827930   0.090   6.055   3.312  0.4751 -0.0006  0.7057
  107MOL   C15927931   0.054   6.174   3.230  0.0647 -0.2206 -0.2893
  107MOL   C16027932   7.814   6.234   3.200 -0.3727  0.3981 -0.1488
  107MOL   C16127933   7.684   6.169   3.251 -0.0880 -0.2488  0.7090
  107MOL   C16227934   7.793   6.347   3.103  0.0831  0.2282  0.3136
  107MOL   H16327935   0.182   6.078   3.367 -0.2191  0.2749  1.7731
  107MOL   H16427936   0.018   6.056   3.394  1.1458 -1.6329  1.3399
  107MOL   H16527937   0.148   6.214   3.197 -0.3855  0.0296 -1.2840
  107MOL   H16627938   7.647   6.220   3.340 -0.1567 -3.4248  2.6051
  107MOL   H16727939   7.689   6.069   3.296  2.1245 -0.3234  0.3243
  107MOL   H16827940   7.615   6.162   3.167 -0.4433  0.2351  0.9612
  107MOL   H16927941   7.731   6.320   3.017 -1.5825  0.7603  1.3144
  107MOL   H17027942   0.013   6.374   3.066  0.4357 -0.2887  0.8752
  107MOL   C17127943   7.725   6.475   3.161  0.4005 -0.1706 -0.4393
  107MOL   C17227944   7.714   6.589   3.068 -0.1896  0.8479 -0.1646
  107MOL   C17327945   7.596   6.653   3.034  0.6938 -0.1013  0.2810
  107MOL   C17427946   7.457   6.604   3.078 -0.0723 -0.1198 -0.2590
  107MOL   C17527947   7.598   6.774   2.947  0.1895  0.4943 -0.1950
  107MOL   H17627948   7.786   6.517   3.241  0.5170 -0.4790 -0.3655
  107MOL   H17727949   7.632   6.456   3.214  0.3799  1.1000  0.0171
  107MOL   H17827950   7.813   6.621   3.041  0.4024 -0.3955  0.5250
  107MOL   H17927951   7.449   6.497   3.093  0.3597 -0.1179 -0.0164
  107MOL   H18027952   7.379   6.628   3.006 -0.9042  1.7136  1.1935
  107MOL   H18127953   7.446   6.652   3.176 -1.6792 -1.4813  0.2555
  107MOL   H18227954   7.693   6.827   2.957 -0.0204  0.6263  1.1782
  107MOL   H18327955   7.513   6.830   2.984  0.7299  0.1384  1.6554
  107MOL   C18427956   7.577   6.734   2.799  0.3615  0.0352  0.0729
  107MOL   C18527957   7.564   6.856   2.711 -0.8869  0.1052  0.3349
  107MOL   C18627958   7.644   6.888   2.604  0.5209  0.0930 -0.8138
  107MOL   C18727959   7.608   7.003   2.511 -0.5765  0.4281  0.7258
  107MOL   C18827960   7.755   6.804   2.552  0.2965  0.6879 -0.2549
  107MOL   H18927961   7.482   6.682   2.782  1.7047 -2.6609  0.6124
  107MOL   H19027962   7.654   6.669   2.759  0.0529 -0.7771  0.7943
  107MOL   H19127963   7.477   6.914   2.735 -0.2631  0.3949  1.9295
  107MOL   H19227964   7.550   6.976   2.423 -0.2641  0.2695  0.5671
  107MOL   H19327965   7.692   7.052   2.461 -2.5790  0.2545 -2.9992
  107MOL   H19427966   7.563   7.079   2.574 -0.8674  1.6430 -0.9180
  107MOL   H19527967   7.753   6.823   2.444  0.7957  0.1116 -0.3627
  107MOL   H19627968   7.751   6.696   2.567  2.2701  0.3198 -2.1152
  107MOL   C19727969   0.009   6.859   2.605  0.8235 -0.0289  0.1504
  107MOL   C19827970   0.115   6.770   2.541 -0.3315  1.0023 -0.2556
  107MOL   C19927971   0.227   6.716   2.600  0.0796  0.4921 -0.2314
  107MOL   C20027972   0.322   6.624   2.521  0.1527 -0.0950  0.0884
  107MOL   C20127973   0.264   6.733   2.742 -0.0662 -0.2961 -0.2807
  107MOL   H20227974   0.011   6.839   2.712 -1.7904 -0.5962  0.1473
  107MOL   H20327975   0.028   6.965   2.591  1.1071 -0.3669 -2.1739
  107MOL   H20427976   0.106   6.758   2.434  0.8738 -0.1239 -0.2386
  107MOL   H20527977   0.258   6.595   2.437 -2.4048  0.8177  1.6535
  107MOL   H20627978   0.349   6.527   2.562 -0.9991  0.2831  1.7970
  107MOL   H20727979   0.402   6.688   2.484  1.9337 -0.6276  2.8755
  107MOL   H20827980   0.266   6.839   2.768  2.1402 -0.5026  0.4978
  107MOL   H20927981   0.367   6.696   2.748  0.0217 -0.1814 -1.0333
  107MOL   C21027982   0.180   6.649   2.837 -0.7082 -0.1620 -0.0780
  107MOL   C21127983   0.204   6.696   2.982  0.1542 -0.4917  0.4758
  107MOL   C21227984   0.252   6.628   3.084  0.3730  0.2667 -0.7978
  107MOL   C21327985   0.246   6.680   3.229 -0.0462 -0.0284 -0.2417
  107MOL   C21427986   0.288   6.483   3.080 -1.1601  1.0106 -0.8427
  107MOL   H21527987   0.205   6.544   2.824 -0.8676 -0.2152  0.0431
  107MOL   H21627988   0.073   6.659   2.817 -0.6657 -1.0047 -0.7174
  107MOL   H21727989   0.154   6.790   3.001 -5.4549 -2.4267 -3.3010
  107MOL   H21827990   0.339   6.682   3.286  0.2263  1.8020 -0.7330
  107MOL   H21927991   0.170   6.619   3.278  1.2561 -0.2079  1.6019
  107MOL   H22027992   0.206   6.779   3.250  0.1224  0.2630 -1.2795
  107MOL   H22127993   0.251   6.431   2.991  0.3441 -0.8892 -0.3855
  107MOL   H22227994   0.274   6.420   3.168  0.3454 -0.4132 -1.6012
  107MOL   C22327995   0.444   6.473   3.042 -0.4289 -0.9256  0.0067
  107MOL   C22427996   0.494   6.330   3.024 -0.7769  0.2950  0.1833
  107MOL   C22527997   0.528   6.279   2.905 -0.8534 -0.7077  0.2235
  107MOL   C22627998   0.573   6.130   2.885  0.3205 -0.5411 -0.1801
  107MOL   C22727999   0.534   6.359   2.776  0.0137  0.2337  0.2697
  107MOL   H22828000   0.500   6.513   3.126 -2.7061  3.2002 -0.2967
  107MOL   H22928001   0.470   6.535   2.956 -0.3185  2.1300  2.1823
  107MOL   H23028002   0.493   6.271   3.114  0.7391  0.2512  0.1853
  107MOL   H23128003   0.583   6.075   2.979 -1.9371  2.5150  1.9478
  107MOL   H23228004   0.661   6.127   2.821 -1.0250  0.9853 -2.1612
  107MOL   H23328005   0.497   6.075   2.829  1.6400  0.4469 -3.0154
  107MOL   H23428006   0.445   6.422   2.777 -0.3258 -0.2395 -0.3638
  107MOL   H23528007   0.507   6.291   2.695  1.5725 -1.0118  0.7748
  107MOL   C23628008   0.657   6.439   2.773 -0.5264  0.2836 -0.3903
  107MOL   C23728009   0.667   6.541   2.665 -0.4373 -0.1601  0.3255
  107MOL   C23828010   0.691   6.518   2.534 -0.3348  0.3803  0.1116
  107MOL   C23928011   0.707   6.633   2.434  0.4088  0.5840  0.7986
  107MOL   C24028012   0.705   6.380   2.480  0.8165 -0.2721  0.0684
  107MOL   H24128013   0.740   6.369   2.776  0.9830  1.9389 -2.0564
  107MOL   H24228014   0.676   6.504   2.859  1.1181  2.6049 -2.4110
  107MOL   H24328015   0.658   6.641   2.706  0.3896  0.1904 -0.3558
  107MOL   H24428016   0.641   6.627   2.348 -2.3081 -2.1936  2.9849
  107MOL   H24528017   0.813   6.631   2.410  0.5124  0.9404  1.2046
  107MOL   H24628018   0.692   6.730   2.483  0.5132  1.4079 -0.7869
  107MOL   H24728019   0.631   6.376   2.399 -0.4481  0.4821  1.1682
  107MOL   H24828020   0.670   6.300   2.545  1.2614 -1.6807 -1.3778
  107MOL   C24928021   0.845   6.357   2.421 -0.3669  0.0963  0.3602
  107MOL   C25028022   0.866   6.208   2.394  0.1228 -0.4178  0.4854
  107MOL   C25128023   0.897   6.151   2.269  0.6930 -0.4552  0.6939
  107MOL   C25228024   0.916   6.000   2.262 -0.3557  0.4459  0.1744
  107MOL   C25328025   0.902   6.230   2.135  0.6224 -0.0849  0.3828
  107MOL   H25428026   0.924   6.393   2.486  0.6177 -0.4372 -0.5285
  107MOL   H25528027   0.869   6.417   2.333  0.5549 -0.3756  0.2848
  107MOL   H25628028   0.873   6.143   2.480 -1.1257 -1.5619 -0.2512
  107MOL   H25728029   0.930   5.957   2.361 -2.5003  0.7830  0.6400
  107MOL   H25828030   1.010   5.979   2.211  0.5915  1.1896  1.5832
  107MOL   H25928031   0.837   5.952   2.204  0.2253 -2.1580  1.4741
  107MOL   H26028032   0.832   6.312   2.123 -2.4202 -2.6635 -0.3196
  107MOL   H26128033   0.893   6.169   2.045  2.2156  2.0485 -1.2521
  107MOL   H26228034   1.001   6.274   2.130  0.6112 -0.1876 -0.8457
  108MOL     C128035   4.305   0.456   2.838  0.2443  0.1346  0.1806
  108MOL     C228036   4.340   0.583   2.763 -0.3392  0.5619 -0.1495
  108MOL     C328037   4.281   0.619   2.643  0.1031  0.0492 -0.1528
  108MOL     C428038   4.324   0.744   2.564  0.7184  0.2913 -0.1881
  108MOL     C528039   4.173   0.536   2.584  0.4425  0.1759 -1.1474
  108MOL     H628040   4.247   0.471   2.929 -0.4547 -0.8004 -0.0985
  108MOL     H728041   4.270   0.370   2.780  0.3379  0.5728 -0.5207
  108MOL     H828042   4.416   0.643   2.810  1.1691 -0.3997 -1.3437
  108MOL     H928043   4.361   0.726   2.463 -0.7696  0.5548 -0.8032
  108MOL    H1028044   4.408   0.785   2.619  2.1033  0.4263 -2.3480
  108MOL    H1128045   4.242   0.816   2.558 -0.1728 -0.9207 -4.7552
  108MOL    H1228046   4.091   0.595   2.543 -0.6190 -0.8181 -0.4976
  108MOL    H1328047   4.116   0.488   2.664  1.0425 -0.6012 -1.1829
  108MOL    H1428048   4.395   0.419   2.888  0.9976 -0.0454 -1.2900
  108MOL    C1528049   4.226   0.427   2.494  0.8628 -0.3981  0.1086
  108MOL    C1628050   4.132   0.310   2.454  0.0946 -0.6143  0.0091
  108MOL    C1728051   4.170   0.194   2.396 -0.2956 -0.1196  0.6350
  108MOL    C1828052   4.065   0.086   2.372 -0.1429 -0.3318  0.8971
  108MOL    C1928053   4.312   0.170   2.360 -0.4637 -0.2025 -0.5448
  108MOL    H2028054   4.308   0.383   2.551 -0.1153 -1.2615  0.8555
  108MOL    H2128055   4.265   0.488   2.412 -0.9275 -0.1726 -0.5938
  108MOL    H2228056   4.028   0.333   2.474 -0.0134 -0.2307 -0.9761
  108MOL    H2328057   4.087   0.013   2.295  0.8887  1.0672 -0.1608
  108MOL    H2428058   3.966   0.124   2.346  1.3389  2.6679 -0.5912
  108MOL    H2528059   4.066   0.020   2.459  2.4365 -2.3091 -0.5691
  108MOL    H2628060   4.337   0.069   2.392  0.2983  0.2557  0.3440
  108MOL    H2728061   4.378   0.237   2.415 -2.2841  1.8701 -0.8042
  108MOL    C2828062   4.335   0.205   2.212 -0.0378 -0.2709 -0.6883
  108MOL    C2928063   4.482   0.199   2.179  0.9146  0.0478 -1.1148
  108MOL    C3028064   4.547   0.106   2.103 -0.1697  0.0343  0.0603
  108MOL    C3128065   4.697   0.109   2.083  0.1847 -0.3880 -0.0143
  108MOL    C3228066   4.477   7.875   2.024 -1.1294  0.2405  0.3464
  108MOL    H3328067   4.310   0.311   2.198 -0.0927 -0.1248  0.4904
  108MOL    H3428068   4.270   0.148   2.145 -0.5204 -2.5421  1.6615
  108MOL    H3528069   4.543   0.277   2.223 -0.8546  1.1578 -0.5659
  108MOL    H3628070   4.709   0.149   1.982 -2.3512  1.4489  0.3578
  108MOL    H3728071   4.751   0.015   2.082  0.1887 -0.3740 -1.4044
  108MOL    H3828072   4.756   0.173   2.149 -2.8255 -0.0294  2.4232
  108MOL    H3928073   4.377   7.873   2.065 -0.8830  2.5822  1.1839
  108MOL    H4028074   4.527   7.780   2.041  1.2932  1.0267 -1.9662
  108MOL    C4128075   4.482   0.043   1.874 -0.3231  0.1486 -0.0870
  108MOL    C4228076   4.394   7.829   1.792  0.0132 -0.4382  0.2225
  108MOL    C4328077   4.397   7.780   1.663  0.1318 -0.3718 -0.0931
  108MOL    C4428078   4.285   7.687   1.617 -0.2793 -0.4090 -0.3603
  108MOL    C4528079   4.505   7.813   1.562  0.5057  0.0769  0.2858
  108MOL    H4628080   4.577   0.021   1.827 -0.0483  0.0593  0.5010
  108MOL    H4728081   4.479   0.149   1.852 -1.4501  0.3902  1.1507
  108MOL    H4828082   4.300   7.811   1.843  1.2624  0.7557  3.0714
  108MOL    H4928083   4.334   7.616   1.550  0.6410 -1.0749  1.0056
  108MOL    H5028084   4.207   7.741   1.562 -0.3741  0.9233  1.0469
  108MOL    H5128085   4.248   7.621   1.696 -2.7281 -1.0530 -1.9748
  108MOL    H5228086   4.554   0.028   1.587  0.7172  0.5706 -1.8517
  108MOL    H5328087   4.462   7.830   1.463  3.0305  1.5128 -0.6212
  108MOL    C5428088   4.609   7.709   1.554  0.8327  0.4312  0.2618
  108MOL    C5528089   4.716   7.745   1.455 -0.5441  0.4385  0.2164
  108MOL    C5628090   4.819   7.828   1.473 -0.1623  0.0918  0.1065
  108MOL    C5728091   4.900   0.014   1.357  1.2542 -0.2199  0.3971
  108MOL    C5828092   4.848   0.007   1.606  0.3315  0.5419  0.4492
  108MOL    H5928093   4.553   7.621   1.523  2.3277  0.1504 -1.7628
  108MOL    H6028094   4.655   7.689   1.650 -0.5253  1.2311  1.0927
  108MOL    H6128095   4.694   7.733   1.350 -0.7004 -0.1049  0.3131
  108MOL    H6228096   4.877   7.839   1.266 -0.0327 -0.1410  0.6659
  108MOL    H6328097   5.005   7.873   1.379  1.4621  0.1231 -0.2628
  108MOL    H6428098   4.893   0.123   1.350 -1.2327 -0.3957 -0.2971
  108MOL    H6528099   4.769   7.865   1.678  0.9443 -0.4174  0.8539
  108MOL    H6628100   4.846   0.115   1.596 -2.3655  0.3460 -1.4455
  108MOL    C6728101   4.990   7.846   1.658  0.4042 -0.0159  1.5027
  108MOL    C6828102   5.005   7.871   1.809 -0.4168  0.4863 -0.3627
  108MOL    C6928103   5.089   0.066   1.882 -0.3348  0.2129 -0.0687
  108MOL    C7028104   5.062   0.078   2.031 -0.4930 -0.0308  0.1588
  108MOL    C7128105   5.212   0.138   1.827 -0.0985  0.3032  0.0725
  108MOL    H7228106   5.071   0.026   1.615 -1.1995  1.4767  0.4680
  108MOL    H7328107   4.999   7.741   1.628 -0.1443  0.3452  0.0227
  108MOL    H7428108   4.927   7.824   1.868 -0.7245  1.9766  0.4429
  108MOL    H7528109   5.041   0.176   2.073  0.0534 -0.7637  2.2108
  108MOL    H7628110   5.133   0.029   2.098  0.6216  0.5502 -0.5901
  108MOL    H7728111   4.970   0.025   2.055 -0.7510  0.1373 -0.4674
  108MOL    H7828112   5.186   0.240   1.854 -4.2977 -0.1621 -1.8993
  108MOL    H7928113   5.219   0.136   1.719  2.5707 -0.0569  0.2264
  108MOL    C8028114   5.346   0.105   1.895  0.0906 -0.0084  0.0237
  108MOL    C8128115   5.421   7.873   1.833 -0.1778  0.0153  0.0781
  108MOL    C8228116   5.515   7.796   1.891 -0.6585 -0.2920 -0.2303
  108MOL    C8328117   5.544   7.803   2.045 -0.4448 -0.2000 -0.0721
  108MOL    C8428118   5.589   7.693   1.808  0.7577  0.0845 -0.5893
  108MOL    H8528119   5.332   0.093   2.002  1.0710  0.9036  0.2670
  108MOL    H8628120   5.413   0.191   1.897  2.2077 -1.5963 -0.7647
  108MOL    H8728121   5.386   7.866   1.731 -0.3785  1.7242  0.0230
  108MOL    H8828122   5.503   0.012   2.094 -1.4966  0.2325 -1.6850
  108MOL    H8928123   5.651   7.809   2.063 -0.8466  1.6039  1.8380
  108MOL    H9028124   5.502   7.715   2.094 -0.2665  0.0845  0.5865
  108MOL    H9128125   5.696   7.698   1.831  0.6753 -2.3567  0.4046
  108MOL    H9228126   5.579   7.706   1.700 -0.2077 -2.1160 -0.7808
  108MOL    C9328127   5.540   7.552   1.835 -0.4985  0.0825 -0.5483
  108MOL    C9428128   5.612   7.443   1.756  0.5174 -0.3781  0.0249
  108MOL    C9528129   5.715   7.369   1.790 -0.1908 -0.0821 -0.0672
  108MOL    C9628130   5.762   7.252   1.703 -0.4243 -0.0023  0.0164
  108MOL    C9728131   5.797   7.387   1.911  0.0304  0.9348  0.4884
  108MOL    H9828132   5.437   7.547   1.800 -1.1721 -0.2543  1.4278
  108MOL    H9928133   5.550   7.526   1.941  0.4159  1.6818 -0.2209
  108MOL   H10028134   5.568   7.423   1.659  0.5298 -1.4435  0.2372
  108MOL   H10128135   5.680   7.209   1.646  0.0645  3.1748 -3.2577
  108MOL   H10228136   5.829   7.284   1.623 -1.1161  1.7906  0.1347
  108MOL   H10328137   5.811   7.171   1.758  0.0237  0.7973  0.7994
  108MOL   H10428138   5.797   7.487   1.954  1.0678  0.6232  1.2408
  108MOL   H10528139   5.899   7.351   1.897 -1.5264 -3.2952 -1.0034
  108MOL   C10628140   5.757   7.285   2.016  0.1257  0.7850  0.1618
  108MOL   C10728141   5.840   7.280   2.135 -0.4571  0.4980  0.2758
  108MOL   C10828142   5.790   7.287   2.265 -0.1104 -0.4679  0.2507
  108MOL   C10928143   5.642   7.312   2.298 -0.2932  0.0694 -1.3534
  108MOL   C11028144   5.881   7.273   2.388  0.5702  0.4124  0.5904
  108MOL   H11128145   5.750   7.183   1.979 -3.3627  1.1220 -0.2885
  108MOL   H11228146   5.658   7.313   2.053 -0.8698  0.7927 -2.3659
  108MOL   H11328147   5.946   7.264   2.120  0.1518  1.7059  2.9504
  108MOL   H11428148   5.633   7.359   2.395 -0.8400 -4.1939  0.7719
  108MOL   H11528149   5.590   7.378   2.228  0.8163  1.0987 -1.2098
  108MOL   H11628150   5.596   7.214   2.289  1.6139 -0.9132 -0.6005
  108MOL   H11728151   5.869   7.177   2.437  3.6982 -1.1920 -1.6292
  108MOL   H11828152   5.861   7.348   2.465 -3.2586 -0.1206  0.2078
  108MOL   C11928153   6.031   7.281   2.346  0.4697  0.0881 -0.9123
  108MOL   C12028154   6.133   7.276   2.457  0.5366  0.5680 -0.0801
  108MOL   C12128155   6.262   7.328   2.453 -0.1754  0.1476  0.4671
  108MOL   C12228156   6.345   7.340   2.573 -0.1293  0.2870 -0.4974
  108MOL   C12328157   6.326   7.385   2.325  0.6933  0.3956 -0.0542
  108MOL   H12428158   6.047   7.375   2.293 -3.8634 -1.3067 -5.0822
  108MOL   H12528159   6.050   7.197   2.279 -0.2624 -0.6754 -0.1788
  108MOL   H12628160   6.097   7.228   2.547  1.5743  0.6817  0.3980
  108MOL   H12728161   6.421   7.263   2.583  0.5858  1.2392  1.8077
  108MOL   H12828162   6.292   7.345   2.668 -0.5682 -0.0707 -0.7202
  108MOL   H12928163   6.406   7.431   2.568  1.0661 -0.5484 -1.3411
  108MOL   H13028164   6.277   7.338   2.239  0.7341 -0.9145  0.6261
  108MOL   H13128165   6.426   7.346   2.341  1.6610  2.2553 -1.4336
  108MOL   C13228166   6.326   7.541   2.302 -0.5910 -0.8102  0.5960
  108MOL   C13328167   6.180   7.589   2.302  0.7907 -0.1219 -0.3988
  108MOL   C13428168   6.133   7.694   2.224  0.2194  0.0379  0.6735
  108MOL   C13528169   5.983   7.726   2.223  0.7657  0.4234 -0.0750
  108MOL   C13628170   6.213   7.775   2.125 -0.0999  0.2134 -0.3108
  108MOL   H13728171   6.377   7.544   2.206 -0.1707  1.2677  0.8613
  108MOL   H13828172   6.371   7.604   2.379 -1.7714  0.6746  0.0861
  108MOL   H13928173   6.119   7.546   2.380  2.4595 -0.6462  0.6437
  108MOL   H14028174   5.941   7.712   2.123 -0.4068 -0.3237  0.4997
  108MOL   H14128175   5.956   7.822   2.266  0.6259  0.0800  0.6055
  108MOL   H14228176   5.936   7.659   2.295  0.4010  0.2163 -0.4946
  108MOL   H14328177   6.149   7.814   2.046  1.9916 -0.6317 -2.4624
  108MOL   H14428178   6.286   7.709   2.079 -0.4852 -2.0309  2.1857
  108MOL   C14528179   6.286   0.008   2.200 -0.4195  0.4096  0.0679
  108MOL   C14628180   6.362   0.100   2.104 -0.4527  0.4634  0.5610
  108MOL   C14728181   6.428   0.212   2.135 -0.3927  0.0675 -0.1638
  108MOL   C14828182   6.483   0.299   2.021 -0.2144 -0.6525  0.0964
  108MOL   C14928183   6.443   0.285   2.266  0.0923 -0.3411 -0.2434
  108MOL   H15028184   6.366   7.850   2.264 -2.8878 -3.7602  0.9028
  108MOL   H15128185   6.218   0.065   2.264 -2.9623  0.7458 -2.8207
  108MOL   H15228186   6.349   0.071   2.001 -0.3617  2.4274 -0.0243
  108MOL   H15328187   6.583   0.330   2.050 -0.9720  1.7082  0.3118
  108MOL   H15428188   6.422   0.389   2.016  0.4084 -0.2001  0.6115
  108MOL   H15528189   6.480   0.251   1.923 -0.0223 -0.0169 -0.2194
  108MOL   H15628190   6.340   0.301   2.296  0.6430  3.1085 -0.0829
  108MOL   H15728191   6.472   0.388   2.248  0.6137 -0.6204 -1.0459
  108MOL   C15828192   6.530   0.212   2.366  0.1735  0.3980  0.4581
  108MOL   C15928193   6.546   0.287   2.498 -0.1908  0.6233  0.2067
  108MOL   C16028194   6.461   0.267   2.603 -0.3930 -0.6319 -0.4617
  108MOL   C16128195   6.359   0.164   2.600  0.2779 -0.6776  0.4861
  108MOL   C16228196   6.479   0.337   2.736  0.2527 -0.0075 -0.1457
  108MOL   H16328197   6.628   0.205   2.320  0.2166  2.7718  0.0929
  108MOL   H16428198   6.510   0.107   2.383  0.3030  0.6528  2.2285
  108MOL   H16528199   6.612   0.372   2.494  0.2456  0.3135  0.8396
  108MOL   H16628200   6.267   0.224   2.603  1.6011  1.4081  0.3863
  108MOL   H16728201   6.359   0.100   2.688 -0.4249  0.7720  1.5738
  108MOL   H16828202   6.351   0.103   2.510  0.5492  1.6562 -1.1615
  108MOL   H16928203   6.379   0.370   2.763  0.4787  0.1223  0.5308
  108MOL   H17028204   6.543   0.425   2.729  1.0253 -0.5827 -0.4062
  108MOL   C17128205   6.538   0.242   2.840  0.8686  0.4143 -0.4453
  108MOL   C17228206   6.547   0.312   2.975  0.6769 -0.3934  0.3913
  108MOL   C17328207   6.618   0.278   3.081  0.4278 -0.4020  0.4678
  108MOL   C17428208   6.712   0.155   3.071  0.0801  0.2940  0.1668
  108MOL   C17528209   6.621   0.361   3.205 -0.0122  0.2392  0.4862
  108MOL   H17628210   6.635   0.207   2.805  2.1894  0.9856  2.4467
  108MOL   H17728211   6.479   0.154   2.865  2.6542 -0.7713 -0.3802
  108MOL   H17828212   6.488   0.402   2.971 -0.0461 -0.8324  1.1839
  108MOL   H17928213   6.805   0.187   3.024 -0.6786  1.9439 -0.2604
  108MOL   H18028214   6.659   0.072   3.025 -0.7708  0.2122  1.2817
  108MOL   H18128215   6.733   0.103   3.165  2.9166  1.8841  0.4610
  108MOL   H18228216   6.585   0.463   3.189 -1.3042 -0.3150 -0.1733
  108MOL   H18328217   6.725   0.377   3.232  0.0469  2.0016 -0.6566
  108MOL   C18428218   6.542   0.289   3.318  0.0501  0.2509  0.3543
  108MOL   C18528219   6.544   0.363   3.461 -0.0148  0.1909  0.2712
  108MOL   C18628220   6.543   0.305   3.584 -0.0713 -0.3919 -0.4181
  108MOL   C18728221   6.551   0.391   3.708 -0.1496  0.3764  0.9122
  108MOL   C18828222   6.526   0.156   3.613 -0.1961  0.3316 -0.2588
  108MOL   H18928223   6.600   0.199   3.343  2.7595  1.6762 -0.6162
  108MOL   H19028224   6.438   0.268   3.290  0.8561 -2.4207 -0.8640
  108MOL   H19128225   6.549   0.470   3.453 -0.6057  0.4660  3.0650
  108MOL   H19228226   6.569   0.494   3.676  0.2402 -0.1811 -0.7270
  108MOL   H19328227   6.636   0.373   3.774  1.0301  1.0767 -0.3610
  108MOL   H19428228   6.465   0.389   3.774  1.1083  0.6062  2.5779
  108MOL   H19528229   6.602   0.130   3.687 -2.1360  0.6529  1.9181
  108MOL   H19628230   6.542   0.105   3.518 -2.6857  0.0918 -0.5869
  108MOL   C19728231   6.390   0.096   3.661 -0.3878  0.6675 -0.1815
  108MOL   C19828232   6.404   7.831   3.713 -0.0099 -0.2583  0.2000
  108MOL   C19928233   6.354   7.789   3.829 -0.1277  0.2345  0.8119
  108MOL   C20028234   6.355   7.646   3.869 -0.2439  0.3156  0.0667
  108MOL   C20128235   6.283   0.001   3.926 -0.5359 -0.8050 -0.3538
  108MOL   H20228236   6.327   0.093   3.572  0.0714 -0.7310 -0.4774
  108MOL   H20328237   6.339   0.169   3.724 -0.9100  1.2386 -1.2476
  108MOL   H20428238   6.452   7.765   3.641  2.3377  0.4902  1.0444
  108MOL   H20528239   6.397   7.641   3.969 -0.8433 -0.7386  0.2707
  108MOL   H20628240   6.407   7.596   3.788 -0.5964 -1.7541  1.1001
  108MOL   H20728241   6.255   7.608   3.890 -0.3519  1.8581  2.5330
  108MOL   H20828242   6.326   0.101   3.921 -0.5989 -0.9117 -5.0599
  108MOL   H20928243   6.286   7.849   4.030 -0.0107  0.7196  0.1032
  108MOL   C21028244   6.141   0.011   3.879 -0.5340  0.3327 -0.1106
  108MOL   C21128245   6.050   0.105   3.964  0.1918 -0.3592 -0.3366
  108MOL   C21228246   5.942   0.158   3.905 -0.0096 -0.0787 -0.0273
  108MOL   C21328247   5.859   0.264   3.977 -0.6421 -0.1343  0.7374
  108MOL   C21428248   5.885   0.122   3.767 -0.3243 -0.4227  0.1174
  108MOL   H21528249   6.084   7.797   3.878 -0.8968  0.5376  0.7223
  108MOL   H21628250   6.141   0.055   3.779  1.0325  0.5759 -0.0091
  108MOL   H21728251   6.068   0.138   4.066  1.0486 -1.2428 -0.1895
  108MOL   H21828252   5.775   0.216   4.027 -1.3845  0.9592  0.5687
  108MOL   H21928253   5.817   0.352   3.927 -2.6384 -0.8017  1.1994
  108MOL   H22028254   5.920   0.308   4.055  1.4875 -1.4674 -0.1535
  108MOL   H22128255   5.781   0.100   3.792 -0.0193 -0.4468  1.4127
  108MOL   H22228256   5.916   0.025   3.730  0.8957 -0.6705  1.7271
  108MOL   C22328257   5.891   0.227   3.659 -0.2586 -0.3204  0.3811
  108MOL   C22428258   5.783   0.194   3.551  0.2705  0.5582 -0.7743
  108MOL   C22528259   5.806   0.122   3.438  0.5369 -0.0123  0.3509
  108MOL   C22628260   5.689   0.111   3.343 -0.1393 -0.4432  0.2235
  108MOL   C22728261   5.935   0.058   3.397 -0.3756 -0.5110 -0.0219
  108MOL   H22828262   5.984   0.247   3.605 -2.1291  1.2452 -2.3737
  108MOL   H22928263   5.855   0.320   3.703 -2.0222 -0.9464  0.2913
  108MOL   H23028264   5.693   0.251   3.565 -0.4075 -0.4750 -0.9213
  108MOL   H23128265   5.679   0.009   3.305  2.3120 -0.6190 -0.0217
  108MOL   H23228266   5.700   0.176   3.256  0.0427 -0.0810  0.5174
  108MOL   H23328267   5.590   0.139   3.379  0.6007  1.0663  1.0997
  108MOL   H23428268   5.910   7.839   3.356 -0.3075  0.5727 -2.8018
  108MOL   H23528269   5.993   0.032   3.486  1.7612  2.7036 -0.4164
  108MOL   C23628270   6.014   0.144   3.303 -0.3486  0.5130  0.3232
  108MOL   C23728271   6.148   0.072   3.285  0.3990  0.3435 -0.2773
  108MOL   C23828272   6.207   0.034   3.171  0.1463  0.6486 -0.1305
  108MOL   C23928273   6.335   7.832   3.187 -0.0918  0.2208  0.1040
  108MOL   C24028274   6.154   0.057   3.028  0.4869  0.0318  0.6530
  108MOL   H24128275   6.031   0.241   3.350 -0.2374 -0.0340  1.4359
  108MOL   H24228276   5.961   0.159   3.209  0.3133  2.3653  0.2201
  108MOL   H24328277   6.190   0.033   3.377 -0.5906 -2.5260 -1.0062
  108MOL   H24428278   6.417   7.877   3.131 -1.5473  3.5310  0.5184
  108MOL   H24528279   6.323   7.732   3.147  0.4639 -0.6331  1.9949
  108MOL   H24628280   6.378   7.822   3.287  2.7481  0.6562 -1.0258
  108MOL   H24728281   6.226   0.132   2.996  2.3389 -1.2191  1.8168
  108MOL   H24828282   6.052   0.095   3.028 -0.1562 -1.6307 -0.7788
  108MOL   C24928283   6.156   7.814   2.931 -0.3167 -0.1247 -0.3321
  108MOL   C25028284   6.126   7.854   2.791 -0.0287  0.3900 -0.6557
  108MOL   C25128285   6.143   7.776   2.686 -0.1877 -0.4370  0.2301
  108MOL   C25228286   6.123   7.828   2.543 -1.0696  0.1234 -0.1074
  108MOL   C25328287   6.200   7.638   2.705  0.5828 -0.4267 -0.1963
  108MOL   H25428288   6.087   7.736   2.962  1.5466 -1.5815  0.1862
  108MOL   H25528289   6.255   7.768   2.935 -0.7003 -0.8703  0.5408
  108MOL   H25628290   6.105   0.079   2.773 -2.1670 -0.0983 -1.1170
  108MOL   H25728291   6.199   7.797   2.472  0.3293  1.6660  0.7135
  108MOL   H25828292   6.098   0.055   2.542  0.6100  0.5876  2.2768
  108MOL   H25928293   6.032   7.787   2.499 -1.2613 -1.0817  1.3610
  108MOL   H26028294   6.137   7.558   2.667 -0.3697 -0.1139  0.6833
  108MOL   H26128295   6.213   7.608   2.809  0.0623  0.2919  0.0892
  108MOL   H26228296   6.295   7.623   2.654  0.9816 -0.7792  0.6470
  109MOL     C128297   3.412   4.879   6.288  0.9007 -0.2538  0.0807
  109MOL     C228298   3.309   4.988   6.263  0.4126 -0.2831  0.4032
  109MOL     C328299   3.255   5.024   6.144  0.1064  0.0866 -0.2476
  109MOL     C428300   3.145   5.121   6.136 -0.0335  0.3644  0.0690
  109MOL     C528301   3.295   4.964   6.009  0.2956 -0.5700 -0.4472
  109MOL     H628302   3.467   4.895   6.381 -0.5452  0.6007  0.8145
  109MOL     H728303   3.346   4.794   6.305 -1.4354  1.6693  0.9404
  109MOL     H828304   3.283   5.032   6.358  2.8013  1.7438  0.1852
  109MOL     H928305   3.060   5.074   6.086 -1.3057  2.4849  0.1824
  109MOL    H1028306   3.171   5.210   6.079  0.5620 -0.5542 -1.1005
  109MOL    H1128307   3.116   5.154   6.236 -1.3965 -0.1820 -0.1328
  109MOL    H1228308   3.205   4.933   5.956  0.5451 -1.4611 -0.3536
  109MOL    H1328309   3.353   4.873   6.023  1.0438  0.0005  0.1982
  109MOL    H1428310   3.475   4.868   6.201  1.4784  1.4351  0.2539
  109MOL    C1528311   3.374   5.063   5.920  0.0700  0.2444 -0.4093
  109MOL    C1628312   3.438   4.987   5.807  0.3627 -0.5548 -0.6304
  109MOL    C1728313   3.397   4.986   5.680  0.2544 -0.4927 -0.0331
  109MOL    C1828314   3.469   4.903   5.572  0.4853  0.2023  0.2824
  109MOL    C1928315   3.288   5.074   5.634  0.0359  0.1936  0.0010
  109MOL    H2028316   3.451   5.121   5.972  1.0394  0.5771 -2.1809
  109MOL    H2128317   3.315   5.151   5.893 -2.0351 -1.1655 -0.4794
  109MOL    H2228318   3.520   4.927   5.846  0.0717 -0.0634  0.7764
  109MOL    H2328319   3.402   4.830   5.527 -0.9835  1.4488  0.4038
  109MOL    H2428320   3.550   4.838   5.604  0.6358 -0.1627 -0.8268
  109MOL    H2528321   3.511   4.970   5.496  1.1143 -2.4847 -1.8034
  109MOL    H2628322   3.300   5.094   5.527 -3.9594  1.3897 -0.3069
  109MOL    H2728323   3.298   5.174   5.676 -2.7437  0.0831  1.0186
  109MOL    C2828324   3.151   4.998   5.631  0.1518 -0.2384  0.0902
  109MOL    C2928325   3.043   5.080   5.565  0.4313 -1.1710  0.1624
  109MOL    C3028326   2.950   5.151   5.633 -0.0913 -0.2432 -0.2946
  109MOL    C3128327   2.833   5.211   5.562  0.1908  0.0802  0.3520
  109MOL    C3228328   2.946   5.167   5.786  0.1369  0.4231 -0.1106
  109MOL    H3328329   3.131   4.967   5.733  0.0185 -2.1583 -0.4941
  109MOL    H3428330   3.180   4.915   5.566 -0.0615  1.0980 -1.7450
  109MOL    H3528331   3.045   5.083   5.457  1.4825 -0.9457  0.1740
  109MOL    H3628332   2.805   5.312   5.593 -1.8619 -1.3929  3.4472
  109MOL    H3728333   2.751   5.144   5.584  0.5149 -0.2840  0.4445
  109MOL    H3828334   2.840   5.214   5.453  0.7504  0.9677  0.4014
  109MOL    H3928335   3.025   5.111   5.837 -0.8016  1.2905  2.4143
  109MOL    H4028336   2.849   5.130   5.820 -0.5123  0.0997 -2.2365
  109MOL    C4128337   2.945   5.321   5.814 -0.1498 -0.0476  0.2565
  109MOL    C4228338   2.998   5.371   5.949 -0.3590 -0.1242  0.0246
  109MOL    C4328339   3.083   5.475   5.969 -0.5019 -0.2627 -0.1203
  109MOL    C4428340   3.113   5.512   6.110 -0.3060 -0.4137  0.4074
  109MOL    C4528341   3.160   5.547   5.864 -0.4180 -0.6324 -0.4380
  109MOL    H4628342   2.851   5.374   5.800 -0.7989 -1.4615 -0.8279
  109MOL    H4728343   3.006   5.369   5.737 -1.3534  1.2057  0.0471
  109MOL    H4828344   2.958   5.313   6.031 -1.5024  0.1093 -0.3573
  109MOL    H4928345   3.022   5.488   6.164 -1.4484 -1.5247 -1.9365
  109MOL    H5028346   3.122   5.618   6.136 -0.4508 -0.8174  2.1561
  109MOL    H5128347   3.196   5.449   6.143  0.4564 -0.9090 -2.3187
  109MOL    H5228348   3.176   5.645   5.908  3.9762 -0.3748 -2.3274
  109MOL    H5328349   3.114   5.547   5.765 -0.6213 -0.2474 -0.3443
  109MOL    C5428350   3.297   5.481   5.855 -0.8756 -0.0483  0.2738
  109MOL    C5528351   3.393   5.566   5.775 -0.5331  0.4296  0.3607
  109MOL    C5628352   3.500   5.632   5.822  0.1696 -0.2065 -0.2126
  109MOL    C5728353   3.595   5.692   5.723  0.1998  0.6576 -0.2119
  109MOL    C5828354   3.550   5.636   5.962 -0.4033  0.2578  0.4907
  109MOL    H5928355   3.291   5.384   5.804  0.1575 -0.0075  0.0569
  109MOL    H6028356   3.342   5.460   5.952  0.4920 -0.0479 -0.3368
  109MOL    H6128357   3.377   5.564   5.668  0.4029  3.0810  0.1532
  109MOL    H6228358   3.580   5.800   5.724 -0.9901  0.5000  0.2387
  109MOL    H6328359   3.579   5.664   5.620  0.9905  0.8902 -0.4010
  109MOL    H6428360   3.700   5.668   5.734  0.5818  2.7876  1.1939
  109MOL    H6528361   3.638   5.573   5.977  0.1959  0.7413 -0.9181
  109MOL    H6628362   3.485   5.594   6.038 -0.1431 -1.2677 -0.1005
  109MOL    C6728363   3.581   5.770   6.016 -0.7449  0.0811 -0.3748
  109MOL    C6828364   3.626   5.772   6.158  0.6264 -0.3182  0.5081
  109MOL    C6928365   3.748   5.763   6.208 -0.4633 -0.4942 -0.0396
  109MOL    C7028366   3.778   5.778   6.359  0.4265 -0.0832  0.1157
  109MOL    C7128367   3.869   5.728   6.126 -0.1789  0.6350  0.3580
  109MOL    H7228368   3.490   5.828   5.999 -1.3115 -0.8313 -0.4652
  109MOL    H7328369   3.656   5.817   5.952 -0.5544 -0.2163 -0.3717
  109MOL    H7428370   3.551   5.796   6.231  1.8965  2.0021  1.1110
  109MOL    H7528371   3.883   5.759   6.381 -0.2234 -0.7042  2.8344
  109MOL    H7628372   3.714   5.702   6.403  0.6803  0.1054  0.8161
  109MOL    H7728373   3.748   5.876   6.396  0.5134  0.2339 -0.6448
  109MOL    H7828374   3.954   5.796   6.132  0.6530 -0.3187 -0.2844
  109MOL    H7928375   3.840   5.717   6.021 -0.2186 -4.9378  0.7976
  109MOL    C8028376   3.929   5.585   6.157  0.5726 -0.0131 -0.1563
  109MOL    C8128377   4.074   5.568   6.113 -0.3137 -0.0467 -0.4045
  109MOL    C8228378   4.136   5.471   6.046  0.0759 -0.2409 -0.1182
  109MOL    C8328379   4.062   5.349   6.006 -0.6092 -0.5625 -0.8933
  109MOL    C8428380   4.273   5.492   5.982  0.9204  0.3037  0.5620
  109MOL    H8528381   3.873   5.512   6.099  0.5314 -0.0965 -0.0093
  109MOL    H8628382   3.910   5.562   6.262  0.4799 -0.7983 -0.3390
  109MOL    H8728383   4.145   5.649   6.127 -1.5579  0.6719  1.9056
  109MOL    H8828384   4.135   5.271   5.984 -0.8427 -0.9465 -0.3305
  109MOL    H8928385   4.012   5.372   5.912 -0.3505 -1.4478 -1.2524
  109MOL    H9028386   3.986   5.314   6.076  1.3602  0.0487  1.6065
  109MOL    H9128387   4.296   5.597   5.961  0.8023 -0.0420 -1.4591
  109MOL    H9228388   4.267   5.443   5.885 -0.2527  0.4951  0.5301
  109MOL    C9328389   4.386   5.447   6.074 -0.1265  0.1108  0.0744
  109MOL    C9428390   4.523   5.443   6.007  0.0723  0.0456  0.2618
  109MOL    C9528391   4.629   5.511   6.049 -0.6860 -0.0845 -0.0451
  109MOL    C9628392   4.764   5.499   5.980 -0.1780  0.5793  0.1675
  109MOL    C9728393   4.638   5.604   6.172 -0.1145  0.0185  0.1179
  109MOL    H9828394   4.370   5.341   6.097 -1.8060 -0.0312 -1.6017
  109MOL    H9928395   4.383   5.509   6.163 -0.6455  1.1347 -0.6446
  109MOL   H10028396   4.541   5.390   5.915 -1.0498  2.1524 -1.2168
  109MOL   H10128397   4.827   5.438   6.044  1.1406  0.3415 -1.3379
  109MOL   H10228398   4.745   5.444   5.888 -0.8375 -0.2839  0.8092
  109MOL   H10328399   4.825   5.587   5.961  1.8981 -0.4570  1.8319
  109MOL   H10428400   4.543   5.645   6.206  0.1086  1.8115 -1.3345
  109MOL   H10528401   4.696   5.692   6.147  0.7342  0.0921  2.2589
  109MOL   C10628402   4.714   5.541   6.289 -0.3937 -0.4674  0.0779
  109MOL   C10728403   4.648   5.426   6.361  0.4205  0.3018 -0.1081
  109MOL   C10828404   4.643   5.395   6.491 -0.3733 -0.3518  0.3713
  109MOL   C10928405   4.713   5.476   6.600  0.2823  0.0687 -0.3918
  109MOL   C11028406   4.570   5.272   6.537 -0.5261  0.0652 -0.1273
  109MOL   H11128407   4.737   5.615   6.365 -1.4473  0.5291 -0.5707
  109MOL   H11228408   4.813   5.517   6.249 -0.2640  0.9632 -0.4938
  109MOL   H11328409   4.596   5.361   6.291 -1.9412  0.2379  1.6581
  109MOL   H11428410   4.772   5.562   6.566 -0.3898  0.7467  0.1263
  109MOL   H11528411   4.638   5.511   6.671 -1.4425 -0.7362 -1.7708
  109MOL   H11628412   4.788   5.422   6.658  3.3214 -0.6627 -4.7309
  109MOL   H11728413   4.514   5.234   6.452 -0.0167 -0.0530 -0.4124
  109MOL   H11828414   4.495   5.312   6.605 -1.1105 -1.3985  0.1010
  109MOL   C11928415   4.645   5.157   6.601  0.3979  0.3935 -0.7799
  109MOL   C12028416   4.740   5.087   6.503 -0.0337  0.5377 -0.4666
  109MOL   C12128417   4.764   4.952   6.495  0.0352 -0.6431 -0.4345
  109MOL   C12228418   4.871   4.905   6.394  0.6652 -0.9227  0.1505
  109MOL   C12328419   4.682   4.850   6.572 -0.8155 -1.1800  0.7591
  109MOL   H12428420   4.572   5.089   6.646 -0.5245  1.4680 -0.6299
  109MOL   H12528421   4.704   5.188   6.687  1.9365  2.2558 -2.4398
  109MOL   H12628422   4.800   5.149   6.439  0.4533  0.0271 -0.5107
  109MOL   H12728423   4.919   4.819   6.440  2.1510  1.0306  2.3382
  109MOL   H12828424   4.947   4.980   6.373 -0.4034  0.5391  1.3586
  109MOL   H12928425   4.822   4.874   6.301  0.0766  0.7547 -0.1070
  109MOL   H13028426   4.623   4.894   6.652 -1.7196 -0.4234 -0.3100
  109MOL   H13128427   4.757   4.786   6.618  0.4261 -0.8285 -0.7341
  109MOL   C13228428   4.598   4.768   6.469  0.4325  0.6854 -0.0039
  109MOL   C13328429   4.481   4.716   6.535 -0.3870 -0.5774 -0.3364
  109MOL   C13428430   4.368   4.772   6.570 -0.3197  0.8841  0.2115
  109MOL   C13528431   4.260   4.698   6.651  0.2433  0.5657  0.1711
  109MOL   C13628432   4.342   4.921   6.553  0.3719 -1.1700  0.4264
  109MOL   H13728433   4.660   4.689   6.427  0.3739  0.1698  0.8570
  109MOL   H13828434   4.565   4.827   6.383 -2.4560 -2.1067 -0.8978
  109MOL   H13928435   4.490   4.610   6.553  2.0360 -0.4767 -0.7871
  109MOL   H14028436   4.283   4.591   6.650 -2.4782 -0.0839  1.5686
  109MOL   H14128437   4.168   4.710   6.595 -0.1290 -0.5829  0.5180
  109MOL   H14228438   4.262   4.744   6.750 -0.6748 -0.9686  0.9381
  109MOL   H14328439   4.421   4.974   6.500 -0.7406  1.1155  1.0153
  109MOL   H14428440   4.331   4.971   6.649 -0.0246  0.4755 -0.4700
  109MOL   C14528441   4.207   4.959   6.481 -0.0270  1.0697  0.2022
  109MOL   C14628442   4.211   5.097   6.415 -0.1983 -0.0814 -0.2544
  109MOL   C14728443   4.136   5.201   6.454  0.4640  0.4201  0.5112
  109MOL   C14828444   4.162   5.338   6.386 -0.6681  0.3360  0.3939
  109MOL   C14928445   4.024   5.201   6.559 -0.6039  0.6342  0.5252
  109MOL   H15028446   4.126   4.957   6.553 -0.1803  1.0060  0.0282
  109MOL   H15128447   4.175   4.889   6.404  0.9398 -0.8754  1.5166
  109MOL   H15228448   4.290   5.096   6.341  0.5431 -2.5745  0.5222
  109MOL   H15328449   4.232   5.323   6.304 -0.6214 -0.2272  0.5348
  109MOL   H15428450   4.228   5.398   6.450  0.6063 -0.0275 -0.5610
  109MOL   H15528451   4.081   5.399   6.347 -0.5331 -0.8540 -1.8169
  109MOL   H15628452   3.958   5.114   6.549 -1.7426  1.5113  0.3243
  109MOL   H15728453   3.951   5.279   6.539  0.5817  1.2415 -1.5877
  109MOL   C15828454   4.077   5.186   6.701  0.0718 -0.2199  0.3760
  109MOL   C15928455   3.967   5.159   6.802 -0.0770 -0.2528 -0.1458
  109MOL   C16028456   3.966   5.050   6.884 -0.0122 -0.2534  0.3621
  109MOL   C16128457   4.071   4.943   6.903  0.2925 -0.0051 -0.1715
  109MOL   C16228458   3.856   5.041   6.986 -0.5433 -0.3217 -0.6422
  109MOL   H16328459   4.124   5.280   6.729  2.0041 -1.6622  2.1524
  109MOL   H16428460   4.157   5.112   6.703 -1.3657 -1.7749  0.8692
  109MOL   H16528461   3.894   5.238   6.801 -1.1555 -1.2463 -0.8441
  109MOL   H16628462   4.045   4.873   6.982 -1.9606 -1.2850 -1.9608
  109MOL   H16728463   4.163   4.995   6.929 -0.4664  1.5748 -0.5733
  109MOL   H16828464   4.089   4.885   6.812  2.0731 -0.4119  0.4292
  109MOL   H16928465   3.816   4.940   6.983  1.9637 -1.3591 -0.0045
  109MOL   H17028466   3.773   5.105   6.953 -0.4233 -0.0307 -0.3741
  109MOL   C17128467   3.893   5.092   7.126  1.0179 -0.0016  0.5304
  109MOL   C17228468   3.771   5.075   7.215 -0.2860 -0.3283 -0.3135
  109MOL   C17328469   3.752   4.987   7.315 -0.6142  0.1644 -0.3069
  109MOL   C17428470   3.853   4.873   7.369 -0.3078 -0.5603 -0.1974
  109MOL   C17528471   3.631   5.009   7.405  0.3386 -0.1353  0.4488
  109MOL   H17628472   3.941   5.189   7.132  2.1336 -0.4929 -0.2856
  109MOL   H17728473   3.976   5.034   7.166  1.8176 -0.4684 -1.7365
  109MOL   H17828474   3.692   5.145   7.190  0.1580  1.3239  2.6618
  109MOL   H17928475   3.950   4.874   7.318 -0.2689 -1.6630 -0.1582
  109MOL   H18028476   3.802   4.782   7.338 -0.2139  0.5829 -3.9415
  109MOL   H18128477   3.876   4.875   7.475  0.6314 -0.2679 -0.3962
  109MOL   H18228478   3.574   5.100   7.388  1.9993  0.8999  0.2754
  109MOL   H18328479   3.660   5.021   7.509  0.9127 -1.4443  0.4497
  109MOL   C18428480   3.533   4.895   7.411 -0.0580 -0.3237 -0.0804
  109MOL   C18528481   3.431   4.914   7.522  0.0593 -0.0076  0.0906
  109MOL   C18628482   3.433   4.897   7.655 -0.5839  0.6537  0.5528
  109MOL   C18728483   3.317   4.922   7.747 -1.2634  0.4390 -0.0323
  109MOL   C18828484   3.553   4.850   7.733  0.0068  0.1912  0.0946
  109MOL   H18928485   3.594   4.809   7.436 -1.1375 -1.9447 -2.8267
  109MOL   H19028486   3.495   4.874   7.311  0.2211 -0.8291 -0.0779
  109MOL   H19128487   3.336   4.935   7.476  0.1023  0.8087  0.3685
  109MOL   H19228488   3.234   4.969   7.694 -2.4486 -2.5265 -0.9392
  109MOL   H19328489   3.339   4.984   7.833 -1.8997 -1.1903  1.3223
  109MOL   H19428490   3.282   4.831   7.796  1.4860 -1.6336 -1.7261
  109MOL   H19528491   3.631   4.835   7.658  0.8139  0.4602  0.8720
  109MOL   H19628492   3.539   4.757   7.789  2.8958 -0.6716 -0.4881
  109MOL   C19728493   3.612   4.961   7.817 -0.6030  0.3412  0.0225
  109MOL   C19828494   3.721   4.913   0.025 -0.5044  0.5371  0.1371
  109MOL   C19928495   3.750   4.956   0.148  0.0801 -0.5759 -0.2546
  109MOL   C20028496   3.866   4.900   0.224  0.0906 -0.3480  0.3210
  109MOL   C20128497   3.669   5.062   0.212  0.3011  0.0900  0.0098
  109MOL   H20228498   3.537   4.984   0.013 -0.0349 -0.7222  0.9285
  109MOL   H20328499   3.639   5.050   7.759  1.2379 -0.1640  0.0559
  109MOL   H20428500   3.794   4.843   7.865 -1.3919  0.0516 -0.6711
  109MOL   H20528501   3.837   4.872   0.326  1.0319 -1.0719  0.4032
  109MOL   H20628502   3.942   4.976   0.211 -2.5813  2.5322  1.0581
  109MOL   H20728503   3.904   4.812   0.172 -1.0296  0.8279 -2.5460
  109MOL   H20828504   3.628   5.127   0.134 -1.5496  1.5864  2.1526
  109MOL   H20928505   3.727   5.132   0.272  1.8826 -2.3593  1.4222
  109MOL   C21028506   3.551   5.004   0.296 -0.5324  0.0938  0.3657
  109MOL   C21128507   3.474   5.113   0.366 -0.3718  0.0743 -0.1794
  109MOL   C21228508   3.374   5.178   0.316  0.4048 -0.9206 -0.1674
  109MOL   C21328509   3.300   5.289   0.393  0.2361 -0.1263 -0.0816
  109MOL   C21428510   3.320   5.160   0.176  0.4239  0.1174  0.0087
  109MOL   H21528511   3.592   4.932   0.367  0.5132 -0.3905 -0.6993
  109MOL   H21628512   3.478   4.943   0.241 -0.2568  0.4018 -0.3462
  109MOL   H21728513   3.502   5.136   0.467  1.1583  2.0023 -1.0083
  109MOL   H21828514   3.337   5.389   0.368 -1.9243  0.4722 -0.9859
  109MOL   H21928515   3.311   5.268   0.499 -1.6713  1.3649  0.4336
  109MOL   H22028516   3.193   5.279   0.376  0.6108 -2.8932 -1.1378
  109MOL   H22128517   3.230   5.100   0.167 -0.3323  1.3906 -1.0602
  109MOL   H22228518   3.391   5.101   0.118 -0.4043  0.0509 -0.9455
  109MOL   C22328519   3.302   5.296   0.098  0.2535 -0.6363  0.2375
  109MOL   C22428520   3.280   5.273   7.836  0.1107 -0.3359  0.4772
  109MOL   C22528521   3.343   5.321   7.727  0.0081  0.7739 -0.1541
  109MOL   C22628522   3.306   5.280   7.587  0.6887  0.2473 -0.0635
  109MOL   C22728523   3.460   5.421   7.722 -0.0586 -0.2776 -0.0380
  109MOL   H22828524   3.378   5.372   0.114  0.0489  0.0184 -1.8096
  109MOL   H22928525   3.208   5.340   0.131  0.7466  0.6363 -0.0050
  109MOL   H23028526   3.197   5.207   7.814 -0.3161  0.5422 -0.6179
  109MOL   H23128527   3.387   5.217   7.551  0.4260 -0.2702  0.2525
  109MOL   H23228528   3.284   5.360   7.516 -1.1472 -0.5762 -0.4435
  109MOL   H23328529   3.220   5.212   7.591  1.4075 -0.6759 -0.1768
  109MOL   H23428530   3.460   5.474   7.817  1.4953  2.8199 -1.7006
  109MOL   H23528531   3.440   5.501   7.651 -0.4627 -0.5577 -0.2391
  109MOL   C23628532   3.602   5.369   7.690  0.2036  0.3302  0.1032
  109MOL   C23728533   3.704   5.479   7.680  0.6769  0.3140  0.2645
  109MOL   C23828534   3.803   5.509   7.769  0.0037  0.1012 -0.2325
  109MOL   C23928535   3.894   5.629   7.750  0.1539  0.4681 -0.4243
  109MOL   C24028536   3.822   5.449   0.033 -0.3835  0.0296 -0.1698
  109MOL   H24128537   3.588   5.313   7.598 -3.2723  0.4524  0.5066
  109MOL   H24228538   3.627   5.285   7.755 -1.4488 -1.8218 -1.9645
  109MOL   H24328539   3.697   5.528   7.584  0.0382 -0.2415  0.0210
  109MOL   H24428540   3.886   5.663   7.647  1.7540  0.1389 -0.6659
  109MOL   H24528541   3.995   5.597   7.776 -1.1370 -0.1211  4.3148
  109MOL   H24628542   3.865   5.710   7.818 -0.7870 -1.5165  1.5957
  109MOL   H24728543   3.728   5.408   0.069 -1.0242  0.2818 -1.5572
  109MOL   H24828544   3.837   5.531   0.103 -0.8959 -1.1524  1.3718
  109MOL   C24928545   3.940   5.351   0.044 -0.5821  0.0121 -0.1211
  109MOL   C25028546   3.991   5.325   0.176 -0.3219  0.4757 -0.5632
  109MOL   C25128547   4.072   5.397   0.256 -0.3027 -0.1814 -0.3272
  109MOL   C25228548   4.112   5.362   0.391  0.1228  0.1133 -0.9844
  109MOL   C25328549   4.129   5.526   0.206 -0.5393 -0.3171 -0.6807
  109MOL   H25428550   4.029   5.371   7.863  0.7330 -0.8118  1.4933
  109MOL   H25528551   3.900   5.254   0.016 -1.5783  0.6478 -0.9237
  109MOL   H25628552   3.959   5.235   0.226  3.2607 -0.5303  0.1001
  109MOL   H25728553   4.220   5.343   0.392  0.4201  1.7343  1.0391
  109MOL   H25828554   4.072   5.272   0.437  0.6404  1.4846  2.2870
  109MOL   H25928555   4.083   5.441   0.461  0.2561 -0.3868 -0.3654
  109MOL   H26028556   4.236   5.508   0.215 -0.2471  1.7630  0.2511
  109MOL   H26128557   4.098   5.613   0.263  2.7058  2.4198 -2.9026
  109MOL   H26228558   4.119   5.535   0.098 -0.4461 -0.9436 -0.7456
  110MOL     C128559   6.746   5.649   5.650  0.1323 -0.4194  0.1218
  110MOL     C228560   6.626   5.737   5.626  0.1823  0.0380 -0.1235
  110MOL     C328561   6.566   5.824   5.706 -0.0402 -0.4561  0.2947
  110MOL     C428562   6.447   5.895   5.654  0.6639 -0.0686 -0.0444
  110MOL     C528563   6.587   5.826   5.858  0.1671  0.6841 -0.1695
  110MOL     H628564   6.824   5.675   5.578  0.1818 -2.2962 -0.5287
  110MOL     H728565   6.780   5.668   5.752 -1.7643 -0.2147  0.7394
  110MOL     H828566   6.580   5.717   5.531  0.0374  0.1393 -0.0746
  110MOL     H928567   6.355   5.845   5.685  0.8132  0.0899  0.6627
  110MOL    H1028568   6.448   5.898   5.545 -0.0756  0.8846 -0.0329
  110MOL    H1128569   6.445   5.997   5.692 -0.5401  0.4532 -1.4754
  110MOL    H1228570   6.615   5.723   5.882 -1.6892  0.3322  0.5226
  110MOL    H1328571   6.491   5.838   5.908 -0.7284 -3.0699 -0.7675
  110MOL    H1428572   6.711   5.548   5.630 -0.2618 -0.5304  1.3825
  110MOL    C1528573   6.699   5.924   5.901 -0.0178  0.8716 -0.0857
  110MOL    C1628574   6.743   5.920   6.043  0.6389 -0.1948 -0.5912
  110MOL    C1728575   6.760   6.025   6.126 -0.5044 -0.0198  0.4385
  110MOL    C1828576   6.794   6.004   6.269 -0.2140 -0.1531  0.3845
  110MOL    C1928577   6.736   6.172   6.088 -0.4559  0.3169 -0.2207
  110MOL    H2028578   6.667   6.028   5.890  1.1739  1.3168  0.6349
  110MOL    H2128579   6.780   5.903   5.831  0.9528  0.0351  1.2646
  110MOL    H2228580   6.765   5.820   6.080  0.8308  0.2451  0.5179
  110MOL    H2328581   6.714   6.039   6.334 -1.7039 -2.1224 -0.3465
  110MOL    H2428582   6.895   6.043   6.286  0.6832 -1.7659 -1.0308
  110MOL    H2528583   6.799   5.898   6.293 -0.2195 -0.6010 -1.5054
  110MOL    H2628584   6.753   6.212   5.988 -1.2085  2.8964  0.6350
  110MOL    H2728585   6.801   6.224   6.159 -1.1404 -0.6413  1.1311
  110MOL    C2828586   6.587   6.207   6.121 -1.0985 -0.0477 -0.0269
  110MOL    C2928587   6.549   6.350   6.078 -0.7342 -0.7571 -0.2386
  110MOL    C3028588   6.455   6.384   5.987 -0.3057 -0.2633  0.0364
  110MOL    C3128589   6.419   6.526   5.963  0.8013  0.0969 -0.1455
  110MOL    C3228590   6.388   6.289   5.889  0.4207  0.2245 -0.0973
  110MOL    H3328591   6.571   6.192   6.228  0.0275 -2.1317 -0.1388
  110MOL    H3428592   6.523   6.136   6.069  0.0554 -0.9690 -0.1978
  110MOL    H3528593   6.584   6.431   6.140 -3.6939  0.9681 -0.7187
  110MOL    H3628594   6.481   6.595   6.021 -0.1208 -0.9069  2.0919
  110MOL    H3728595   6.319   6.552   5.998  0.6289 -0.1611 -0.4416
  110MOL    H3828596   6.418   6.547   5.856 -0.8250  3.3112  0.4552
  110MOL    H3928597   6.437   6.192   5.886  1.1568  0.6234 -2.1407
  110MOL    H4028598   6.402   6.325   5.787 -0.7816 -1.5962 -0.9223
  110MOL    C4128599   6.241   6.274   5.929 -0.4392  0.8708 -0.0649
  110MOL    C4228600   6.174   6.173   5.834  0.0930  0.5560 -0.4208
  110MOL    C4328601   6.124   6.204   5.712  0.0775 -0.0172  0.4314
  110MOL    C4428602   6.056   6.097   5.631 -0.0965  0.3021  0.2095
  110MOL    C4528603   6.136   6.345   5.644 -0.3701 -0.2440 -0.2190
  110MOL    H4628604   6.193   6.372   5.937 -1.0782  0.4557  1.3191
  110MOL    H4728605   6.229   6.244   6.033  0.6822  1.5815  0.2727
  110MOL    H4828606   6.145   6.076   5.871  2.3710  0.5043  1.3327
  110MOL    H4928607   6.110   6.080   5.538 -0.8751  1.2001 -0.4184
  110MOL    H5028608   5.954   6.131   5.614 -0.5139  0.7824  3.3085
  110MOL    H5128609   6.050   6.004   5.687  1.8104 -0.5116 -0.8881
  110MOL    H5228610   6.188   6.327   5.550 -0.2777 -0.1104 -0.1930
  110MOL    H5328611   6.203   6.406   5.704  0.6011  0.8649 -2.4045
  110MOL    C5428612   5.998   6.406   5.620 -0.0181  0.9868 -0.7600
  110MOL    C5528613   6.014   6.546   5.578 -0.3419 -0.1346  0.1539
  110MOL    C5628614   5.933   6.608   5.495 -0.1939  0.3673  0.1409
  110MOL    C5728615   5.942   6.760   5.478  0.5372 -0.1343  0.2766
  110MOL    C5828616   5.815   6.543   5.417 -0.2478 -0.2841 -0.4935
  110MOL    H5928617   5.925   6.402   5.700  0.9382  1.9547  0.1812
  110MOL    H6028618   5.947   6.355   5.539 -0.0984  0.8667 -0.6341
  110MOL    H6128619   6.092   6.603   5.627  1.0411  0.8512 -3.0410
  110MOL    H6228620   6.039   6.798   5.512  0.6443  1.6852 -1.9795
  110MOL    H6328621   5.867   6.814   5.535 -0.0931 -0.7348  0.0125
  110MOL    H6428622   5.929   6.787   5.373  0.0534 -0.2261  0.3127
  110MOL    H6528623   5.846   6.455   5.360 -0.6560 -0.7537  0.0121
  110MOL    H6628624   5.772   6.607   5.340 -0.2368  0.1700 -0.1208
  110MOL    C6728625   5.689   6.498   5.497 -0.1201 -0.2122 -0.4071
  110MOL    C6828626   5.595   6.420   5.409  0.2144 -0.0632  0.2375
  110MOL    C6928627   5.561   6.291   5.423  0.0849  0.0796  0.4037
  110MOL    C7028628   5.459   6.233   5.343  0.2191  0.4060  0.1333
  110MOL    C7128629   5.619   6.197   5.520  0.7082 -0.1607 -0.6426
  110MOL    H7228630   5.638   6.591   5.520 -0.8092 -0.3651 -1.2725
  110MOL    H7328631   5.716   6.444   5.588 -0.6705  0.1368 -0.0374
  110MOL    H7428632   5.537   6.491   5.351  3.4737  2.5697  0.0515
  110MOL    H7528633   5.378   6.194   5.405 -0.6444  0.4984 -0.9150
  110MOL    H7628634   5.503   6.157   5.278  0.8855 -1.0408  2.1882
  110MOL    H7728635   5.423   6.307   5.273 -0.7946 -0.4011 -0.2190
  110MOL    H7828636   5.718   6.237   5.542  0.1963 -0.6753  2.8480
  110MOL    H7928637   5.645   6.105   5.467 -1.4104 -1.2467  0.1692
  110MOL    C8028638   5.546   6.198   5.655  0.6434  0.0179 -0.8310
  110MOL    C8128639   5.574   6.075   5.743 -0.8578 -0.6858 -0.3485
  110MOL    C8228640   5.633   6.077   5.869 -0.2028  0.0580  0.7734
  110MOL    C8328641   5.662   6.199   5.953 -0.0775  0.4101  0.0726
  110MOL    C8428642   5.671   5.944   5.942 -0.4674 -0.0626 -0.1172
  110MOL    H8528643   5.437   6.199   5.646  0.5603 -1.2175 -0.0756
  110MOL    H8628644   5.573   6.294   5.699 -1.5719  0.2256  0.1363
  110MOL    H8728645   5.567   5.978   5.697  0.6767 -0.7302 -0.5058
  110MOL    H8828646   5.758   6.193   6.004  0.6435 -2.9576 -1.5347
  110MOL    H8928647   5.581   6.205   6.025  0.5916 -0.2444  0.8932
  110MOL    H9028648   5.682   6.294   5.903 -0.4170 -0.3293 -1.5051
  110MOL    H9128649   5.613   5.938   6.034  0.8718 -1.9304  0.6294
  110MOL    H9228650   5.774   5.948   5.977 -1.3543 -0.3000  2.6032
  110MOL    C9328651   5.657   5.818   5.869  0.0744  0.5135 -0.4180
  110MOL    C9428652   5.708   5.700   5.951  0.1910 -0.0624 -0.2058
  110MOL    C9528653   5.826   5.635   5.928  0.3329 -0.2521  0.2326
  110MOL    C9628654   5.865   5.510   6.002 -0.1936 -0.0818  0.5290
  110MOL    C9728655   5.944   5.679   5.835  0.8341 -0.1235  0.0743
  110MOL    H9828656   5.727   5.826   5.786 -0.6790  0.5123 -1.0563
  110MOL    H9928657   5.555   5.802   5.835 -0.7645  2.0885  1.2424
  110MOL   H10028658   5.637   5.658   6.020  1.4770 -1.0911  0.5161
  110MOL   H10128659   5.896   5.430   5.935 -0.4954 -0.3729  0.7331
  110MOL   H10228660   5.950   5.537   6.063  1.5076  1.1441 -2.2894
  110MOL   H10328661   5.784   5.471   6.064  0.5567 -2.2330  0.2130
  110MOL   H10428662   6.032   5.676   5.899  1.1318  0.8601 -0.2676
  110MOL   H10528663   5.926   5.783   5.807 -1.1700 -0.3128  0.6379
  110MOL   C10628664   5.962   5.594   5.711 -0.0316 -0.4759 -0.8293
  110MOL   C10728665   6.054   5.654   5.598  0.3410 -0.1139  0.5849
  110MOL   C10828666   6.017   5.721   5.486  0.8026  0.1426 -1.2431
  110MOL   C10928667   5.873   5.743   5.459 -0.6832  0.1338 -1.0453
  110MOL   C11028668   6.116   5.781   5.391  0.0045 -0.0903 -0.1638
  110MOL   H11128669   5.862   5.578   5.672 -0.2148  0.8166 -0.9079
  110MOL   H11228670   5.986   5.492   5.740  1.1104 -0.0207 -0.1456
  110MOL   H11328671   6.160   5.645   5.619  0.1332 -0.3766  1.5593
  110MOL   H11428672   5.809   5.751   5.547  0.8836  3.0835 -0.0949
  110MOL   H11528673   5.866   5.843   5.417 -0.7325 -0.4101 -2.3391
  110MOL   H11628674   5.854   5.668   5.383  2.5835 -2.4068  0.5132
  110MOL   H11728675   6.194   5.828   5.451 -1.3128 -0.2417  1.7382
  110MOL   H11828676   6.068   5.864   5.340 -2.6669 -0.0112  2.3215
  110MOL   C11928677   6.161   5.675   5.288 -0.0726  0.1707  0.3892
  110MOL   C12028678   6.277   5.601   5.351  0.5553  0.3764 -0.7111
  110MOL   C12128679   6.352   5.501   5.305  0.1900 -0.0260 -0.3390
  110MOL   C12228680   6.458   5.437   5.392  0.1910  0.8252 -0.3337
  110MOL   C12328681   6.313   5.427   5.174  0.7164  0.2931 -0.0233
  110MOL   H12428682   6.200   5.745   5.214 -1.1784 -0.5074 -0.8729
  110MOL   H12528683   6.077   5.616   5.251 -0.6104  0.4706  1.1135
  110MOL   H12628684   6.321   5.650   5.437  0.9691  1.3448 -1.4544
  110MOL   H12728685   6.420   5.351   5.447 -1.2271  1.6730  0.0363
  110MOL   H12828686   6.498   5.510   5.462  0.8407 -1.3713  1.6642
  110MOL   H12928687   6.551   5.408   5.343  1.2956  0.7842  1.7221
  110MOL   H13028688   6.209   5.451   5.153  0.5150  2.3576  3.0431
  110MOL   H13128689   6.326   5.320   5.190 -1.6496  0.2596  1.8204
  110MOL   C13228690   6.411   5.464   5.054 -0.4028  1.2429 -0.5957
  110MOL   C13328691   6.375   5.385   4.926  0.3644 -0.7196  0.6029
  110MOL   C13428692   6.378   5.433   4.797 -1.1139 -0.5194 -0.2954
  110MOL   C13528693   6.316   5.357   4.677 -0.2286  0.0029  0.6363
  110MOL   C13628694   6.435   5.575   4.764  0.5970 -0.3339  0.3421
  110MOL   H13728695   6.513   5.434   5.080 -0.5515  0.1820 -1.1974
  110MOL   H13828696   6.405   5.571   5.035 -0.1340  1.6179  1.3060
  110MOL   H13928697   6.344   5.282   4.927  0.9797 -0.9313 -1.0224
  110MOL   H14028698   6.387   5.347   4.595 -1.2783 -0.8795 -0.1847
  110MOL   H14128699   6.243   5.426   4.633  0.1558  0.8103  1.2482
  110MOL   H14228700   6.274   5.262   4.709  1.3297 -1.0727 -0.4641
  110MOL   H14328701   6.490   5.564   4.671 -0.5400  0.1110 -0.3902
  110MOL   H14428702   6.506   5.620   4.833 -0.9040  2.0438  0.3696
  110MOL   C14528703   6.315   5.676   4.747  0.2105 -0.1793 -0.5871
  110MOL   C14628704   6.359   5.819   4.753 -0.2607  0.5044  0.3826
  110MOL   C14728705   6.302   5.919   4.685  0.1733 -0.4691  0.3716
  110MOL   C14828706   6.355   6.058   4.701 -0.1375  0.4524 -0.0669
  110MOL   C14928707   6.182   5.909   4.584 -0.9707  1.0198 -0.4399
  110MOL   H15028708   6.252   5.660   4.834  2.3035 -1.0977  0.7839
  110MOL   H15128709   6.257   5.641   4.661 -1.6189 -0.2256  0.6545
  110MOL   H15228710   6.441   5.838   4.821  0.8799 -1.9177 -0.2696
  110MOL   H15328711   6.338   6.106   4.605 -3.0955 -0.3606  0.0033
  110MOL   H15428712   6.462   6.065   4.719 -0.2168  0.9174  0.2319
  110MOL   H15528713   6.289   6.107   4.773 -0.4595  0.8333 -0.6154
  110MOL   H15628714   6.146   5.807   4.580  1.6704 -0.0207  0.9049
  110MOL   H15728715   6.227   5.935   4.488 -0.8322 -1.2086 -0.9867
  110MOL   C15828716   6.058   5.997   4.607  0.8784  0.1408 -0.7157
  110MOL   C15928717   5.967   5.999   4.481  0.2045 -0.1850  0.1537
  110MOL   C16028718   5.981   6.080   4.373  0.0033  0.0350  0.0311
  110MOL   C16128719   6.107   6.164   4.344  0.3840  0.4933 -0.1605
  110MOL   C16228720   5.888   6.063   4.254  0.0346  0.1934  0.1237
  110MOL   H16328721   6.102   6.093   4.631  0.3802  0.2268 -0.1301
  110MOL   H16428722   6.011   5.955   4.697  1.3744  3.5942  1.2343
  110MOL   H16528723   5.881   5.934   4.492 -0.4893  0.8197  0.6693
  110MOL   H16628724   6.182   6.119   4.279  1.9834  0.3824  1.6820
  110MOL   H16728725   6.163   6.190   4.434 -1.1194 -1.5368  1.4022
  110MOL   H16828726   6.065   6.257   4.306  1.2204  1.2507  0.7357
  110MOL   H16928727   5.864   6.160   4.210  1.8320  0.2867 -0.7153
  110MOL   H17028728   5.795   6.016   4.285  0.0642 -0.2644 -0.4639
  110MOL   C17128729   5.940   5.985   4.133 -0.2909 -0.3969 -0.0860
  110MOL   C17228730   5.843   6.002   4.015  0.1647 -1.1111  0.5664
  110MOL   C17328731   5.861   5.951   3.893 -0.4666  0.1679  1.0356
  110MOL   C17428732   5.991   5.878   3.858 -0.0544  0.2233  0.2828
  110MOL   C17528733   5.766   5.985   3.789 -0.1135  0.6506  0.3967
  110MOL   H17628734   5.951   5.879   4.154 -0.4455 -0.4934 -0.4831
  110MOL   H17728735   6.038   6.029   4.115  0.0524 -1.9775 -2.2963
  110MOL   H17828736   5.759   6.066   4.037  2.1082  1.4143  0.8134
  110MOL   H17928737   5.980   5.771   3.880 -0.7123 -0.0527 -1.3208
  110MOL   H18028738   6.083   5.906   3.909 -0.4652 -0.3862  1.3730
  110MOL   H18128739   6.012   5.897   3.753  0.6916 -3.4644 -0.2998
  110MOL   H18228740   5.664   5.951   3.808  0.4629 -0.9651  0.6672
  110MOL   H18328741   5.780   5.914   3.707 -1.1391 -0.6860  1.3531
  110MOL   C18428742   5.770   6.131   3.746 -0.0738  0.2463 -0.2221
  110MOL   C18528743   5.692   6.147   3.619  0.3654 -0.5496 -0.4488
  110MOL   C18628744   5.732   6.211   3.505  0.4804 -0.7640  0.4880
  110MOL   C18728745   5.647   6.203   3.379 -0.3357 -0.0976 -0.5953
  110MOL   C18828746   5.859   6.292   3.498  0.5073 -0.1065 -0.3089
  110MOL   H18928747   5.875   6.152   3.727 -0.4053  1.2636 -0.9520
  110MOL   H19028748   5.731   6.193   3.826 -1.1643 -0.8887  0.1352
  110MOL   H19128749   5.601   6.088   3.614  0.7018 -0.9977 -1.5105
  110MOL   H19228750   5.561   6.139   3.398  0.8572 -1.3748  0.5126
  110MOL   H19328751   5.694   6.162   3.290 -0.6248 -0.3136 -0.6475
  110MOL   H19428752   5.603   6.298   3.346  2.1887  0.5150 -2.3650
  110MOL   H19528753   5.885   6.313   3.602  0.8016 -3.5905  0.3882
  110MOL   H19628754   5.839   6.390   3.455 -1.3646 -0.6091 -0.5973
  110MOL   C19728755   5.979   6.219   3.441  0.0852 -0.1682 -0.2631
  110MOL   C19828756   6.087   6.320   3.426 -0.2709 -0.5595 -0.2721
  110MOL   C19928757   6.138   6.371   3.307 -0.3877 -0.1528 -0.1046
  110MOL   C20028758   6.256   6.467   3.301 -0.6015 -0.3383  0.1179
  110MOL   C20128759   6.067   6.341   3.169 -0.1786  0.0478  0.1347
  110MOL   H20228760   5.952   6.186   3.341  2.2098  1.2767 -1.3536
  110MOL   H20328761   6.011   6.141   3.509 -0.1160  1.9752  2.3710
  110MOL   H20428762   6.143   6.341   3.517  1.5611  1.7793 -1.8639
  110MOL   H20528763   6.294   6.504   3.396  0.0644 -2.0590  0.5352
  110MOL   H20628764   6.236   6.547   3.230  1.1946 -0.8949 -1.0677
  110MOL   H20728765   6.329   6.401   3.253 -2.9424 -3.3664  0.6128
  110MOL   H20828766   6.032   6.238   3.156  0.7238 -0.3695  0.9757
  110MOL   H20928767   6.146   6.340   3.093  1.8256  0.4203  2.1591
  110MOL   C21028768   5.957   6.441   3.132  0.2502  0.5475  0.5483
  110MOL   C21128769   5.921   6.441   2.985 -0.0948 -0.1092 -0.3316
  110MOL   C21228770   5.801   6.436   2.926  0.4796  0.0240  1.0662
  110MOL   C21328771   5.793   6.467   2.780  0.0307  0.4631  1.0867
  110MOL   C21428772   5.665   6.416   2.994  0.5128  0.2119 -0.1521
  110MOL   H21528773   5.993   6.541   3.153 -0.7597  0.6283  1.9670
  110MOL   H21628774   5.874   6.443   3.203 -0.9778  1.5396 -0.8993
  110MOL   H21728775   6.007   6.459   2.923  0.3053  2.1397  0.7986
  110MOL   H21828776   5.766   6.371   2.737  1.8173 -0.8309  2.7496
  110MOL   H21928777   5.888   6.495   2.734  0.0459 -0.5737  0.4609
  110MOL   H22028778   5.712   6.537   2.762  0.5368  1.3808  2.2631
  110MOL   H22128779   5.674   6.350   3.080  0.8877  0.2848 -0.1356
  110MOL   H22228780   5.603   6.355   2.927  3.2507 -1.4726 -1.2357
  110MOL   C22328781   5.610   6.556   3.031 -0.1246  0.0137 -0.2281
  110MOL   C22428782   5.481   6.534   3.097  0.8845  0.1349 -0.1952
  110MOL   C22528783   5.358   6.533   3.044 -1.0742 -0.2428 -0.4227
  110MOL   C22628784   5.240   6.497   3.127 -0.3161  0.0434 -0.0246
  110MOL   C22728785   5.321   6.601   2.919  0.3168  0.8223 -0.1400
  110MOL   H22828786   5.600   6.615   2.940  0.5133  1.7051  0.7744
  110MOL   H22928787   5.680   6.601   3.101  0.4858  0.8993 -1.3810
  110MOL   H23028788   5.497   6.482   3.190 -1.7388  0.2885  0.3858
  110MOL   H23128789   5.174   6.581   3.149 -2.7807 -1.9524  0.3899
  110MOL   H23228790   5.248   6.434   3.215  1.7759  0.6885  0.2778
  110MOL   H23328791   5.177   6.433   3.065 -0.6889  0.3334  0.0542
  110MOL   H23428792   5.395   6.671   2.881  0.7813 -0.4993 -1.7454
  110MOL   H23528793   5.238   6.667   2.943  0.2100  0.1680  1.3614
  110MOL   C23628794   5.289   6.505   2.803 -0.2517 -0.1486  0.1045
  110MOL   C23728795   5.242   6.566   2.676 -0.2790 -0.4582 -0.1817
  110MOL   C23828796   5.300   6.545   2.553  0.4571  0.1240 -0.1020
  110MOL   C23928797   5.231   6.602   2.434 -0.1557  0.6034 -0.5037
  110MOL   C24028798   5.418   6.449   2.525 -0.3176  0.1817 -0.4641
  110MOL   H24128799   5.213   6.431   2.830  1.4134 -1.8220  0.3499
  110MOL   H24228800   5.383   6.453   2.786 -1.0246 -1.9351  1.0842
  110MOL   H24328801   5.154   6.627   2.689 -1.3362 -1.2826 -3.1506
  110MOL   H24428802   5.167   6.532   2.381  2.8480 -3.1046  0.5400
  110MOL   H24528803   5.292   6.648   2.357  0.3048  0.0193 -0.4915
  110MOL   H24628804   5.169   6.681   2.477 -3.1649 -0.6382 -2.4422
  110MOL   H24728805   5.377   6.349   2.515 -0.3070  0.2231 -0.9408
  110MOL   H24828806   5.483   6.454   2.613  0.5197 -0.0559 -1.0588
  110MOL   C24928807   5.499   6.490   2.404 -0.2202 -0.4208  0.3569
  110MOL   C25028808   5.613   6.404   2.376  0.4088  0.1220  0.9480
  110MOL   C25128809   5.745   6.423   2.366 -0.4307 -0.7039 -0.2538
  110MOL   C25228810   5.835   6.307   2.334 -0.4038 -0.5194  0.0700
  110MOL   C25328811   5.807   6.550   2.398 -0.1237 -0.1586  0.7189
  110MOL   H25428812   5.535   6.592   2.421  0.7186 -0.7127  0.1259
  110MOL   H25528813   5.436   6.494   2.315 -0.8371 -3.1475  0.6344
  110MOL   H25628814   5.577   6.303   2.367  0.1406 -0.0646  3.7227
  110MOL   H25728815   5.866   6.303   2.230 -0.2437 -1.5687  0.1512
  110MOL   H25828816   5.776   6.216   2.348  0.3049 -0.7779  1.5113
  110MOL   H25928817   5.906   6.308   2.417 -3.0301  2.0304  2.4173
  110MOL   H26028818   5.893   6.561   2.332  0.5763 -3.4181  1.0428
  110MOL   H26128819   5.837   6.557   2.503 -0.4578  0.4070  0.7824
  110MOL   H26228820   5.742   6.631   2.364  1.6358  0.0852 -2.1597
  111MOL     C128821   0.805   1.335   5.512 -0.2715 -0.6033 -0.8350
  111MOL     C228822   0.911   1.238   5.546  0.0860 -0.3110  0.0172
  111MOL     C328823   1.029   1.262   5.608 -0.0140  0.0580 -0.4811
  111MOL     C428824   1.134   1.155   5.613  0.7084 -0.0097  0.5206
  111MOL     C528825   1.078   1.400   5.653 -0.3713 -0.5558  0.5938
  111MOL     H628826   0.783   1.352   5.407 -1.2043  0.1634 -0.5178
  111MOL     H728827   0.707   1.309   5.552  0.2771 -1.8271 -0.2303
  111MOL     H828828   0.876   1.143   5.508 -2.3451 -0.2255  1.9089
  111MOL     H928829   1.228   1.180   5.564  0.4668 -1.5579 -0.8053
  111MOL    H1028830   1.104   1.067   5.556 -0.3172 -0.4285  1.6928
  111MOL    H1128831   1.165   1.130   5.714  0.7130 -1.4432  0.1756
  111MOL    H1228832   1.146   1.369   5.732 -1.1611 -0.0791  1.4771
  111MOL    H1328833   0.995   1.457   5.696 -1.4856 -2.2225  0.7043
  111MOL    H1428834   0.821   1.434   5.555 -0.4196  0.0501 -2.2861
  111MOL    C1528835   1.156   1.471   5.537 -0.2415  0.0126 -0.0971
  111MOL    C1628836   1.191   1.615   5.573  1.1555  0.7403 -0.1134
  111MOL    C1728837   1.308   1.671   5.597 -0.3407 -0.4460  0.5435
  111MOL    C1828838   1.318   1.822   5.631  0.3129 -0.2397 -0.4534
  111MOL    C1928839   1.437   1.601   5.602  0.3052 -0.0826  0.1134
  111MOL    H2028840   1.084   1.468   5.455  0.2972 -0.5700 -0.5595
  111MOL    H2128841   1.239   1.404   5.516  1.7300  2.7379 -1.3029
  111MOL    H2228842   1.107   1.683   5.579 -0.0207 -0.7549  1.0167
  111MOL    H2328843   1.239   1.882   5.587  0.6339  1.6756  1.5116
  111MOL    H2428844   1.405   1.866   5.582  0.2510  0.3345 -0.0490
  111MOL    H2528845   1.330   1.844   5.737 -0.9865 -0.4739 -0.2550
  111MOL    H2628846   1.425   1.494   5.618  2.9801 -0.5722 -0.8773
  111MOL    H2728847   1.498   1.631   5.687 -0.4485 -0.8813  0.9382
  111MOL    C2828848   1.521   1.614   5.477 -0.3373  0.5536  0.4505
  111MOL    C2928849   1.630   1.508   5.482 -0.5577  1.0099  0.1600
  111MOL    C3028850   1.752   1.521   5.428 -0.1443  0.1580  0.0045
  111MOL    C3128851   1.847   1.401   5.424 -0.5244 -0.3229  0.0668
  111MOL    C3228852   1.798   1.641   5.347  0.2944 -0.0074  0.4010
  111MOL    H3328853   1.554   1.717   5.467 -0.5949  0.3854 -2.4869
  111MOL    H3428854   1.454   1.584   5.397 -0.3498  1.0489  0.2768
  111MOL    H3528855   1.615   1.411   5.526 -0.8880  0.7367 -0.5497
  111MOL    H3628856   1.808   1.332   5.498  0.1024  1.9627  2.6274
  111MOL    H3728857   1.948   1.422   5.461 -0.9829  0.8806  0.6643
  111MOL    H3828858   1.843   1.360   5.323  2.0810 -1.0868  0.2413
  111MOL    H3928859   1.739   1.731   5.366 -0.4744 -0.5739  0.6982
  111MOL    H4028860   1.797   1.614   5.241  0.1345 -0.4749  0.5205
  111MOL    C4128861   1.942   1.680   5.385  0.5929  0.1023  0.1692
  111MOL    C4228862   1.979   1.820   5.333  0.7420  0.2343 -0.6716
  111MOL    C4328863   2.048   1.916   5.402 -0.3088  0.5969  0.1630
  111MOL    C4428864   2.071   2.044   5.329  0.5641  0.1350 -0.5001
  111MOL    C4528865   2.114   1.899   5.539  0.4200 -1.0616  0.4005
  111MOL    H4628866   2.018   1.611   5.350 -0.1474 -0.5129 -0.2313
  111MOL    H4728867   1.959   1.688   5.492 -1.3184  2.8820  0.3053
  111MOL    H4828868   1.947   1.841   5.232  1.0413  3.0688 -0.1996
  111MOL    H4928869   2.162   2.042   5.269  1.3465  0.3473  0.6574
  111MOL    H5028870   2.093   2.117   5.407  0.8203  1.3508 -1.6979
  111MOL    H5128871   1.987   2.092   5.279 -0.8235 -0.0209  1.6364
  111MOL    H5228872   2.219   1.926   5.529 -0.0594  0.0050 -2.0490
  111MOL    H5328873   2.121   1.791   5.556 -4.7977 -1.4922  0.6962
  111MOL    C5428874   2.053   1.983   5.654 -0.1021 -0.3743  0.7275
  111MOL    C5528875   1.913   1.933   5.697  0.4195  0.1352 -0.1708
  111MOL    C5628876   1.794   1.995   5.677  0.6343  0.2923  0.5027
  111MOL    C5728877   1.666   1.923   5.715  0.2491  0.0523 -0.0962
  111MOL    C5828878   1.777   2.135   5.623  0.0350 -0.2917 -0.5631
  111MOL    H5928879   2.060   2.086   5.617 -1.1170  0.2103  2.0817
  111MOL    H6028880   2.125   1.991   5.735  0.3262 -1.5002  0.4591
  111MOL    H6128881   1.905   1.829   5.726  0.0721 -0.3982 -2.1189
  111MOL    H6228882   1.583   1.994   5.710  0.6332  0.5471  0.4701
  111MOL    H6328883   1.683   1.894   5.819 -0.8416  1.9331  0.6198
  111MOL    H6428884   1.643   1.828   5.666 -0.9473  0.0435  0.4555
  111MOL    H6528885   1.693   2.139   5.554  1.1586  0.2938 -1.9075
  111MOL    H6628886   1.869   2.157   5.570 -0.7254 -2.3211 -2.8129
  111MOL    C6728887   1.757   2.240   5.736 -0.0341 -0.1149  0.2199
  111MOL    C6828888   1.785   2.381   5.679 -0.4845 -0.0540 -0.0058
  111MOL    C6928889   1.704   2.478   5.643 -0.2769 -0.2161 -0.0694
  111MOL    C7028890   1.760   2.617   5.603 -0.1312  0.3121 -0.3875
  111MOL    C7128891   1.554   2.463   5.632 -0.0934 -0.0847 -0.2094
  111MOL    H7228892   1.817   2.228   5.827 -0.4639  0.3283  0.5647
  111MOL    H7328893   1.651   2.240   5.762 -0.6188  1.4665 -2.0448
  111MOL    H7428894   1.890   2.401   5.665 -1.1918  2.7106 -1.6803
  111MOL    H7528895   1.752   2.621   5.495 -0.7954  1.0575 -0.3107
  111MOL    H7628896   1.867   2.628   5.622 -0.0013 -0.3646 -0.6865
  111MOL    H7728897   1.702   2.692   5.655  0.6612  1.2947 -0.9089
  111MOL    H7828898   1.522   2.559   5.674  1.0568 -0.6253  1.9733
  111MOL    H7928899   1.503   2.401   5.705  1.3038  1.0571  1.7859
  111MOL    C8028900   1.510   2.430   5.487 -0.4062  0.5611  0.6483
  111MOL    C8128901   1.360   2.448   5.474  0.4748  0.4807  0.1323
  111MOL    C8228902   1.261   2.354   5.488  0.9661 -0.0582 -0.3151
  111MOL    C8328903   1.281   2.218   5.556 -0.2016 -0.4357 -0.2167
  111MOL    C8428904   1.115   2.396   5.467  0.3273  0.2193 -0.0457
  111MOL    H8528905   1.536   2.325   5.469 -0.0692  0.7766 -0.1132
  111MOL    H8628906   1.568   2.489   5.417 -0.5196  0.1154  0.1713
  111MOL    H8728907   1.337   2.544   5.430 -1.6075  0.7499  1.7481
  111MOL    H8828908   1.384   2.209   5.592 -0.4770 -0.6111  0.5265
  111MOL    H8928909   1.263   2.135   5.488  0.3829 -0.7968  0.0637
  111MOL    H9028910   1.212   2.226   5.640 -2.9610  1.8464 -2.6340
  111MOL    H9128911   1.104   2.487   5.408 -1.3037  0.8119  1.1595
  111MOL    H9228912   1.075   2.420   5.565  1.1473  0.8118  0.1492
  111MOL    C9328913   1.034   2.288   5.388 -0.1252  0.1150 -0.5827
  111MOL    C9428914   1.084   2.254   5.250  0.0892 -0.0561  0.4732
  111MOL    C9528915   1.023   2.239   5.131  0.5115 -0.2872  0.2029
  111MOL    C9628916   1.087   2.215   4.998  0.0537  0.5567  0.9686
  111MOL    C9728917   0.868   2.233   5.123 -0.3672 -0.0694 -0.4294
  111MOL    H9828918   0.928   2.316   5.391 -0.3922 -0.8078 -1.1903
  111MOL    H9928919   1.039   2.197   5.448  1.5391  1.7848  1.9028
  111MOL   H10028920   1.191   2.255   5.267 -0.3706  2.7552  3.5591
  111MOL   H10128921   1.059   2.289   4.924 -1.8319 -1.7332 -0.6706
  111MOL   H10228922   1.195   2.228   5.003  0.1171  1.0711 -1.2851
  111MOL   H10328923   1.063   2.115   4.961 -1.2672  1.9984 -2.1984
  111MOL   H10428924   0.822   2.211   5.219 -1.1718 -2.2882 -1.2991
  111MOL   H10528925   0.840   2.154   5.053  0.8625  2.0589 -3.4541
  111MOL   C10628926   0.812   2.368   5.071 -0.1495  0.9057  0.1613
  111MOL   C10728927   0.860   2.500   5.138 -0.0251  0.1338  0.1463
  111MOL   C10828928   0.783   2.601   5.187 -0.4161 -0.2480  0.8344
  111MOL   C10928929   0.632   2.600   5.195 -0.8148  0.0749  0.6038
  111MOL   C11028930   0.852   2.736   5.227  0.2144  0.2185 -0.1636
  111MOL   H11128931   0.704   2.363   5.058 -0.2514 -0.6054  1.4069
  111MOL   H11228932   0.838   2.382   4.967 -0.9121  1.0427 -0.0166
  111MOL   H11328933   0.968   2.505   5.147 -0.2596  1.7355  2.3184
  111MOL   H11428934   0.595   2.636   5.098 -0.4647 -0.4666  0.2678
  111MOL   H11528935   0.608   2.494   5.206 -0.0670 -0.2433 -0.7466
  111MOL   H11628936   0.602   2.665   5.277  2.0725  0.0518  1.7245
  111MOL   H11728937   0.940   2.720   5.290 -0.8109 -0.0572  1.2454
  111MOL   H11828938   0.786   2.768   5.308 -1.3086 -0.8815 -0.9507
  111MOL   C11928939   0.867   2.834   5.112 -0.6729  0.2624  0.2988
  111MOL   C12028940   0.904   2.969   5.153 -0.7333 -0.2783 -0.7833
  111MOL   C12128941   1.028   3.019   5.168  0.0693  0.3933  0.0012
  111MOL   C12228942   1.039   3.168   5.209  0.5547  0.1928 -0.5140
  111MOL   C12328943   1.157   2.938   5.150  0.0162 -0.5171  0.8084
  111MOL   H12428944   0.777   2.840   5.050 -0.0707 -0.0801 -0.6065
  111MOL   H12528945   0.947   2.795   5.050 -0.1936 -0.3713  1.3010
  111MOL   H12628946   0.817   3.025   5.183 -0.0460  0.2434  0.2938
  111MOL   H12728947   0.941   3.216   5.203  1.2264  2.0701  2.5109
  111MOL   H12828948   1.100   3.219   5.134 -2.2074  0.7667 -2.4360
  111MOL   H12928949   1.065   3.183   5.314 -0.4089  1.9789 -0.5174
  111MOL   H13028950   1.205   2.953   5.054 -0.2380 -0.8964  0.6207
  111MOL   H13128951   1.150   2.830   5.140 -4.2655 -0.2334 -0.0350
  111MOL   C13228952   1.256   2.983   5.252  0.3033  0.1948  0.5447
  111MOL   C13328953   1.385   2.902   5.267  0.7144  0.1530  0.5863
  111MOL   C13428954   1.463   2.914   5.373  0.0780 -0.6055  0.1327
  111MOL   C13528955   1.589   2.823   5.374 -0.8100  0.6006  0.7955
  111MOL   C13628956   1.440   3.010   5.487 -0.3659  0.0038 -0.0119
  111MOL   H13728957   1.205   2.959   5.345  0.2075 -2.1153 -0.0688
  111MOL   H13828958   1.289   3.086   5.242 -0.9524  0.7307  1.8888
  111MOL   H13928959   1.398   2.833   5.184  0.0088  0.3693  0.2950
  111MOL   H14028960   1.686   2.874   5.370  0.0956 -1.1359  0.1521
  111MOL   H14128961   1.577   2.748   5.296  1.2353 -0.1826  1.1994
  111MOL   H14228962   1.588   2.767   5.467 -2.2331  2.0974  1.6980
  111MOL   H14328963   1.350   3.071   5.478 -0.5736 -0.3703 -0.4565
  111MOL   H14428964   1.512   3.092   5.492 -1.2207  0.7805 -0.2193
  111MOL   C14528965   1.434   2.945   5.621  0.2111  0.2353  0.2400
  111MOL   C14628966   1.398   3.051   5.733  0.1498 -0.1371 -0.9388
  111MOL   C14728967   1.468   3.089   5.843  0.6066  0.0835 -0.0099
  111MOL   C14828968   1.405   3.176   5.952  0.4650 -0.1867  0.8997
  111MOL   C14928969   1.606   3.039   5.866  0.3295  0.4766 -0.0471
  111MOL   H15028970   1.531   2.902   5.643  0.1279 -0.0558  0.0363
  111MOL   H15128971   1.368   2.859   5.627  2.8284 -1.7905  1.1106
  111MOL   H15228972   1.296   3.085   5.721  0.0856  0.9503  2.3119
  111MOL   H15328973   1.423   3.282   5.933 -1.7284  0.0124 -0.2130
  111MOL   H15428974   1.440   3.153   6.053 -0.0373  2.3662  1.6989
  111MOL   H15528975   1.298   3.159   5.958 -0.2779  1.8570 -4.0609
  111MOL   H15628976   1.636   2.952   5.808  0.3487 -0.7937  1.8512
  111MOL   H15728977   1.629   3.021   5.971 -1.0299  0.9094  0.3303
  111MOL   C15828978   1.700   3.158   5.833 -0.2119 -0.2063 -0.4559
  111MOL   C15928979   1.832   3.129   5.890 -0.0620  0.3206 -0.4069
  111MOL   C16028980   1.913   3.219   5.951 -0.8124  0.0198  0.8404
  111MOL   C16128981   1.876   3.364   5.972  0.1581 -0.4806  0.0650
  111MOL   C16228982   2.053   3.187   5.999  0.4902 -0.5387  0.1437
  111MOL   H16328983   1.650   3.246   5.874 -0.9138  0.2139 -2.1624
  111MOL   H16428984   1.714   3.168   5.726 -0.4643 -2.5809 -0.7189
  111MOL   H16528985   1.866   3.028   5.875 -1.3839 -0.2806  0.6039
  111MOL   H16628986   1.768   3.376   5.975  0.2040 -0.4193  2.2381
  111MOL   H16728987   1.923   3.434   5.903 -1.9810  0.4575 -0.4700
  111MOL   H16828988   1.895   3.394   6.075  0.5933  0.2732 -0.2347
  111MOL   H16928989   2.078   3.255   6.081 -0.2084 -2.4427  1.9766
  111MOL   H17028990   2.116   3.205   5.912  0.4911  1.6911  0.5693
  111MOL   C17128991   2.069   3.042   6.046 -0.2718 -0.2162 -0.1138
  111MOL   C17228992   2.197   3.027   6.131 -0.8101 -0.0651  0.0185
  111MOL   C17328993   2.255   2.910   6.155  0.7531  0.4715 -0.0245
  111MOL   C17428994   2.211   2.781   6.090  0.1260 -0.2002  0.1813
  111MOL   C17528995   2.372   2.892   6.250 -0.3350 -0.9189 -0.2914
  111MOL   H17628996   2.073   2.968   5.966  2.0856 -0.5374  0.2612
  111MOL   H17728997   1.992   3.027   6.122 -0.4024  1.3066  0.0709
  111MOL   H17828998   2.240   3.105   6.192 -0.6836 -2.8108  3.5778
  111MOL   H17928999   2.209   2.795   5.982 -0.4582 -2.5382 -0.1322
  111MOL   H18029000   2.109   2.751   6.116 -0.3559  1.9908  0.9183
  111MOL   H18129001   2.276   2.699   6.120  1.0489  0.4257 -0.0995
  111MOL   H18229002   2.346   2.809   6.316  1.4601  0.2963  2.0296
  111MOL   H18329003   2.396   2.980   6.311  1.3588  0.0177 -2.2573
  111MOL   C18429004   2.497   2.838   6.180 -0.1141  0.3071 -0.5383
  111MOL   C18529005   2.575   2.949   6.107  0.4573  0.3541 -0.5412
  111MOL   C18629006   2.682   2.926   6.023 -0.0693 -0.0125  0.9754
  111MOL   C18729007   2.753   3.051   5.963 -0.4936 -0.1910  0.1356
  111MOL   C18829008   2.754   2.790   5.996  0.3108 -0.0288  0.8470
  111MOL   H18929009   2.475   2.753   6.115 -0.6500  1.3136 -1.7006
  111MOL   H19029010   2.549   2.789   6.263  2.3745 -0.9839 -2.7550
  111MOL   H19129011   2.536   3.048   6.122 -0.4039 -0.1690  0.8308
  111MOL   H19229012   2.675   3.127   5.960 -0.8867 -0.6222 -0.5780
  111MOL   H19329013   2.782   3.027   5.861 -1.6144 -0.3308 -0.1506
  111MOL   H19429014   2.843   3.088   6.012  0.7905 -0.5240 -1.9492
  111MOL   H19529015   2.713   2.746   5.906  2.4857 -1.7838  0.6687
  111MOL   H19629016   2.714   2.724   6.073 -4.1858  0.6161 -0.7851
  111MOL   C19729017   2.907   2.800   6.022 -0.0377  0.5074  0.5596
  111MOL   C19829018   2.956   2.804   6.167 -0.2541  1.2197  0.6012
  111MOL   C19929019   3.075   2.764   6.218  0.1558  0.7527 -0.0162
  111MOL   C20029020   3.096   2.753   6.368  0.2256 -0.3064 -0.4879
  111MOL   C20129021   3.196   2.732   6.135 -0.2721 -0.1352 -0.0264
  111MOL   H20229022   2.946   2.884   5.965  0.1791  2.2848  3.2495
  111MOL   H20329023   2.937   2.702   5.982 -1.2819 -0.3321  1.6483
  111MOL   H20429024   2.879   2.830   6.237 -1.2404  0.1626 -0.0769
  111MOL   H20529025   3.172   2.822   6.405  1.3117 -0.3653 -2.5396
  111MOL   H20629026   3.113   2.649   6.393  3.0926  0.2542  0.0543
  111MOL   H20729027   3.002   2.783   6.414 -0.2945 -2.5514 -0.0303
  111MOL   H20829028   3.278   2.797   6.163 -0.0390 -0.2486 -0.4364
  111MOL   H20929029   3.189   2.762   6.030  0.9672  1.7618  0.4203
  111MOL   C21029030   3.233   2.581   6.140  0.1317 -0.6228 -0.2969
  111MOL   C21129031   3.367   2.555   6.069  0.1291  0.0032  0.2149
  111MOL   C21229032   3.388   2.472   5.962 -0.2334 -1.3785 -0.3564
  111MOL   C21329033   3.526   2.464   5.903 -0.1539  1.1148 -0.9229
  111MOL   C21429034   3.274   2.396   5.897 -0.0186  0.0377  0.2053
  111MOL   H21529035   3.147   2.521   6.114  0.7126 -1.8212  0.5100
  111MOL   H21629036   3.254   2.558   6.244 -0.2748  2.1178  0.4391
  111MOL   H21729037   3.446   2.612   6.117 -1.3791  1.1361  1.4100
  111MOL   H21829038   3.525   2.522   5.811 -0.9862  1.6652 -0.5697
  111MOL   H21929039   3.537   2.359   5.878 -0.2434  0.4451  1.6848
  111MOL   H22029040   3.610   2.490   5.967 -2.5392 -0.5317  3.0517
  111MOL   H22129041   3.269   2.415   5.790  1.7451  2.2280  0.4750
  111MOL   H22229042   3.185   2.445   5.937 -0.1098 -0.8776  1.1441
  111MOL   C22329043   3.281   2.255   5.937 -0.6657  0.2361 -0.0942
  111MOL   C22429044   3.169   2.168   5.880 -0.0806  0.1674  0.1552
  111MOL   C22529045   3.189   2.049   5.819  0.0794 -0.2153 -0.3475
  111MOL   C22629046   3.078   1.967   5.769  0.1551 -0.2983  0.1661
  111MOL   C22729047   3.328   1.988   5.783  0.5373  0.4631 -0.3691
  111MOL   H22829048   3.265   2.250   6.044  0.9459 -0.0449  0.1488
  111MOL   H22929049   3.384   2.222   5.922 -1.2711 -0.8040 -2.2754
  111MOL   H23029050   3.073   2.200   5.918  0.6874 -0.3889  2.6982
  111MOL   H23129051   2.985   2.012   5.801 -0.5266 -2.4286  1.3253
  111MOL   H23229052   3.084   1.866   5.811  0.0091  0.4532  2.0388
  111MOL   H23329053   3.080   1.955   5.661  0.8163  0.4866  0.0845
  111MOL   H23429054   3.397   2.068   5.760  0.4228  0.3085 -1.2767
  111MOL   H23529055   3.314   1.937   5.687 -0.2151 -1.1854  0.5910
  111MOL   C23629056   3.381   1.888   5.883 -0.8109 -0.1972 -0.1117
  111MOL   C23729057   3.521   1.845   5.852 -0.3928 -0.2748 -0.1691
  111MOL   C23829058   3.591   1.740   5.900 -0.7566  0.2674 -0.2397
  111MOL   C23929059   3.723   1.691   5.837 -0.1609  0.6255  0.1089
  111MOL   C24029060   3.522   1.642   5.996  0.4834 -0.8941 -0.2684
  111MOL   H24129061   3.308   1.807   5.890 -1.1619  0.3486  3.1902
  111MOL   H24229062   3.385   1.935   5.981  1.6862  1.8051 -1.1246
  111MOL   H24329063   3.568   1.889   5.766 -1.6341 -1.3555 -1.4081
  111MOL   H24429064   3.786   1.770   5.795  2.5483 -0.8020  1.3541
  111MOL   H24529065   3.708   1.625   5.752 -2.1045 -0.1739  1.0491
  111MOL   H24629066   3.781   1.631   5.906  0.6230  1.9545  0.6221
  111MOL   H24729067   3.434   1.679   6.049 -1.3778 -3.1861 -1.6360
  111MOL   H24829068   3.593   1.617   6.075 -0.4970 -0.3352  0.7958
  111MOL   C24929069   3.462   1.522   5.920 -0.1213  0.3502 -0.1074
  111MOL   C25029070   3.390   1.428   6.008 -0.4283 -0.4712  0.2062
  111MOL   C25129071   3.262   1.427   6.048  0.5404  0.0221 -0.7146
  111MOL   C25229072   3.203   1.334   6.152 -0.1893 -0.5458 -0.0104
  111MOL   C25329073   3.162   1.534   6.003  0.0275 -0.0086  0.1422
  111MOL   H25429074   3.537   1.453   5.880  0.1687 -0.8861  2.5054
  111MOL   H25529075   3.407   1.541   5.828 -0.1450  0.6566 -0.0308
  111MOL   H25629076   3.453   1.358   6.060  0.3695 -1.3164 -1.8214
  111MOL   H25729077   3.117   1.283   6.110 -1.1642 -0.6465  2.0301
  111MOL   H25829078   3.172   1.385   6.243  0.5176 -1.4061  0.7286
  111MOL   H25929079   3.276   1.258   6.180  0.1719  0.0991  0.8417
  111MOL   H26029080   3.187   1.578   5.907 -0.4434 -3.0616 -1.4632
  111MOL   H26129081   3.178   1.616   6.073  2.3051 -1.4127  1.3443
  111MOL   H26229082   3.059   1.498   6.004  0.1051 -0.3301 -1.6768
  112MOL     C129083   2.192   1.059   2.849 -0.9442 -0.8515 -0.7120
  112MOL     C229084   2.078   1.013   2.766  0.0716  0.8448 -0.0292
  112MOL     C329085   2.024   1.064   2.661  0.1464  0.5113 -0.0662
  112MOL     C429086   1.932   0.977   2.574  0.0175 -0.9744  0.1893
  112MOL     C529087   2.045   1.205   2.601  0.5906 -0.0653 -0.7458
  112MOL     H629088   2.236   1.153   2.817 -0.7383 -0.0552  1.7467
  112MOL     H729089   2.161   1.070   2.953 -1.0070  1.8073 -0.9943
  112MOL     H829090   2.045   0.917   2.801  0.6649  1.5945  2.7221
  112MOL     H929091   1.919   0.882   2.625  1.6664 -1.3634 -0.0969
  112MOL    H1029092   1.982   0.955   2.480  0.3993 -0.4669  0.2683
  112MOL    H1129093   1.836   1.025   2.556 -0.3070 -0.9792  1.8105
  112MOL    H1229094   2.058   1.274   2.684  1.6922 -1.3208  0.1621
  112MOL    H1329095   1.960   1.242   2.544 -1.0782 -0.5523  1.3487
  112MOL    H1429096   2.278   0.991   2.850  0.2305  0.6166 -0.2429
  112MOL    C1529097   2.173   1.210   2.513 -0.1294 -0.2229  0.0588
  112MOL    C1629098   2.209   1.355   2.470  0.1132 -0.2470  0.3424
  112MOL    C1729099   2.324   1.422   2.489 -0.9533  0.9953  0.1450
  112MOL    C1829100   2.345   1.562   2.447 -0.5906 -0.3341  0.1375
  112MOL    C1929101   2.447   1.368   2.563  0.3638  0.2142 -0.2012
  112MOL    H2029102   2.160   1.148   2.425  0.4243 -1.3844  0.7759
  112MOL    H2129103   2.254   1.165   2.571 -0.3522 -0.8621 -0.1158
  112MOL    H2229104   2.132   1.404   2.413  0.2809  0.8443  1.0226
  112MOL    H2329105   2.257   1.626   2.446 -2.2185 -2.5075 -1.3932
  112MOL    H2429106   2.403   1.563   2.356 -0.8036 -0.0470  0.0058
  112MOL    H2529107   2.406   1.623   2.513  0.1630 -1.9652  0.9991
  112MOL    H2629108   2.533   1.404   2.505 -0.8448  2.8455 -0.4215
  112MOL    H2729109   2.438   1.259   2.565 -0.2147  0.2784  0.8325
  112MOL    C2829110   2.435   1.414   2.709  0.6890 -0.0386 -0.0519
  112MOL    C2929111   2.512   1.323   2.810 -0.3558 -0.3775 -0.2214
  112MOL    C3029112   2.628   1.352   2.874  0.0262  0.0086 -0.2427
  112MOL    C3129113   2.700   1.255   2.961 -0.4692  0.4671  0.4151
  112MOL    C3229114   2.709   1.482   2.851 -0.0290  1.1414  0.5980
  112MOL    H3329115   2.336   1.411   2.753 -0.3700 -0.5951 -2.3756
  112MOL    H3429116   2.473   1.514   2.729 -0.8006  0.3677  0.7568
  112MOL    H3529117   2.464   1.227   2.825  4.5109 -3.2217 -1.7141
  112MOL    H3629118   2.745   1.299   3.050  0.4214  0.0708  0.1673
  112MOL    H3729119   2.781   1.218   2.898 -0.3137 -0.5834  1.2299
  112MOL    H3829120   2.635   1.172   2.988  0.9316 -0.9610 -0.4936
  112MOL    H3929121   2.682   1.532   2.758 -0.3489  3.0825  1.7056
  112MOL    H4029122   2.812   1.448   2.839  0.4491  2.6307  0.3297
  112MOL    C4129123   2.712   1.591   2.964 -0.1580  0.2672  0.4298
  112MOL    C4229124   2.575   1.651   2.984 -0.3395  0.2316 -0.6622
  112MOL    C4329125   2.542   1.778   2.992 -0.3772  0.2340 -0.3698
  112MOL    C4429126   2.390   1.808   3.012  0.6385  0.2679 -1.1329
  112MOL    C4529127   2.639   1.894   2.985 -0.3259  0.3178 -0.2538
  112MOL    H4629128   2.783   1.671   2.940 -0.6432  0.4314 -0.4925
  112MOL    H4729129   2.739   1.535   3.053  0.6931  1.2739  0.8124
  112MOL    H4829130   2.490   1.584   2.987  0.7704 -1.1646 -0.3056
  112MOL    H4929131   2.368   1.861   3.105  1.0578  1.5244 -1.7296
  112MOL    H5029132   2.317   1.730   2.993  1.2103 -0.0074 -2.1986
  112MOL    H5129133   2.356   1.878   2.935 -0.4899  0.4252 -0.4992
  112MOL    H5229134   2.744   1.871   3.002 -0.9414 -1.4401  1.3294
  112MOL    H5329135   2.614   1.958   3.070  0.3535 -2.2609  1.9360
  112MOL    C5429136   2.632   1.968   2.853  0.0305 -0.1238  0.6600
  112MOL    C5529137   2.691   1.891   2.740  0.3098 -0.2127  0.4181
  112MOL    C5629138   2.651   1.903   2.612  0.1906 -0.3457  0.6073
  112MOL    C5729139   2.705   1.810   2.509  0.5238  0.0892  0.2795
  112MOL    C5829140   2.552   2.007   2.565 -0.7756  0.5118 -0.1848
  112MOL    H5929141   2.689   2.060   2.841  0.0742 -0.3715 -1.0990
  112MOL    H6029142   2.527   1.985   2.830  0.1744  0.9368  0.7786
  112MOL    H6129143   2.769   1.818   2.754 -0.2623 -1.1846 -1.2846
  112MOL    H6229144   2.665   1.847   2.414 -0.7775 -0.1201  0.7356
  112MOL    H6329145   2.682   1.704   2.517  0.3734  0.0010 -1.1249
  112MOL    H6429146   2.813   1.824   2.502  0.4650 -0.1709 -1.2450
  112MOL    H6529147   2.576   2.067   2.478 -0.1693 -0.8281 -0.9531
  112MOL    H6629148   2.541   2.085   2.640  0.4366  0.4396  0.0742
  112MOL    C6729149   2.418   1.944   2.529  0.1446  0.6225  0.3927
  112MOL    C6829150   2.317   2.045   2.470 -0.6758 -0.0788 -0.8024
  112MOL    C6929151   2.186   2.038   2.493  0.3154 -0.5020 -0.3416
  112MOL    C7029152   2.099   2.137   2.419  0.2314 -0.1461 -0.6079
  112MOL    C7129153   2.107   1.934   2.566 -0.1015  0.2102 -0.5106
  112MOL    H7229154   2.381   1.894   2.619  2.7864 -1.6934  0.2438
  112MOL    H7329155   2.427   1.863   2.456  0.3391  0.1294  0.9541
  112MOL    H7429156   2.351   2.134   2.419 -1.8892  0.2969 -0.9683
  112MOL    H7529157   2.020   2.084   2.366 -1.3637  0.5466  1.0154
  112MOL    H7629158   2.153   2.221   2.376 -1.2314  0.7247 -0.7479
  112MOL    H7729159   2.044   2.180   2.502  1.6826  0.8598 -0.1450
  112MOL    H7829160   2.143   1.832   2.558  1.7543  0.9352 -1.6559
  112MOL    H7929161   2.007   1.926   2.523  0.5424  2.4880 -2.5275
  112MOL    C8029162   2.119   1.958   2.720 -0.7100 -0.4386  0.2903
  112MOL    C8129163   2.029   1.865   2.799 -0.7547 -0.3549  1.0288
  112MOL    C8229164   2.052   1.738   2.825  0.6350  0.3095  0.1922
  112MOL    C8329165   2.166   1.654   2.767  0.7420  0.3174  0.4736
  112MOL    C8429166   1.950   1.670   2.905 -0.0312  0.1904 -0.2692
  112MOL    H8529167   2.076   2.052   2.753 -1.9430 -0.8598 -0.0911
  112MOL    H8629168   2.224   1.960   2.747 -0.8126  1.6334  0.6125
  112MOL    H8729169   1.943   1.917   2.837 -0.2271 -0.3116  2.1835
  112MOL    H8829170   2.226   1.608   2.845 -1.1967  0.1080  1.9025
  112MOL    H8929171   2.240   1.710   2.709 -0.0750  1.7136  0.7494
  112MOL    H9029172   2.116   1.596   2.690  2.4245 -0.8886  0.2747
  112MOL    H9129173   1.912   1.580   2.856  2.6339 -1.6286  0.8447
  112MOL    H9229174   1.866   1.738   2.915  0.5731  1.2655 -2.2447
  112MOL    C9329175   2.011   1.644   3.044  0.3295  0.1549  0.2808
  112MOL    C9429176   1.920   1.573   3.140 -0.1882  0.3670  0.1246
  112MOL    C9529177   1.913   1.444   3.168  0.5178  0.7847  1.0095
  112MOL    C9629178   1.798   1.396   3.259 -0.2279 -0.1363  0.0823
  112MOL    C9729179   1.997   1.331   3.090  1.0860  0.2993  0.1432
  112MOL    H9829180   2.026   1.746   3.081 -2.5087  0.3391  1.0184
  112MOL    H9929181   2.106   1.590   3.039  1.1137  1.3092  2.1711
  112MOL   H10029182   1.841   1.641   3.171 -0.2973  0.3609 -0.1321
  112MOL   H10129183   1.724   1.356   3.190  1.2107  1.3866 -2.4399
  112MOL   H10229184   1.834   1.312   3.319  1.8660 -0.2878 -1.3014
  112MOL   H10329185   1.762   1.476   3.323 -1.6340  0.4656 -1.4402
  112MOL   H10429186   2.069   1.367   3.016  0.5892 -0.4028 -0.6839
  112MOL   H10529187   1.936   1.265   3.028 -1.5940  1.4441  1.4816
  112MOL   C10629188   2.071   1.238   3.189  0.2616 -0.1610 -0.6682
  112MOL   C10729189   2.174   1.313   3.271  0.5305  1.1132 -0.1210
  112MOL   C10829190   2.308   1.326   3.259  0.0843  0.7621  0.2694
  112MOL   C10929191   2.391   1.258   3.151  1.0097  0.2997 -1.1096
  112MOL   C11029192   2.382   1.396   3.378  0.0467 -0.1098  0.4612
  112MOL   H11129193   2.114   1.150   3.143 -0.7242 -1.1777  0.2980
  112MOL   H11229194   1.991   1.195   3.250  1.4782 -1.5830 -0.0464
  112MOL   H11329195   2.134   1.363   3.357  1.3390 -1.6605  1.9323
  112MOL   H11429196   2.402   1.155   3.185 -1.9530 -0.1052 -1.2385
  112MOL   H11529197   2.350   1.260   3.050  0.7651  2.0002 -0.9869
  112MOL   H11629198   2.487   1.309   3.153  1.5894 -0.7965 -0.2338
  112MOL   H11729199   2.481   1.350   3.386  1.9030  2.2005 -5.7849
  112MOL   H11829200   2.317   1.395   3.465  1.7642 -0.6452  1.7527
  112MOL   C11929201   2.407   1.544   3.338  0.7014  0.3623 -0.0448
  112MOL   C12029202   2.453   1.614   3.457 -0.3534 -1.0873  0.0184
  112MOL   C12129203   2.382   1.667   3.559  0.1340 -0.3381 -0.0582
  112MOL   C12229204   2.440   1.745   3.668 -0.0155 -0.1991  0.0531
  112MOL   C12329205   2.227   1.654   3.553 -0.5385 -0.2445  0.3904
  112MOL   H12429206   2.323   1.598   3.294 -0.0815 -0.6603  0.1733
  112MOL   H12529207   2.484   1.567   3.264  0.9473  0.1154  0.1304
  112MOL   H12629208   2.561   1.622   3.456 -0.2936 -1.9095 -0.3003
  112MOL   H12729209   2.530   1.693   3.701 -1.2050 -0.4283  3.1448
  112MOL   H12829210   2.372   1.746   3.753  1.1148 -0.4193  0.9654
  112MOL   H12929211   2.462   1.846   3.633 -3.2072  0.1118 -1.1843
  112MOL   H13029212   2.193   1.580   3.626  0.5753  1.0893  2.3223
  112MOL   H13129213   2.196   1.620   3.454  1.4328  0.5055 -0.5061
  112MOL   C13229214   2.147   1.779   3.572  0.4763 -0.4928 -0.5165
  112MOL   C13329215   1.996   1.754   3.581  0.0500  0.0926  0.0511
  112MOL   C13429216   1.898   1.821   3.512  0.1723  0.3763  0.1797
  112MOL   C13529217   1.755   1.767   3.510  0.1299  0.2597  0.0421
  112MOL   C13629218   1.922   1.959   3.449  0.2251  1.0061 -0.1905
  112MOL   H13729219   2.176   1.848   3.493  0.3436 -1.1395 -1.1368
  112MOL   H13829220   2.198   1.832   3.653  0.0577  1.0502 -1.2527
  112MOL   H13929221   1.970   1.660   3.626 -2.1707  0.9091  0.5224
  112MOL   H14029222   1.686   1.826   3.570 -1.2916 -0.2379 -1.0744
  112MOL   H14129223   1.744   1.661   3.535  2.5114  0.2053  1.0213
  112MOL   H14229224   1.713   1.754   3.411 -1.8836  0.9410  0.7781
  112MOL   H14329225   2.010   2.001   3.497  0.7721 -0.6531  0.2721
  112MOL   H14429226   1.837   2.026   3.461 -1.7802 -1.2405 -1.3919
  112MOL   C14529227   1.957   1.943   3.302 -0.2357  0.1974  0.0625
  112MOL   C14629228   1.838   1.941   3.206  0.4641  0.2054 -0.3701
  112MOL   C14729229   1.794   2.043   3.133  0.7010  1.4991  0.1522
  112MOL   C14829230   1.696   2.022   3.021 -0.3373 -0.0599  0.3449
  112MOL   C14929231   1.845   2.186   3.143  0.6257  0.0406 -0.1143
  112MOL   H15029232   2.009   1.849   3.283  1.0075  1.0750 -0.9662
  112MOL   H15129233   2.029   2.016   3.263 -0.5984 -0.0586 -1.1136
  112MOL   H15229234   1.774   1.854   3.199 -0.9276  0.9155  2.7798
  112MOL   H15329235   1.599   2.069   3.036 -0.1011  0.7419 -0.5543
  112MOL   H15429236   1.676   1.918   2.999 -1.1838  0.0862  0.4165
  112MOL   H15529237   1.727   2.064   2.925 -1.2860  0.2300  0.1596
  112MOL   H15629238   1.908   2.196   3.232  2.2963  3.3494 -1.5909
  112MOL   H15729239   1.765   2.261   3.136 -1.0254 -1.4927  1.6944
  112MOL   C15829240   1.926   2.222   3.011 -0.3171  0.0916  0.4976
  112MOL   C15929241   2.006   2.350   3.021 -0.2352 -0.2263  0.1700
  112MOL   C16029242   2.139   2.360   3.030 -0.3036  0.4258 -0.3888
  112MOL   C16129243   2.228   2.241   3.006 -0.1084  0.6639  0.2060
  112MOL   C16229244   2.211   2.494   3.043  0.5581 -0.1969 -0.1905
  112MOL   H16329245   1.864   2.226   2.922  0.0912 -0.2766  0.1897
  112MOL   H16429246   1.991   2.139   2.981  1.0284  1.1799  0.3481
  112MOL   H16529247   1.944   2.439   3.028 -2.0168 -1.4202 -0.0782
  112MOL   H16629248   2.207   2.190   2.912  0.9184 -2.2685  1.4846
  112MOL   H16729249   2.230   2.167   3.086  2.0832  2.6091  2.0010
  112MOL   H16829250   2.331   2.272   2.988 -0.5581  2.6168  0.9054
  112MOL   H16929251   2.288   2.485   3.120  1.8275 -1.5189 -1.5890
  112MOL   H17029252   2.131   2.553   3.088  1.3154  0.5498  0.1896
  112MOL   C17129253   2.249   2.547   2.902  0.1682 -0.1585 -0.1110
  112MOL   C17229254   2.386   2.505   2.874 -0.3594 -0.3314 -0.1048
  112MOL   C17329255   2.426   2.412   2.781  0.1548  0.8195  0.1124
  112MOL   C17429256   2.336   2.336   2.688 -0.1445 -0.5630  0.2407
  112MOL   C17529257   2.576   2.380   2.769  0.6957 -0.2192 -0.8537
  112MOL   H17629258   2.242   2.655   2.899  0.8706 -0.1311 -0.7609
  112MOL   H17729259   2.173   2.513   2.832 -0.4865 -0.2516  0.6342
  112MOL   H17829260   2.460   2.557   2.932 -1.1160  0.3689  0.2348
  112MOL   H17929261   2.387   2.241   2.673  0.2864 -0.5934  1.7840
  112MOL   H18029262   2.334   2.389   2.592  1.2414 -1.8792 -0.5359
  112MOL   H18129263   2.233   2.312   2.715 -0.3912  1.6190  1.3518
  112MOL   H18229264   2.602   2.279   2.803 -1.0424  0.1142  1.6071
  112MOL   H18329265   2.641   2.428   2.842 -1.6061 -1.1963  1.9133
  112MOL   C18429266   2.637   2.410   2.630 -0.1194 -0.4145  0.1828
  112MOL   C18529267   2.756   2.316   2.606  0.3129  0.7189 -0.5337
  112MOL   C18629268   2.883   2.332   2.642 -0.1763  0.0429  0.2342
  112MOL   C18729269   2.992   2.228   2.612  0.4292  0.1886  0.5620
  112MOL   C18829270   2.929   2.465   2.697  0.3312  0.1258 -0.0986
  112MOL   H18929271   2.659   2.516   2.620  0.0826 -0.5421 -0.7863
  112MOL   H19029272   2.561   2.390   2.554 -1.7660 -0.5845  1.8330
  112MOL   H19129273   2.728   2.213   2.588  1.0370  0.2858  0.7935
  112MOL   H19229274   3.074   2.265   2.550  0.2301  0.2120  0.3128
  112MOL   H19329275   2.956   2.136   2.565 -2.6353  0.6904  1.7885
  112MOL   H19429276   3.024   2.193   2.710  0.8391  0.1989  0.4315
  112MOL   H19529277   2.984   2.441   2.788  1.4053  1.2853 -0.4319
  112MOL   H19629278   2.851   2.531   2.733  1.6407  2.3423 -1.2175
  112MOL   C19729279   3.031   2.537   2.605  0.2538 -0.2519 -0.5888
  112MOL   C19829280   2.953   2.638   2.521  0.2446 -0.6962 -0.3840
  112MOL   C19929281   3.009   2.740   2.453 -0.3829  0.3719 -0.2544
  112MOL   C20029282   2.918   2.835   2.377  0.1413 -0.4394  0.1111
  112MOL   C20129283   3.156   2.777   2.448 -0.1506  0.0774  0.5108
  112MOL   H20229284   3.102   2.481   2.545 -1.5432 -1.7905 -1.3252
  112MOL   H20329285   3.107   2.585   2.668  0.3606 -1.0679 -0.0844
  112MOL   H20429286   2.847   2.623   2.510 -0.5899  2.2240  3.0135
  112MOL   H20529287   2.925   2.815   2.270  0.3600 -1.2132  0.2655
  112MOL   H20629288   2.955   2.937   2.386  0.9820 -0.6808 -0.5315
  112MOL   H20729289   2.814   2.839   2.406  0.2726  0.8979  0.3981
  112MOL   H20829290   3.176   2.806   2.345 -0.0918  0.3574  0.6021
  112MOL   H20929291   3.224   2.695   2.469 -0.7221 -0.7553 -0.8453
  112MOL   C21029292   3.188   2.890   2.548 -0.0637  0.5687 -0.0335
  112MOL   C21129293   3.303   2.980   2.506 -0.0741 -0.9396  0.9033
  112MOL   C21229294   3.327   3.109   2.536  0.3090 -0.5359 -0.0408
  112MOL   C21329295   3.442   3.176   2.478 -0.7745 -0.0496  0.2861
  112MOL   C21429296   3.232   3.192   2.618 -0.5113 -0.6766  0.1816
  112MOL   H21529297   3.197   2.865   2.654  0.7352  0.0345 -0.2207
  112MOL   H21629298   3.100   2.955   2.548 -0.7263 -0.3259 -0.0759
  112MOL   H21729299   3.380   2.924   2.454  1.2097  2.6419 -1.2187
  112MOL   H21829300   3.424   3.258   2.408 -1.6989 -0.4071  0.1119
  112MOL   H21929301   3.507   3.110   2.420  0.3870  1.1845  0.1481
  112MOL   H22029302   3.500   3.212   2.563  0.7938 -2.9898  0.5381
  112MOL   H22129303   3.287   3.245   2.695 -0.4554  0.6603 -0.7479
  112MOL   H22229304   3.168   3.121   2.670 -0.8244 -1.1572 -0.8517
  112MOL   C22329305   3.159   3.307   2.546 -0.2571  0.0407  0.4844
  112MOL   C22429306   3.047   3.366   2.626 -0.3992  0.3713  0.3015
  112MOL   C22529307   2.913   3.356   2.609  0.3138  0.6491 -0.0525
  112MOL   C22629308   2.810   3.431   2.687 -0.4881 -0.0054  0.4568
  112MOL   C22729309   2.850   3.265   2.505 -0.4251  0.3298  0.7773
  112MOL   H22829310   3.126   3.287   2.444  2.0131  2.3338 -0.7711
  112MOL   H22929311   3.232   3.388   2.535 -2.0735  1.4297 -1.7035
  112MOL   H23029312   3.081   3.422   2.712  0.2020  0.5661 -0.0604
  112MOL   H23129313   2.758   3.344   2.727  0.5940 -1.4960 -1.2958
  112MOL   H23229314   2.746   3.492   2.623  0.0561 -1.3872 -1.4546
  112MOL   H23329315   2.849   3.502   2.760  1.6066  0.7111 -1.2891
  112MOL   H23429316   2.920   3.234   2.427 -0.1099  0.0630  1.1624
  112MOL   H23529317   2.780   3.326   2.447 -0.2484 -0.2313 -0.0406
  112MOL   C23629318   2.767   3.140   2.561  0.3604  0.6727  0.0041
  112MOL   C23729319   2.830   3.048   2.662  0.0004 -0.3916 -0.1610
  112MOL   C23829320   2.767   2.957   2.740  0.0829  0.2519 -0.4229
  112MOL   C23929321   2.852   2.869   2.837 -0.4812  0.4332  0.4399
  112MOL   C24029322   2.617   2.932   2.736  0.8330  0.0564 -0.4170
  112MOL   H24129323   2.747   3.088   2.467  1.0368  0.4238 -0.0050
  112MOL   H24229324   2.665   3.167   2.589  0.2856  2.4865 -1.9018
  112MOL   H24329325   2.938   3.056   2.667  0.0821 -1.9649  1.0970
  112MOL   H24429326   2.795   2.857   2.930 -1.4632  0.2293 -0.1780
  112MOL   H24529327   2.949   2.909   2.866  0.4659 -1.0766 -0.5687
  112MOL   H24629328   2.861   2.772   2.787  0.7551  0.1191  1.2510
  112MOL   H24729329   2.559   3.025   2.733 -1.1666 -1.1941 -1.1527
  112MOL   H24829330   2.592   2.871   2.822  0.9478 -0.6132 -0.8547
  112MOL   C24929331   2.578   2.852   2.619  0.2441 -0.0719  0.6444
  112MOL   C25029332   2.427   2.833   2.620  0.5180 -0.1585  0.7040
  112MOL   C25129333   2.344   2.813   2.516 -0.7157 -0.0845  0.6196
  112MOL   C25229334   2.206   2.761   2.531  0.1271 -0.5787 -0.0556
  112MOL   C25329335   2.386   2.815   2.369  0.0900  0.2163  0.2906
  112MOL   H25429336   2.609   2.749   2.637  0.4633  0.2239  1.9928
  112MOL   H25529337   2.618   2.891   2.525 -1.7988 -1.2885 -0.7950
  112MOL   H25629338   2.389   2.833   2.721  0.6824 -0.7589  0.7717
  112MOL   H25729339   2.148   2.787   2.443  0.5118 -0.0657 -0.1573
  112MOL   H25829340   2.161   2.792   2.625 -0.6290 -0.8362 -0.3249
  112MOL   H25929341   2.210   2.652   2.529  0.7821 -0.5646  0.3754
  112MOL   H26029342   2.395   2.713   2.332 -3.2056 -0.1971  0.4694
  112MOL   H26129343   2.484   2.863   2.364  0.3462 -0.2327  0.9346
  112MOL   H26229344   2.322   2.871   2.301  1.9196  1.8885 -0.1102
  113MOL     C129345   6.748   5.273   7.465  0.7023  0.7862  0.2301
  113MOL     C229346   6.686   5.207   7.339 -0.4136  0.0724  0.1624
  113MOL     C329347   6.716   5.086   7.285 -0.4937  0.3353  0.0850
  113MOL     C429348   6.639   5.028   7.165  0.7803  0.0373 -0.4118
  113MOL     C529349   6.823   4.993   7.340  0.3444  0.0204 -0.1716
  113MOL     H629350   6.833   5.337   7.443 -0.3301  2.2388  0.3840
  113MOL     H729351   6.673   5.328   7.522  1.3391  1.7846  0.1087
  113MOL     H829352   6.616   5.274   7.291  0.8678  0.2790 -1.5022
  113MOL     H929353   6.581   4.942   7.199  2.3072 -0.5112  0.9274
  113MOL    H1029354   6.715   4.995   7.094 -0.8706 -1.5340 -1.4947
  113MOL    H1129355   6.573   5.103   7.122  2.0441  0.1820 -2.1277
  113MOL    H1229356   6.784   4.894   7.315 -1.2840  0.1356  1.8569
  113MOL    H1329357   6.842   5.011   7.445  1.1177  0.7979 -0.4378
  113MOL    H1429358   6.794   5.198   7.529  0.1763 -1.4174 -1.8889
  113MOL    C1529359   6.960   5.012   7.260  0.2453 -0.0301  0.5961
  113MOL    C1629360   7.058   4.896   7.283  0.1007 -0.0029 -0.2821
  113MOL    C1729361   7.118   4.815   7.191 -1.2355  0.1497 -0.0524
  113MOL    C1829362   7.194   4.689   7.222  0.2629  0.0089 -0.2639
  113MOL    C1929363   7.116   4.845   7.046 -0.0427  0.8748  0.2969
  113MOL    H2029364   7.019   5.092   7.304 -0.0938  0.4473  0.1906
  113MOL    H2129365   6.933   5.024   7.155  0.2028  2.8797  0.9028
  113MOL    H2229366   7.068   4.878   7.389 -2.0453 -2.8426 -0.5219
  113MOL    H2329367   7.188   4.607   7.151 -4.8714  1.2133 -1.4754
  113MOL    H2429368   7.160   4.647   7.317 -1.1149  1.6437 -0.0014
  113MOL    H2529369   7.300   4.712   7.233  0.0659  1.4922 -1.3426
  113MOL    H2629370   7.208   4.824   6.992  1.4939  0.9359  2.7805
  113MOL    H2729371   7.110   4.953   7.035  0.7193  1.2784  3.3160
  113MOL    C2829372   7.006   4.781   6.955  0.0427 -0.0815 -0.2651
  113MOL    C2929373   7.017   4.818   6.807 -0.2981 -0.2981 -0.2039
  113MOL    C3029374   7.057   4.740   6.707 -0.3599  0.3987 -0.0895
  113MOL    C3129375   7.062   4.779   6.563  0.2380 -0.2108  0.0187
  113MOL    C3229376   7.081   4.592   6.736 -0.2440  0.2782 -0.4839
  113MOL    H3329377   6.901   4.794   6.982  0.0232 -2.7619  1.1420
  113MOL    H3429378   7.012   4.672   6.956 -1.7002 -0.1960 -0.5420
  113MOL    H3529379   6.999   4.922   6.786  3.1722 -0.1121 -2.6065
  113MOL    H3629380   6.971   4.744   6.514  0.1390 -2.3260  1.6458
  113MOL    H3729381   7.146   4.728   6.515  1.5094  1.2045  0.7056
  113MOL    H3829382   7.085   4.881   6.534 -0.4578 -0.0435  0.0566
  113MOL    H3929383   7.134   4.572   6.829 -2.2401  0.6082  0.7421
  113MOL    H4029384   7.157   4.560   6.665 -0.0316 -2.9443  1.1003
  113MOL    C4129385   6.960   4.505   6.705 -0.3233  0.6072 -0.0213
  113MOL    C4229386   7.003   4.361   6.720 -0.2599 -0.0422 -0.4776
  113MOL    C4329387   6.965   4.280   6.820  1.3352 -0.3792 -0.5889
  113MOL    C4429388   7.013   4.136   6.830 -0.1347  0.6361 -0.5000
  113MOL    C4529389   6.873   4.314   6.943  0.0744 -0.8011  0.7921
  113MOL    H4629390   6.945   4.515   6.597  0.3272 -0.5687 -0.2241
  113MOL    H4729391   6.873   4.531   6.766 -0.4996 -1.5523  0.6734
  113MOL    H4829392   7.071   4.318   6.648 -0.7792 -2.0642  0.1925
  113MOL    H4929393   6.934   4.066   6.857  2.1940 -1.0895  2.1437
  113MOL    H5029394   7.082   4.134   6.914 -0.5439 -0.3824 -0.1804
  113MOL    H5129395   7.073   4.105   6.744 -0.9477  0.8249 -1.1378
  113MOL    H5229396   6.870   4.423   6.952  4.4857 -0.6777  1.8193
  113MOL    H5329397   6.910   4.287   7.042  1.0276  1.0833  0.9821
  113MOL    C5429398   6.725   4.247   6.925 -0.5989 -1.0118  0.0748
  113MOL    C5529399   6.630   4.288   7.031  0.7023 -0.1225  0.0635
  113MOL    C5629400   6.505   4.333   7.018 -0.0326 -0.4405 -1.1612
  113MOL    C5729401   6.436   4.368   7.149 -0.0384  0.7499  0.6562
  113MOL    C5829402   6.422   4.342   6.891 -0.1350 -0.6770 -0.1125
  113MOL    H5929403   6.733   4.139   6.914  0.5431 -0.8544 -0.5903
  113MOL    H6029404   6.696   4.282   6.826 -1.2464  0.4697  0.7764
  113MOL    H6129405   6.677   4.257   7.123 -0.2540 -0.0425  0.5886
  113MOL    H6229406   6.354   4.438   7.131  0.8498  1.4799 -0.6373
  113MOL    H6329407   6.508   4.408   7.219 -2.0246  2.4467  1.7968
  113MOL    H6429408   6.383   4.281   7.187 -0.8740  1.1220  0.3570
  113MOL    H6529409   6.486   4.332   6.803  0.5490  0.0176  0.2956
  113MOL    H6629410   6.364   4.433   6.898 -0.6168 -1.0083  0.2046
  113MOL    C6729411   6.311   4.232   6.864 -0.4152  0.3218  0.7310
  113MOL    C6829412   6.215   4.214   6.983 -0.5207  0.1174 -0.3360
  113MOL    C6929413   6.097   4.273   7.003 -0.1989 -0.2162  0.0898
  113MOL    C7029414   6.023   4.260   7.127  0.2182 -0.2373 -0.2686
  113MOL    C7129415   6.036   4.359   6.901  0.0380  0.2284  0.2151
  113MOL    H7229416   6.353   4.133   6.846  0.7475  0.8646  0.4023
  113MOL    H7329417   6.248   4.253   6.777 -1.3753  0.0145  1.3616
  113MOL    H7429418   6.260   4.141   7.049 -0.9888 -0.6149 -0.8202
  113MOL    H7529419   5.951   4.342   7.133 -1.4781 -1.7802  1.1850
  113MOL    H7629420   6.091   4.268   7.211 -1.8335 -2.3760  1.6727
  113MOL    H7729421   5.976   4.163   7.141  0.3543 -0.0787  1.3262
  113MOL    H7829422   6.105   4.396   6.825  0.8753  0.0610  0.8841
  113MOL    H7929423   6.011   4.454   6.949  0.2795 -0.5785  1.9573
  113MOL    C8029424   5.900   4.323   6.831 -0.0138 -0.6937 -0.6371
  113MOL    C8129425   5.920   4.202   6.745  0.2926 -0.5216 -0.1117
  113MOL    C8229426   5.841   4.155   6.645  0.0063  0.2997  0.6230
  113MOL    C8329427   5.710   4.228   6.607 -0.1803  0.1866 -0.1467
  113MOL    C8429428   5.874   4.040   6.557  0.0298  0.2807  0.2710
  113MOL    H8529429   5.865   4.406   6.769  0.0865  1.0273  1.5016
  113MOL    H8629430   5.817   4.313   6.901  0.8689 -0.3267  0.4886
  113MOL    H8729431   6.009   4.145   6.767  0.6012 -1.2228 -2.9637
  113MOL    H8829432   5.726   4.290   6.519  0.8111  0.1570  0.0124
  113MOL    H8929433   5.656   4.291   6.678  0.9749  0.4662  0.4879
  113MOL    H9029434   5.645   4.142   6.590 -0.8050  0.3220  1.4981
  113MOL    H9129435   5.784   3.979   6.550  0.0729  0.3295 -0.9456
  113MOL    H9229436   5.940   3.987   6.625 -0.6395 -0.3802  0.4043
  113MOL    C9329437   5.932   4.071   6.419  0.4889  0.4094  0.5848
  113MOL    C9429438   5.938   3.940   6.333 -1.2677  0.0850  0.3462
  113MOL    C9529439   5.887   3.915   6.215  0.0810 -0.0707  0.2736
  113MOL    C9629440   5.902   3.779   6.155 -0.5124 -0.3449  0.2197
  113MOL    C9729441   5.790   4.005   6.142  0.2798  0.1691 -0.2637
  113MOL    H9829442   6.034   4.108   6.430 -0.1430  2.9790 -1.7547
  113MOL    H9929443   5.874   4.148   6.368  1.3953  1.4775  1.1791
  113MOL   H10029444   6.003   3.870   6.384 -0.4635 -2.0544 -3.4600
  113MOL   H10129445   5.937   3.792   6.053 -0.2395 -1.6026  0.1434
  113MOL   H10229446   5.981   3.719   6.201  0.3014 -0.5104 -1.3760
  113MOL   H10329447   5.811   3.722   6.138  0.4200 -2.1807  1.1569
  113MOL   H10429448   5.749   4.072   6.218  0.8002  0.0729  0.0955
  113MOL   H10529449   5.704   3.951   6.103  0.6164 -1.5374  1.3097
  113MOL   C10629450   5.860   4.084   6.027 -0.9419 -0.2319 -0.2872
  113MOL   C10729451   5.771   4.179   5.957  0.1129 -0.0134 -0.2545
  113MOL   C10829452   5.790   4.312   5.929  0.0806 -0.5573 -0.0302
  113MOL   C10929453   5.912   4.392   5.971 -1.1912 -0.2866  0.4364
  113MOL   C11029454   5.682   4.396   5.859 -0.1077  0.9843 -0.0928
  113MOL   H11129455   5.894   4.007   5.958 -1.5979 -1.6981  0.9786
  113MOL   H11229456   5.943   4.133   6.079 -0.5403 -0.4262 -0.7354
  113MOL   H11329457   5.687   4.124   5.915  1.6682 -0.8015 -2.4608
  113MOL   H11429458   5.933   4.391   6.078  1.4265  1.1316 -0.0081
  113MOL   H11529459   5.996   4.344   5.921 -2.3908 -1.1709 -0.7160
  113MOL   H11629460   5.909   4.498   5.946  1.6847  0.1500  1.7235
  113MOL   H11729461   5.638   4.466   5.931 -1.5149 -3.3240  3.4961
  113MOL   H11829462   5.596   4.332   5.840 -1.5714  2.4133  1.5229
  113MOL   C11929463   5.748   4.458   5.728  0.5780  0.1802 -0.0298
  113MOL   C12029464   5.645   4.525   5.640  0.0993  0.0684 -0.8823
  113MOL   C12129465   5.607   4.656   5.640  0.6126 -0.0238 -0.4205
  113MOL   C12229466   5.515   4.710   5.534 -0.2308  0.5991 -0.4622
  113MOL   C12329467   5.659   4.752   5.743  0.1987  0.2724 -0.7259
  113MOL   H12429468   5.797   4.378   5.672  1.5787  2.2847 -2.2636
  113MOL   H12529469   5.820   4.537   5.751 -0.0637  0.7911 -0.1150
  113MOL   H12629470   5.612   4.459   5.562  0.5650 -1.9303  0.5863
  113MOL   H12729471   5.414   4.720   5.575  0.1041 -0.6370  0.7044
  113MOL   H12829472   5.505   4.639   5.452  0.1426  1.4213 -1.2231
  113MOL   H12929473   5.556   4.804   5.497 -0.3133  0.3273 -1.2464
  113MOL   H13029474   5.677   4.705   5.840  0.4488  1.8809  0.0276
  113MOL   H13129475   5.575   4.818   5.761 -1.5455 -2.0789 -0.0399
  113MOL   C13229476   5.782   4.831   5.706  0.4783  0.7554  0.4628
  113MOL   C13329477   5.827   4.923   5.821 -0.1054  0.2105 -0.0089
  113MOL   C13429478   5.912   4.903   5.919  0.3836  0.2296 -0.0756
  113MOL   C13529479   5.946   5.010   6.025 -0.1608  0.1511 -0.1154
  113MOL   C13629480   5.992   4.774   5.929 -0.2585  0.1977 -0.1797
  113MOL   H13729481   5.773   4.893   5.616  0.5880  0.6830  0.4024
  113MOL   H13829482   5.861   4.761   5.679  0.6491  1.3901 -0.7583
  113MOL   H13929483   5.776   5.019   5.817  0.0965  0.2814 -0.9975
  113MOL   H14029484   5.880   5.093   6.001  0.8704  1.1275  0.3463
  113MOL   H14129485   6.051   5.040   6.018 -0.6136  2.2653  1.6314
  113MOL   H14229486   5.918   4.967   6.121 -1.3521  0.7040 -0.2140
  113MOL   H14329487   5.970   4.710   5.844 -1.0942  0.5933 -0.2591
  113MOL   H14429488   5.969   4.719   6.020  0.5500 -0.2430 -0.2316
  113MOL   C14529489   6.144   4.793   5.919  0.1994 -0.1692 -0.5183
  113MOL   C14629490   6.207   4.656   5.918  0.2070  0.0544  0.2782
  113MOL   C14729491   6.238   4.581   5.814 -0.0277  0.7461 -0.2784
  113MOL   C14829492   6.269   4.430   5.835  0.1115 -0.2075  0.6810
  113MOL   C14929493   6.224   4.621   5.666  1.0608 -0.0237  0.1821
  113MOL   H15029494   6.179   4.852   6.004  0.7282  1.1555 -1.6450
  113MOL   H15129495   6.173   4.837   5.824  1.2700  0.4532  0.0866
  113MOL   H15229496   6.211   4.625   6.022 -0.3086  1.8004  0.8400
  113MOL   H15329497   6.353   4.392   5.777  0.7531  0.5614  1.0829
  113MOL   H15429498   6.179   4.373   5.815  0.3091 -0.4641  0.5185
  113MOL   H15529499   6.296   4.413   5.940 -0.7308 -0.7340  0.8184
  113MOL   H15629500   6.164   4.712   5.655  0.3279 -0.7981 -2.7117
  113MOL   H15729501   6.176   4.549   5.600  1.1850 -0.6734  0.8010
  113MOL   C15829502   6.354   4.647   5.590 -0.1693 -0.5203  0.4327
  113MOL   C15929503   6.343   4.677   5.440 -0.0920  0.6715  0.1798
  113MOL   C16029504   6.354   4.583   5.338  1.5804  0.1931  0.1704
  113MOL   C16129505   6.379   4.433   5.351 -0.3447  0.1461 -0.2143
  113MOL   C16229506   6.337   4.623   5.197  1.0067 -0.0292 -0.3952
  113MOL   H16329507   6.428   4.567   5.590  0.1077 -0.2886 -1.3507
  113MOL   H16429508   6.400   4.737   5.633  2.7034 -0.0209 -3.3946
  113MOL   H16529509   6.322   4.781   5.421  0.1975  0.8524  0.8232
  113MOL   H16629510   6.485   4.423   5.332  0.3646  1.4921  2.7467
  113MOL   H16729511   6.321   4.373   5.280 -0.1303 -1.0501  0.5940
  113MOL   H16829512   6.371   4.396   5.453  4.4390  1.6248  0.8217
  113MOL   H16929513   6.433   4.609   5.148  0.9834 -2.3157  0.1807
  113MOL   H17029514   6.315   4.730   5.199 -0.4777 -0.3404  0.7333
  113MOL   C17129515   6.227   4.553   5.124  0.0612 -0.8138 -0.2544
  113MOL   C17229516   6.085   4.560   5.187  0.1766  0.2932 -0.2405
  113MOL   C17329517   5.982   4.643   5.157 -0.1403 -0.6195  0.4716
  113MOL   C17429518   5.974   4.740   5.048  0.3557 -0.1174 -0.1457
  113MOL   C17529519   5.849   4.622   5.233  0.4908  0.7263  0.4791
  113MOL   H17629520   6.257   4.448   5.112 -0.0963 -1.0291  1.1611
  113MOL   H17729521   6.213   4.579   5.019  0.8129 -0.1979 -0.2008
  113MOL   H17829522   6.070   4.485   5.263  0.7700 -1.1632 -1.5229
  113MOL   H17929523   5.872   4.778   5.038  1.2298  2.6048  0.9475
  113MOL   H18029524   6.006   4.689   4.957 -2.0151 -2.4078  0.2307
  113MOL   H18129525   6.050   4.817   5.055  0.8338 -0.5039 -0.9059
  113MOL   H18229526   5.780   4.707   5.236  0.9113  1.2070 -2.1740
  113MOL   H18329527   5.867   4.596   5.337 -1.9490 -1.3038  0.4592
  113MOL   C18429528   5.774   4.500   5.173  0.3837  0.8730  0.7223
  113MOL   C18529529   5.633   4.482   5.212 -0.8748  0.2366  0.3774
  113MOL   C18629530   5.525   4.536   5.154 -0.1164 -0.0522  0.6004
  113MOL   C18729531   5.389   4.522   5.217 -0.2475 -0.0860  0.1601
  113MOL   C18829532   5.530   4.613   5.024 -0.4319 -0.2562  0.9001
  113MOL   H18929533   5.832   4.418   5.216  1.7775  1.0780 -0.6969
  113MOL   H19029534   5.790   4.513   5.066 -0.5534  1.4186  0.6528
  113MOL   H19129535   5.624   4.421   5.301  0.9187  1.1430  1.2008
  113MOL   H19229536   5.357   4.622   5.248 -0.3408 -0.4381  1.2160
  113MOL   H19329537   5.408   4.464   5.308  1.2004  2.1594  1.3415
  113MOL   H19429538   5.330   4.463   5.146  0.3745 -0.7240  0.1715
  113MOL   H19529539   5.458   4.570   4.955  2.0477 -0.5725 -1.5762
  113MOL   H19629540   5.630   4.596   4.983 -1.5255 -0.5953 -1.7133
  113MOL   C19729541   5.479   4.766   5.030 -0.1132 -0.0469 -0.3116
  113MOL   C19829542   5.463   4.815   4.884 -0.1466  0.9549 -0.4333
  113MOL   C19929543   5.513   4.916   4.822  0.1781 -0.9718  0.5199
  113MOL   C20029544   5.504   4.929   4.669  0.1926  0.3649 -0.1259
  113MOL   C20129545   5.578   5.030   4.898 -0.6084 -0.0071  0.4076
  113MOL   H20229546   5.565   4.812   5.078  0.3729  0.8285 -2.0224
  113MOL   H20329547   5.386   4.786   5.084 -0.4425 -3.0178  0.2920
  113MOL   H20429548   5.395   4.752   4.828  0.8427 -0.2009 -0.3422
  113MOL   H20529549   5.461   4.840   4.622  2.3752 -2.5438  3.1034
  113MOL   H20629550   5.608   4.949   4.642  0.3051 -0.6241 -0.4639
  113MOL   H20729551   5.451   5.018   4.635 -1.0356 -1.6292 -3.7247
  113MOL   H20829552   5.685   5.041   4.879 -0.7559  1.0798  0.1949
  113MOL   H20929553   5.570   5.013   5.006 -1.2691 -0.7866  0.2436
  113MOL   C21029554   5.511   5.164   4.875  0.5672 -0.1134  0.5274
  113MOL   C21129555   5.563   5.270   4.969  0.1992 -0.6016  0.0987
  113MOL   C21229556   5.501   5.308   5.081  0.0121 -0.0672 -0.2463
  113MOL   C21329557   5.570   5.416   5.171  0.2576 -0.3470  0.3659
  113MOL   C21429558   5.373   5.246   5.137 -1.2190 -0.2431  0.2314
  113MOL   H21529559   5.405   5.141   4.887  0.6362 -1.7918 -1.7345
  113MOL   H21629560   5.512   5.190   4.769 -0.0503  1.7087  0.9557
  113MOL   H21729561   5.662   5.311   4.958 -0.6138  1.1335 -0.9658
  113MOL   H21829562   5.668   5.450   5.138  0.3131  0.7481  1.6233
  113MOL   H21929563   5.559   5.371   5.269 -1.5571 -1.4670 -0.3150
  113MOL   H22029564   5.508   5.505   5.184 -0.2715 -0.5982 -0.3839
  113MOL   H22129565   5.325   5.177   5.068  1.3633 -2.7667  0.8343
  113MOL   H22229566   5.306   5.325   5.169  0.3531  0.3480  2.1746
  113MOL   C22329567   5.407   5.146   5.256  0.6669 -0.0518 -0.0130
  113MOL   C22429568   5.282   5.066   5.294 -0.3667  0.4976 -0.3275
  113MOL   C22529569   5.238   5.056   5.422  0.0612 -0.0927 -0.5239
  113MOL   C22629570   5.126   4.952   5.454 -0.9660  0.0389  0.6156
  113MOL   C22729571   5.300   5.128   5.546  0.9843  0.2997  0.1978
  113MOL   H22829572   5.446   5.205   5.339 -0.0882 -1.7287  1.5824
  113MOL   H22929573   5.489   5.079   5.233  0.7394 -0.4891  1.4442
  113MOL   H23029574   5.249   4.995   5.220  2.4428 -1.6741  0.4355
  113MOL   H23129575   5.063   4.916   5.373 -0.8886 -0.6464  0.8581
  113MOL   H23229576   5.057   4.999   5.524 -3.0408 -1.2956 -0.4731
  113MOL   H23329577   5.184   4.873   5.501  0.1925  0.0240 -0.8034
  113MOL   H23429578   5.220   5.147   5.617 -0.3746 -2.7429 -0.4230
  113MOL   H23529579   5.333   5.228   5.518 -1.0237  1.3269  1.3988
  113MOL   C23629580   5.423   5.047   5.592  0.1245 -0.5252  0.8364
  113MOL   C23729581   5.488   5.116   5.705  0.2481 -0.0639 -0.3662
  113MOL   C23829582   5.588   5.205   5.699  0.0544 -0.1530  0.5280
  113MOL   C23929583   5.641   5.268   5.822  0.9740  0.4587  0.4547
  113MOL   C24029584   5.646   5.259   5.574 -0.2816  0.0641  0.5931
  113MOL   H24129585   5.498   5.033   5.515 -0.8539 -0.9157 -0.0565
  113MOL   H24229586   5.395   4.947   5.625 -0.4510 -0.3025  1.0302
  113MOL   H24329587   5.449   5.087   5.802 -0.5082 -0.9575 -0.9273
  113MOL   H24429588   5.579   5.265   5.913 -1.2523 -0.9713 -1.0471
  113MOL   H24529589   5.637   5.376   5.806 -1.7808  0.2507 -0.5739
  113MOL   H24629590   5.741   5.238   5.853  0.4121 -1.7823  0.2115
  113MOL   H24729591   5.634   5.367   5.563 -2.1968 -0.2143 -0.1987
  113MOL   H24829592   5.598   5.214   5.487  0.4379 -1.0414  0.7439
  113MOL   C24929593   5.795   5.225   5.548  0.0245 -0.2970 -0.0950
  113MOL   C25029594   5.835   5.269   5.407 -0.5477 -0.8747  0.0292
  113MOL   C25129595   5.853   5.201   5.293 -0.6452 -0.4324 -0.1981
  113MOL   C25229596   5.902   5.273   5.166  0.0844 -0.2632  0.1457
  113MOL   C25329597   5.828   5.057   5.266 -0.2014  0.3914 -0.0354
  113MOL   H25429598   5.796   5.117   5.566 -0.0948 -0.1734  0.6441
  113MOL   H25529599   5.861   5.269   5.622 -0.6195 -2.0697  1.5709
  113MOL   H25629600   5.849   5.376   5.412 -2.2907 -0.5751 -0.9841
  113MOL   H25729601   5.902   5.382   5.166 -0.5738 -0.2528 -1.7254
  113MOL   H25829602   5.847   5.244   5.076 -1.2273  0.6242  0.6562
  113MOL   H25929603   6.002   5.239   5.135  1.4285  1.9726  1.8658
  113MOL   H26029604   5.752   5.051   5.188  0.9085  0.5636 -1.1277
  113MOL   H26129605   5.789   5.010   5.357 -0.2326  0.2691 -0.1125
  113MOL   H26229606   5.910   5.005   5.217  1.2426  0.4558  2.2130
  114MOL     C129607   1.386   6.098   5.010  0.3061  0.1893 -0.1701
  114MOL     C229608   1.335   6.054   5.147  0.1376  0.1176  0.4987
  114MOL     C329609   1.221   6.097   5.207  0.6054 -0.0468 -0.0567
  114MOL     C429610   1.170   6.059   5.348 -0.3899  0.7053 -0.4623
  114MOL     C529611   1.114   6.166   5.123  0.2182  0.6426  0.2369
  114MOL     H629612   1.362   6.025   4.933 -0.2017 -0.0163  0.1829
  114MOL     H729613   1.342   6.193   4.981 -1.8058 -0.5779  0.4224
  114MOL     H829614   1.412   5.993   5.192  1.1052  0.1719 -1.0836
  114MOL     H929615   1.111   6.137   5.397 -2.4537 -1.0422 -0.0516
  114MOL    H1029616   1.247   6.009   5.406 -0.4151  1.1025 -0.0832
  114MOL    H1129617   1.093   5.983   5.333  1.2809 -0.7392 -1.8374
  114MOL    H1229618   1.018   6.130   5.161  0.5683 -2.6182 -1.8176
  114MOL    H1329619   1.113   6.137   5.018  0.5353  1.6281 -0.0465
  114MOL    H1429620   1.495   6.105   5.016  0.2336  0.2226  1.2145
  114MOL    C1529621   1.101   6.324   5.134 -0.1085  0.0292  0.0929
  114MOL    C1629622   1.078   6.376   5.271  0.0471 -0.2894  0.6016
  114MOL    C1729623   0.956   6.401   5.326 -0.5184 -0.3123 -0.4594
  114MOL    C1829624   0.949   6.441   5.460  0.0867 -0.6089 -0.3898
  114MOL    C1929625   0.823   6.397   5.247  0.7189  0.0082  0.3797
  114MOL    H2029626   1.028   6.356   5.061  1.1489 -3.7409 -3.0084
  114MOL    H2129627   1.195   6.368   5.101 -0.6919  1.6884  0.6069
  114MOL    H2229628   1.167   6.374   5.332 -1.3142 -1.1484  2.6225
  114MOL    H2329629   1.045   6.458   5.510 -0.2599  0.0790  0.0460
  114MOL    H2429630   0.873   6.389   5.517 -0.8393  1.0607 -0.0941
  114MOL    H2529631   0.914   6.544   5.455  1.0497 -0.2326  0.3994
  114MOL    H2629632   0.844   6.362   5.146  0.5062  1.9635 -0.3662
  114MOL    H2729633   0.780   6.497   5.247 -0.2602 -0.4082  0.8908
  114MOL    C2829634   0.719   6.301   5.308 -0.0844  0.0060  0.8273
  114MOL    C2929635   0.578   6.309   5.258 -0.0428  0.0800  0.5254
  114MOL    C3029636   0.509   6.225   5.181 -0.2851  1.1480  0.3020
  114MOL    C3129637   0.358   6.252   5.166  0.0655  0.1990 -0.3664
  114MOL    C3229638   0.561   6.097   5.125 -0.0488 -0.3746 -0.5155
  114MOL    H3329639   0.702   6.336   5.410  1.8854  1.8641  0.5690
  114MOL    H3429640   0.764   6.202   5.304  0.3484  0.2165  0.4524
  114MOL    H3529641   0.526   6.396   5.296 -0.6989 -0.8193  1.6833
  114MOL    H3629642   0.292   6.168   5.189 -1.2210  0.6640 -2.2410
  114MOL    H3729643   0.332   6.282   5.064  0.2096 -1.2060 -0.8339
  114MOL    H3829644   0.323   6.330   5.234  2.7663  1.5531 -0.4731
  114MOL    H3929645   0.665   6.102   5.096  0.1314  1.2353  0.3486
  114MOL    H4029646   0.509   6.073   5.032  2.0575 -2.9656 -1.0797
  114MOL    C4129647   0.564   5.980   5.227 -0.8319 -0.1448 -0.4353
  114MOL    C4229648   0.611   5.853   5.157  0.3643  0.3067 -0.2392
  114MOL    C4329649   0.538   5.742   5.120 -0.4865 -0.2372  0.5914
  114MOL    C4429650   0.603   5.625   5.054 -0.5818 -0.0824  0.4693
  114MOL    C4529651   0.388   5.730   5.128  0.0412  0.3331  0.3209
  114MOL    H4629652   0.467   5.966   5.275 -0.3368  0.5221  0.7741
  114MOL    H4729653   0.630   6.007   5.309 -0.4732 -0.2412 -0.6915
  114MOL    H4829654   0.716   5.861   5.135  0.2655  2.5897  0.0378
  114MOL    H4929655   0.711   5.615   5.063 -0.5006 -0.9809 -1.1419
  114MOL    H5029656   0.579   5.631   4.947 -2.2090  1.5236  0.9005
  114MOL    H5129657   0.547   5.545   5.102 -1.8121  1.1637  1.1374
  114MOL    H5229658   0.343   5.806   5.192 -0.5982 -1.0216  1.5303
  114MOL    H5329659   0.368   5.634   5.177 -1.2760  0.2812 -0.3018
  114MOL    C5429660   0.312   5.729   4.984  0.0351 -0.0286 -0.8457
  114MOL    C5529661   0.367   5.838   4.895  0.0551 -0.8046 -0.5459
  114MOL    C5629662   0.296   5.935   4.843 -0.4226  0.1907 -0.1365
  114MOL    C5729663   0.366   6.029   4.744  0.5293 -0.8119  0.3137
  114MOL    C5829664   0.148   5.965   4.869 -0.1031  0.7440 -0.0798
  114MOL    H5929665   0.205   5.737   5.001 -0.0990  1.1265 -2.2202
  114MOL    H6029666   0.330   5.627   4.951  0.5087  0.1263 -1.0687
  114MOL    H6129667   0.473   5.835   4.875  0.5530  3.4366  0.9949
  114MOL    H6229668   0.317   6.126   4.744  0.1793 -0.9781 -1.3025
  114MOL    H6329669   0.354   5.981   4.647 -0.2958  1.0747 -0.5360
  114MOL    H6429670   0.468   6.042   4.780  0.0760  2.1966  0.6693
  114MOL    H6529671   0.137   6.072   4.886  0.7604  0.7459  0.4831
  114MOL    H6629672   0.109   5.919   4.960  1.6918  0.6605  0.6635
  114MOL    C6729673   0.063   5.933   4.746 -0.3280  0.0178 -0.1316
  114MOL    C6829674   7.791   5.980   4.761 -0.6234 -0.7240  0.4978
  114MOL    C6929675   7.684   5.915   4.811  0.4843  0.0809 -0.2619
  114MOL    C7029676   7.545   5.975   4.794 -0.6965 -0.7320  0.3173
  114MOL    C7129677   7.688   5.770   4.862 -0.2256 -0.4323  0.1312
  114MOL    H7229678   0.050   5.825   4.739 -2.1646  0.3325 -1.8002
  114MOL    H7329679   0.110   5.966   4.654 -0.5136 -1.1713 -0.6673
  114MOL    H7429680   7.769   6.078   4.722  0.3105 -0.4098  0.7360
  114MOL    H7529681   7.502   6.007   4.889 -2.1224 -3.3553  0.6258
  114MOL    H7629682   7.479   5.910   4.736  1.2927 -2.1366 -0.4259
  114MOL    H7729683   7.539   6.065   4.732  0.0154 -0.4384  0.6718
  114MOL    H7829684   7.624   5.744   4.946 -0.1364 -1.2988 -0.0660
  114MOL    H7929685   7.790   5.731   4.873  0.7277  0.8263 -3.3793
  114MOL    C8029686   7.628   5.677   4.749  0.5605  0.5268  0.8763
  114MOL    C8129687   7.655   5.533   4.788  0.0168 -0.2168 -0.3857
  114MOL    C8229688   7.574   5.440   4.841 -0.2000 -0.3054 -0.5142
  114MOL    C8329689   7.440   5.474   4.900 -0.4742  0.6412  0.4719
  114MOL    C8429690   7.621   5.298   4.838  0.6264  0.2743  0.6493
  114MOL    H8529691   7.675   5.703   4.654 -0.3501 -2.3255 -0.4046
  114MOL    H8629692   7.521   5.699   4.739  1.0422  1.7893 -2.1882
  114MOL    H8729693   7.752   5.505   4.748 -0.6365 -1.1581 -1.3149
  114MOL    H8829694   7.443   5.486   5.008 -1.4531  2.5485  0.3111
  114MOL    H8929695   7.372   5.392   4.877 -3.1101  2.3404  1.9846
  114MOL    H9029696   7.390   5.568   4.874  0.7147  1.4263  1.0074
  114MOL    H9129697   7.706   5.281   4.771 -0.8508 -1.9926 -0.6881
  114MOL    H9229698   7.543   5.234   4.797  0.8526  0.6162 -0.3329
  114MOL    C9329699   7.657   5.239   4.979 -0.4096 -0.7353 -0.0762
  114MOL    C9429700   7.775   5.309   5.053 -0.1984  0.4091  0.5884
  114MOL    C9529701   7.822   5.272   5.175 -0.0353  0.5646 -0.5119
  114MOL    C9629702   0.065   5.345   5.236 -0.0835 -0.7049 -0.5355
  114MOL    C9729703   7.764   5.160   5.253 -0.2182 -0.3515  0.6081
  114MOL    H9829704   7.679   5.135   4.953  0.4540 -0.2252 -1.4412
  114MOL    H9929705   7.566   5.238   5.038 -1.3725 -1.9121 -1.5436
  114MOL   H10029706   7.826   5.379   4.988  1.8228 -0.1827  1.4945
  114MOL   H10129707   0.060   5.359   5.344  1.7798 -0.2964 -0.4692
  114MOL   H10229708   0.160   5.301   5.203 -0.2466 -0.3956 -1.4370
  114MOL   H10329709   0.057   5.451   5.210  0.2369 -0.5811 -0.1302
  114MOL   H10429710   7.836   5.105   5.313  0.6038 -1.4874 -1.3909
  114MOL   H10529711   7.733   5.085   5.179  2.8035 -1.7664  0.6929
  114MOL   C10629712   7.652   5.220   5.343  0.1932  0.3111  0.3784
  114MOL   C10729713   7.570   5.121   5.410 -0.5644  0.4831 -0.8396
  114MOL   C10829714   7.443   5.136   5.462  0.0670 -0.2284 -0.0438
  114MOL   C10929715   7.369   5.261   5.448 -0.2840 -0.2462 -0.4199
  114MOL   C11029716   7.364   5.015   5.514 -0.1777  0.0680 -0.5818
  114MOL   H11129717   7.590   5.287   5.283  0.4553 -0.1370 -0.4077
  114MOL   H11229718   7.697   5.279   5.422 -0.6522 -1.0097  1.8678
  114MOL   H11329719   7.620   5.025   5.409  0.1819  0.8750 -1.4400
  114MOL   H11429720   7.310   5.275   5.539  0.4612 -0.9674  0.1746
  114MOL   H11529721   7.430   5.351   5.434 -2.9900  1.7223 -0.0587
  114MOL   H11629722   7.310   5.254   5.357 -0.1691  0.2813 -0.5409
  114MOL   H11729723   7.402   4.925   5.465 -1.6246 -0.0582 -1.4820
  114MOL   H11829724   7.266   5.018   5.467  0.7307 -0.8136 -2.6174
  114MOL   C11929725   7.349   5.005   5.661  0.8259 -1.0079  0.0140
  114MOL   C12029726   7.243   4.905   5.702  0.5998 -0.1464  0.2718
  114MOL   C12129727   7.255   4.824   5.815  0.2374 -0.2318  0.8669
  114MOL   C12229728   7.151   4.718   5.851 -0.0935 -0.3878 -0.3083
  114MOL   C12329729   7.378   4.829   5.911 -0.2373  0.6953  0.3165
  114MOL   H12429730   7.321   5.100   5.707  0.0683 -0.7830 -0.8933
  114MOL   H12529731   7.443   4.967   5.700  0.7216 -0.2500  1.0287
  114MOL   H12629732   7.154   4.904   5.640  3.8485 -0.9267 -4.5888
  114MOL   H12729733   7.101   4.737   5.946  0.9977 -1.7015  0.5466
  114MOL   H12829734   7.201   4.621   5.858 -1.2855 -1.1513 -1.9769
  114MOL   H12929735   7.077   4.710   5.771 -0.3233 -1.1557 -0.0254
  114MOL   H13029736   7.347   4.848   6.014 -1.6320  4.3208 -0.7014
  114MOL   H13129737   7.440   4.915   5.888 -0.9829  1.1017 -0.1675
  114MOL   C13229738   7.465   4.699   5.898 -0.2131  0.2820  0.8173
  114MOL   C13329739   7.585   4.704   5.986 -0.4323 -0.0040 -0.2002
  114MOL   C13429740   7.723   4.694   5.952 -0.0170  0.0670 -0.2662
  114MOL   C13529741   7.828   4.683   6.060  0.2826  0.1529  0.1214
  114MOL   C13629742   7.778   4.678   5.813 -0.3470  0.2726 -0.7459
  114MOL   H13729743   7.505   4.682   5.798 -2.1194 -0.4154  0.1525
  114MOL   H13829744   7.416   4.602   5.904 -1.5267  0.8004 -1.1137
  114MOL   H13929745   7.561   4.719   6.091  1.3616 -0.9350  0.3605
  114MOL   H14029746   7.853   4.577   6.055  1.2390  0.3414  0.7768
  114MOL   H14129747   7.784   4.704   6.158  0.2246 -3.1785  0.8681
  114MOL   H14229748   0.029   4.752   6.036  1.2570 -1.6671 -1.9633
  114MOL   H14329749   7.709   4.607   5.768 -0.4628  0.5125 -0.9517
  114MOL   H14429750   7.876   4.631   5.815 -0.2192  0.5595 -0.1991
  114MOL   C14529751   7.785   4.810   5.738  0.2936 -0.4290  0.7708
  114MOL   C14629752   7.782   4.793   5.587  0.0898 -0.8001  0.5329
  114MOL   C14729753   0.009   4.800   5.502 -0.0738  0.2314 -0.0330
  114MOL   C14829754   7.868   4.772   5.350  0.1132 -0.0916 -0.1227
  114MOL   C14929755   0.152   4.846   5.529  0.1069  0.4482 -0.4129
  114MOL   H15029756   0.000   4.849   5.776  1.1792 -0.9421 -0.8819
  114MOL   H15129757   7.708   4.883   5.763  0.6781 -0.0133  0.7477
  114MOL   H15229758   7.688   4.755   5.549  0.8740 -0.2373 -2.1057
  114MOL   H15329759   7.778   4.712   5.338  0.2457 -0.5397  1.0113
  114MOL   H15429760   0.063   4.700   5.317  1.3447  1.2923 -0.4592
  114MOL   H15529761   7.865   4.863   5.290  1.5514  0.4207  0.5536
  114MOL   H15629762   0.221   4.762   5.517 -0.5298 -0.5333  2.4293
  114MOL   H15729763   0.172   4.871   5.634 -0.8148  0.6998 -0.2927
  114MOL   C15829764   0.193   4.972   5.449  0.3888  0.5056 -0.3883
  114MOL   C15929765   0.321   5.028   5.504  0.2106  0.7614  1.2318
  114MOL   C16029766   0.427   5.073   5.427 -0.5692 -0.2548 -0.1006
  114MOL   C16129767   0.429   5.053   5.276  0.2782 -0.5791 -0.6739
  114MOL   C16229768   0.558   5.128   5.486  0.3175  0.4374  0.4249
  114MOL   H16329769   0.126   5.057   5.468  0.4260  0.4053  0.2148
  114MOL   H16429770   0.205   4.949   5.344 -0.1403 -1.5300 -0.0261
  114MOL   H16529771   0.323   5.038   5.612 -0.0877  0.0148  1.3070
  114MOL   H16629772   0.484   5.135   5.229 -3.1387  2.2298 -0.0137
  114MOL   H16729773   0.336   5.066   5.221  0.3094  0.5265 -0.4853
  114MOL   H16829774   0.466   4.961   5.231 -0.8799 -2.2194  1.6677
  114MOL   H16929775   0.634   5.065   5.439 -0.0742 -0.7328  1.3353
  114MOL   H17029776   0.569   5.102   5.591 -4.1299 -3.0880  0.1413
  114MOL   C17129777   0.590   5.278   5.458 -0.3388  0.1537  0.1930
  114MOL   C17229778   0.704   5.329   5.558  0.4874 -0.1003  0.7272
  114MOL   C17329779   0.793   5.423   5.521 -0.0481 -0.4230 -0.5222
  114MOL   C17429780   0.802   5.492   5.385  0.8909 -0.4192  0.1308
  114MOL   C17529781   0.890   5.476   5.626  0.0492  0.0486 -0.3068
  114MOL   H17629782   0.503   5.343   5.471 -0.6866 -0.4621  0.9783
  114MOL   H17729783   0.626   5.290   5.356  0.7786 -1.7540  0.3298
  114MOL   H17829784   0.705   5.305   5.664 -0.3807  1.0504  1.0073
  114MOL   H17929785   0.807   5.417   5.306 -0.3931  0.2730 -0.6157
  114MOL   H18029786   0.886   5.560   5.377  1.5424 -1.3116 -0.8315
  114MOL   H18129787   0.711   5.551   5.380  0.4864 -1.0538 -0.1765
  114MOL   H18229788   0.850   5.444   5.722 -1.9698  1.7994 -0.5126
  114MOL   H18329789   0.885   5.584   5.632  0.5808  0.0766 -0.3504
  114MOL   C18429790   1.037   5.447   5.595  0.3722  0.1926 -0.4757
  114MOL   C18529791   1.123   5.499   5.702  0.3178 -0.4498  0.2732
  114MOL   C18629792   1.153   5.435   5.816  0.1423 -0.1219 -0.1649
  114MOL   C18729793   1.258   5.487   5.909 -0.5040  0.3928 -0.3226
  114MOL   C18829794   1.097   5.298   5.857  0.2874  0.3215  0.4824
  114MOL   H18929795   1.068   5.479   5.496  0.3435 -2.1049 -1.2424
  114MOL   H19029796   1.043   5.339   5.588  0.6594  0.1476  0.3903
  114MOL   H19129797   1.163   5.597   5.680 -3.4359  1.1989  0.2224
  114MOL   H19229798   1.344   5.420   5.915 -1.9802 -1.4597  0.6977
  114MOL   H19329799   1.213   5.506   6.006  2.5476 -0.5600  1.3563
  114MOL   H19429800   1.294   5.582   5.869 -1.2049  1.1485  0.8056
  114MOL   H19529801   0.997   5.275   5.819  1.5812 -2.2072 -1.4910
  114MOL   H19629802   1.100   5.286   5.966  0.6914 -3.3080  0.1040
  114MOL   C19729803   1.172   5.177   5.796 -0.3783  0.4752 -0.1926
  114MOL   C19829804   1.121   5.047   5.848  0.1998  0.3049 -0.4578
  114MOL   C19929805   1.015   4.974   5.803 -0.4394 -0.5988  0.7256
  114MOL   C20029806   0.971   4.856   5.881  0.5470 -0.5944  0.8297
  114MOL   C20129807   0.944   4.999   5.679  0.4328 -0.2357  0.1619
  114MOL   H20229808   1.276   5.187   5.827 -0.1725 -0.1936 -0.6680
  114MOL   H20329809   1.168   5.165   5.688 -0.1612  1.2378 -0.2906
  114MOL   H20429810   1.166   5.010   5.939  3.4614 -0.9582 -2.4887
  114MOL   H20529811   0.992   4.866   5.987 -0.1871  0.9238  0.8324
  114MOL   H20629812   1.023   4.772   5.834  0.6303  0.8732 -1.8329
  114MOL   H20729813   0.864   4.866   5.866  0.2447 -0.3165  3.1236
  114MOL   H20829814   0.953   5.103   5.649  1.6175 -0.0017  1.3345
  114MOL   H20929815   0.838   4.976   5.692 -0.1614  2.4423  0.2743
  114MOL   C21029816   0.996   4.905   5.567  0.1292 -0.5200  0.5648
  114MOL   C21129817   0.910   4.919   5.441 -0.3225 -0.6028  0.0756
  114MOL   C21229818   0.901   4.842   5.332  0.2043 -0.4007 -0.6638
  114MOL   C21329819   0.823   4.884   5.203  1.0156  0.1007  0.2326
  114MOL   C21429820   0.974   4.701   5.326 -0.0006 -0.0347  0.3017
  114MOL   H21529821   1.004   4.801   5.600 -0.0526 -1.2422 -1.5762
  114MOL   H21629822   1.099   4.928   5.540  0.3372 -3.1731 -1.1333
  114MOL   H21729823   0.867   5.016   5.428 -1.5331 -0.9289  1.4976
  114MOL   H21829824   0.760   4.800   5.175 -0.3722  1.2060 -0.0187
  114MOL   H21929825   0.882   4.921   5.119 -0.9070 -1.7531 -1.9875
  114MOL   H22029826   0.766   4.975   5.221 -0.7857 -1.1138  0.7115
  114MOL   H22129827   0.899   4.625   5.352 -2.1364  1.4496 -1.2906
  114MOL   H22229828   1.047   4.696   5.406  1.7401  1.6737 -1.1428
  114MOL   C22329829   1.026   4.664   5.183 -0.1912  0.0561  0.0855
  114MOL   C22429830   1.121   4.539   5.183  0.0070 -1.2276 -0.5109
  114MOL   C22529831   1.258   4.527   5.170  0.1104  0.0292 -0.3871
  114MOL   C22629832   1.320   4.385   5.170 -0.9377 -0.2300 -0.2732
  114MOL   C22729833   1.360   4.639   5.144 -0.9262  0.0116  0.1822
  114MOL   H22829834   1.076   4.743   5.127  0.5585 -0.5640 -0.1150
  114MOL   H22929835   0.937   4.645   5.123  0.3984 -0.9334 -0.4894
  114MOL   H23029836   1.063   4.447   5.178 -1.9707  0.0868 -2.9999
  114MOL   H23129837   1.360   4.374   5.069 -0.0277 -0.8226  0.1404
  114MOL   H23229838   1.243   4.310   5.189 -0.4889 -0.3954  0.9089
  114MOL   H23329839   1.407   4.374   5.235  1.5245  0.6386 -3.2682
  114MOL   H23429840   1.297   4.725   5.120 -1.1705 -0.2930 -0.2690
  114MOL   H23529841   1.415   4.612   5.054  1.3747 -0.4575  1.6671
  114MOL   C23629842   1.458   4.675   5.259 -0.2720  0.0259  0.3299
  114MOL   C23729843   1.391   4.675   5.402 -0.4129 -0.2915  0.2764
  114MOL   C23829844   1.397   4.763   5.499  0.2897  0.2733  0.0449
  114MOL   C23929845   1.349   4.733   5.636  0.2018 -0.8740  0.3460
  114MOL   C24029846   1.496   4.886   5.492  0.3551  0.1783  0.0776
  114MOL   H24129847   1.510   4.766   5.228 -0.3333 -0.1506 -0.3048
  114MOL   H24229848   1.544   4.608   5.260  0.9335  1.5553  1.0271
  114MOL   H24329849   1.313   4.602   5.419 -2.8164  1.7817 -1.3964
  114MOL   H24429850   1.295   4.823   5.668 -1.0392 -1.4923  0.0433
  114MOL   H24529851   1.424   4.732   5.715 -1.0691 -1.6152  1.5619
  114MOL   H24629852   1.270   4.659   5.646  0.7773 -1.5311  0.0229
  114MOL   H24729853   1.533   4.902   5.390 -0.5784  3.1806  0.1508
  114MOL   H24829854   1.583   4.858   5.551 -0.1640  1.0616  1.2891
  114MOL   C24929855   1.432   5.024   5.532 -0.1904  0.1185  0.1387
  114MOL   C25029856   1.513   5.149   5.510  0.5916  0.1029 -0.0155
  114MOL   C25129857   1.470   5.268   5.464  0.1791 -0.0171  0.3230
  114MOL   C25229858   1.566   5.380   5.436 -0.3318 -0.4481  0.3593
  114MOL   C25329859   1.327   5.291   5.412 -0.7007 -0.2925  0.0480
  114MOL   H25429860   1.411   5.022   5.638 -0.9632  0.5082 -0.0046
  114MOL   H25529861   1.334   5.022   5.483  0.3261  0.0951 -0.9016
  114MOL   H25629862   1.619   5.140   5.526  0.1290 -0.0310  3.3507
  114MOL   H25729863   1.637   5.392   5.518 -0.7914  0.7019  0.6043
  114MOL   H25829864   1.516   5.477   5.437 -1.3333 -0.9801  1.7438
  114MOL   H25929865   1.622   5.367   5.343  0.2627  0.9530  0.4959
  114MOL   H26029866   1.246   5.230   5.451 -0.5395 -0.5917 -0.0782
  114MOL   H26129867   1.323   5.288   5.303 -0.1241  0.1954  0.0054
  114MOL   H26229868   1.292   5.390   5.439 -3.5570 -1.0956 -0.5993
  115MOL     C129869   1.778   4.079   3.726  0.3068 -0.0535  0.3814
  115MOL     C229870   1.909   4.092   3.647 -1.4887 -0.7420  0.2553
  115MOL     C329871   2.035   4.108   3.697 -0.5751  0.0818  0.9768
  115MOL     C429872   2.145   4.109   3.600 -0.2583 -0.6053  0.3658
  115MOL     C529873   2.074   4.118   3.840 -0.5285  0.1464  0.0696
  115MOL     H629874   1.695   4.130   3.677 -0.5172 -1.1971  0.5892
  115MOL     H729875   1.757   3.973   3.737  1.4615 -0.3281  0.0512
  115MOL     H829876   1.896   4.086   3.540 -1.1546 -0.6115  0.2067
  115MOL     H929877   2.221   4.032   3.616 -0.0103 -0.2213  1.0330
  115MOL    H1029878   2.186   4.210   3.599  1.1592 -1.1182  2.6743
  115MOL    H1129879   2.112   4.090   3.497 -1.7245 -0.3683  0.7859
  115MOL    H1229880   1.991   4.161   3.896  0.3314  1.6212  0.2228
  115MOL    H1329881   2.165   4.177   3.843  0.3494 -1.1187 -1.0313
  115MOL    H1429882   1.777   4.122   3.826 -1.7159  2.1990 -0.5514
  115MOL    C1529883   2.103   3.980   3.902  0.4101 -0.5799 -0.3234
  115MOL    C1629884   2.140   3.996   4.047 -0.5052 -0.1150 -0.6623
  115MOL    C1729885   2.095   3.925   4.155  0.3946 -0.0253  0.2406
  115MOL    C1829886   2.125   3.983   4.295  0.2659  0.9526 -0.2255
  115MOL    C1929887   2.002   3.807   4.152  0.5856 -0.0290  0.2855
  115MOL    H2029888   2.178   3.921   3.849 -0.1477 -2.4073  0.8787
  115MOL    H2129889   2.012   3.922   3.892 -1.5153  2.0277  1.4901
  115MOL    H2229890   2.206   4.080   4.065  0.4029 -0.8753 -0.3914
  115MOL    H2329891   2.112   3.916   4.381  3.4604  2.2834  1.4039
  115MOL    H2429892   2.079   4.080   4.312  0.5840  1.5249 -2.5304
  115MOL    H2529893   2.229   4.015   4.286  0.2364  0.9433 -0.6084
  115MOL    H2629894   2.033   3.731   4.223  0.3901  1.4145  1.9558
  115MOL    H2729895   2.001   3.760   4.054 -1.0293  1.0591 -0.2448
  115MOL    C2829896   1.862   3.842   4.193  0.9900  0.1964 -0.2082
  115MOL    C2929897   1.773   3.717   4.191 -0.2083  0.1123 -0.2338
  115MOL    C3029898   1.672   3.686   4.110 -0.2316 -0.2875 -0.2542
  115MOL    C3129899   1.618   3.545   4.116 -0.1343 -0.0242  0.0104
  115MOL    C3229900   1.608   3.780   4.011 -0.1113 -0.2112 -0.7243
  115MOL    H3329901   1.832   3.919   4.121 -0.3816 -0.5248 -0.4216
  115MOL    H3429902   1.852   3.885   4.292  0.4133  0.7619 -0.5078
  115MOL    H3529903   1.801   3.642   4.263 -0.6248  0.8454  0.7028
  115MOL    H3629904   1.517   3.524   4.152 -0.3044 -0.9081 -0.9458
  115MOL    H3729905   1.679   3.475   4.173 -1.7550 -0.2800  1.5021
  115MOL    H3829906   1.625   3.516   4.011 -3.1127  2.4119 -0.9441
  115MOL    H3929907   1.598   3.716   3.924  0.0838 -2.8294  1.1047
  115MOL    H4029908   1.659   3.873   3.989  1.0272  0.0051  2.4539
  115MOL    C4129909   1.461   3.810   4.049 -0.1313  0.5082  0.3187
  115MOL    C4229910   1.370   3.836   3.930 -0.5851 -0.3191  0.3218
  115MOL    C4329911   1.279   3.756   3.875  0.3231  0.4330 -0.7865
  115MOL    C4429912   1.212   3.800   3.754 -0.1509 -1.0992 -0.1955
  115MOL    C4529913   1.243   3.617   3.926  0.3523 -0.0932  0.2433
  115MOL    H4629914   1.448   3.897   4.113  2.0390  0.4936  0.8099
  115MOL    H4729915   1.430   3.725   4.110 -1.5030  1.1546  0.5325
  115MOL    H4829916   1.387   3.930   3.879  0.3292 -0.0171  1.1680
  115MOL    H4929917   1.106   3.826   3.758 -0.1434 -1.2953  2.1018
  115MOL    H5029918   1.230   3.726   3.676  0.0389 -0.1521 -1.0694
  115MOL    H5129919   1.269   3.885   3.718  1.7705 -2.0937  0.4374
  115MOL    H5229920   1.311   3.603   4.010 -1.3263  3.8972  2.4158
  115MOL    H5329921   1.263   3.546   3.846 -1.1032  2.4347 -2.4539
  115MOL    C5429922   1.101   3.602   3.988  0.4931  0.1360  0.3998
  115MOL    C5529923   1.067   3.473   4.062  0.3045 -0.1124 -0.5144
  115MOL    C5629924   1.105   3.442   4.187  0.7230 -0.4779  0.1047
  115MOL    C5729925   1.079   3.302   4.240 -0.3362 -0.7525 -0.3344
  115MOL    C5829926   1.170   3.532   4.289  0.0248 -0.0435  0.1897
  115MOL    H5929927   1.030   3.613   3.906 -0.8508 -0.0488  1.5159
  115MOL    H6029928   1.083   3.678   4.064  0.9876  1.2927 -0.6277
  115MOL    H6129929   1.027   3.393   4.001 -0.0604  0.1638 -0.6320
  115MOL    H6229930   1.171   3.249   4.264 -0.5258 -1.2846 -0.7691
  115MOL    H6329931   1.007   3.255   4.173 -1.0677 -0.9100  0.5414
  115MOL    H6429932   1.025   3.316   4.334  0.9236 -0.9476  0.4273
  115MOL    H6529933   1.240   3.595   4.235  0.6254 -0.4749  0.4652
  115MOL    H6629934   1.233   3.473   4.355 -0.3032 -3.0233 -2.0352
  115MOL    C6729935   1.068   3.606   4.377 -0.6913 -0.0094 -0.7358
  115MOL    C6829936   1.130   3.702   4.474 -0.2254 -0.3687 -0.2251
  115MOL    C6929937   1.118   3.699   4.612 -0.0574  0.3167 -0.3016
  115MOL    C7029938   1.181   3.815   4.691 -0.1652 -0.2716 -0.0932
  115MOL    C7129939   1.053   3.582   4.696  0.0494 -0.4950  0.1422
  115MOL    H7229940   1.012   3.528   4.428  1.1131 -0.7961  0.0762
  115MOL    H7329941   0.987   3.645   4.315 -1.4407 -0.3626  0.0208
  115MOL    H7429942   1.180   3.784   4.425  0.0393  1.0402  2.3146
  115MOL    H7529943   1.159   3.919   4.665  1.6630  0.3044  0.5288
  115MOL    H7629944   1.287   3.816   4.666 -0.1897  2.2568 -0.2728
  115MOL    H7729945   1.159   3.805   4.797  0.1753  0.9214  0.1051
  115MOL    H7829946   0.948   3.565   4.677  0.4159 -0.9071 -1.6000
  115MOL    H7929947   1.052   3.598   4.803 -0.1754 -1.8796  0.3500
  115MOL    C8029948   1.135   3.452   4.680  0.2073 -0.5735  0.3799
  115MOL    C8129949   1.053   3.336   4.722 -0.4091  0.4687  0.5668
  115MOL    C8229950   1.087   3.233   4.794 -0.1154  0.3462 -0.3716
  115MOL    C8329951   1.228   3.207   4.857 -0.1199  0.9722 -0.1820
  115MOL    C8429952   0.992   3.114   4.802  0.2849  0.4645 -0.9112
  115MOL    H8529953   1.234   3.462   4.724  0.7354  2.1835 -1.2966
  115MOL    H8629954   1.155   3.428   4.576  0.9946 -0.9004  0.6044
  115MOL    H8729955   0.961   3.328   4.667 -0.1963 -2.9190  0.5621
  115MOL    H8829956   1.219   3.144   4.946  1.9662 -0.5430 -1.0051
  115MOL    H8929957   1.293   3.293   4.873 -0.3071  1.2334 -0.8535
  115MOL    H9029958   1.287   3.146   4.789 -1.8511 -1.1172  0.1397
  115MOL    H9129959   0.898   3.139   4.751 -1.3272 -1.9258  0.7754
  115MOL    H9229960   0.966   3.096   4.906 -2.2261 -1.3292 -1.8124
  115MOL    C9329961   1.051   2.983   4.754  0.1320 -0.2318 -0.1264
  115MOL    C9429962   0.944   2.876   4.769 -0.6345  0.3696  0.1925
  115MOL    C9529963   0.931   2.760   4.697 -0.6836 -0.2700  0.2974
  115MOL    C9629964   0.820   2.659   4.730 -0.0960  0.5021  0.2514
  115MOL    C9729965   1.016   2.717   4.570  0.3189 -1.0440 -0.4055
  115MOL    H9829966   1.143   2.954   4.806  0.1047  0.9504  0.5943
  115MOL    H9929967   1.073   2.980   4.647 -0.9958 -2.7560 -0.3241
  115MOL   H10029968   0.874   2.897   4.849 -1.5595 -0.1337 -0.4759
  115MOL   H10129969   0.754   2.695   4.810 -0.2393  3.9804 -1.3557
  115MOL   H10229970   0.753   2.637   4.647  0.6974 -3.1356  0.5145
  115MOL   H10329971   0.865   2.566   4.763 -2.3155 -0.4240  0.7666
  115MOL   H10429972   1.038   2.613   4.594  1.1018 -1.0981 -1.3027
  115MOL   H10529973   1.107   2.777   4.569  0.2439 -0.9043  0.7372
  115MOL   C10629974   0.933   2.734   4.439 -0.5159  0.8665  0.7709
  115MOL   C10729975   1.007   2.700   4.314  0.1480 -0.3313 -0.2399
  115MOL   C10829976   0.984   2.611   4.217  0.1109 -0.2721 -0.2521
  115MOL   C10929977   0.868   2.516   4.218 -0.0327  0.0825 -0.0489
  115MOL   C11029978   1.071   2.604   4.094 -0.2547 -0.0242 -0.0805
  115MOL   H11129979   0.905   2.836   4.415  0.2365  0.4231 -2.1748
  115MOL   H11229980   0.837   2.684   4.455 -0.4461  0.3271 -0.4845
  115MOL   H11329981   1.092   2.764   4.293 -0.6552  1.2835  1.2855
  115MOL   H11429982   0.808   2.526   4.308 -0.9294 -1.7483 -0.4256
  115MOL   H11529983   0.801   2.501   4.133  1.2160 -2.1419 -0.6879
  115MOL   H11629984   0.912   2.418   4.234  0.8860 -0.1069 -3.3499
  115MOL   H11729985   1.102   2.501   4.081 -1.4699 -0.2287 -1.5459
  115MOL   H11829986   1.160   2.666   4.100  0.7767 -1.4294 -0.8158
  115MOL   C11929987   0.999   2.628   3.964  0.5786 -0.2509 -0.1842
  115MOL   C12029988   1.097   2.644   3.840  0.6216 -0.2519  0.3079
  115MOL   C12129989   1.094   2.743   3.755 -0.5804 -0.1184  0.0893
  115MOL   C12229990   1.183   2.745   3.629 -0.6107 -0.0810  0.3129
  115MOL   C12329991   0.993   2.856   3.762  0.8486  0.4758 -0.3208
  115MOL   H12429992   0.942   2.719   3.985 -0.2708 -1.3450  2.5400
  115MOL   H12529993   0.930   2.548   3.936 -0.0427  1.1031 -2.6336
  115MOL   H12629994   1.179   2.575   3.840  0.8703  0.0301  1.4254
  115MOL   H12729995   1.127   2.695   3.550 -0.2916 -0.9823  0.6373
  115MOL   H12829996   1.276   2.692   3.652 -1.0360 -0.8795  0.2083
  115MOL   H12929997   1.223   2.839   3.591 -0.8027  0.2895  1.0259
  115MOL   H13029998   0.893   2.826   3.795  0.5804  1.9176  0.2374
  115MOL   H13129999   0.984   2.900   3.662 -0.1766  3.0161  0.8322
  115MOL   C13230000   1.046   2.962   3.858  0.4057 -0.2485 -0.1145
  115MOL   C13330001   0.950   3.073   3.874  0.3134  0.0154  0.5990
  115MOL   C13430002   0.842   3.070   3.956  0.2498  0.0338 -0.2089
  115MOL   C13530003   0.755   3.193   3.951  0.0078 -0.2101  0.0132
  115MOL   C13630004   0.797   2.955   4.055  0.7376 -0.1651  0.6396
  115MOL   H13730005   1.141   2.993   3.816 -0.4480 -0.6621 -2.4150
  115MOL   H13830006   1.074   2.910   3.950 -0.5778 -1.0191 -0.2445
  115MOL   H13930007   0.964   3.158   3.808 -1.9041 -0.2558 -0.2511
  115MOL   H14030008   0.794   3.268   3.882 -1.6727 -0.0790 -0.8128
  115MOL   H14130009   0.740   3.245   4.045 -0.5289 -0.2155 -0.0686
  115MOL   H14230010   0.657   3.177   3.907  0.1266  0.3926 -0.4880
  115MOL   H14330011   0.767   3.006   4.147  1.9223  2.9652 -0.6463
  115MOL   H14430012   0.877   2.893   4.093 -0.3534 -1.1060  1.4384
  115MOL   C14530013   0.670   2.874   4.007 -0.3853  0.2794 -0.0534
  115MOL   C14630014   0.620   2.761   4.099  0.4783 -0.3901 -0.3101
  115MOL   C14730015   0.558   2.647   4.060  0.2669  0.3596 -0.2671
  115MOL   C14830016   0.522   2.538   4.160 -0.6813 -0.3187  0.3672
  115MOL   C14930017   0.508   2.617   3.920 -0.0285 -0.0317  0.1622
  115MOL   H15030018   0.683   2.837   3.905  1.0259 -0.0183  0.2309
  115MOL   H15130019   0.583   2.940   4.009 -0.7709 -0.2485  0.7082
  115MOL   H15230020   0.644   2.767   4.204 -0.6625  2.6300 -0.1704
  115MOL   H15330021   0.557   2.438   4.132  1.1940  0.0934  1.1651
  115MOL   H15430022   0.413   2.537   4.153 -0.5097  0.0102 -3.0512
  115MOL   H15530023   0.557   2.551   4.262  2.4915  0.1800 -0.7418
  115MOL   H15630024   0.500   2.707   3.859 -1.7079  0.5795  1.2709
  115MOL   H15730025   0.407   2.577   3.928 -0.5923  1.2358 -0.6105
  115MOL   C15830026   0.601   2.514   3.856 -0.1869 -0.5130 -0.5261
  115MOL   C15930027   0.563   2.483   3.712 -0.1385 -0.2049 -0.1188
  115MOL   C16030028   0.611   2.543   3.603  0.3173  0.4379 -0.6939
  115MOL   C16130029   0.700   2.663   3.617  0.9236  0.5780 -0.0315
  115MOL   C16230030   0.586   2.490   3.465  0.2685 -0.0120  0.0442
  115MOL   H16330031   0.605   2.418   3.907  1.6501 -0.2936 -0.2060
  115MOL   H16430032   0.704   2.550   3.857 -0.7415  1.0965 -0.5260
  115MOL   H16530033   0.499   2.399   3.690  0.8267 -0.7346 -0.9508
  115MOL   H16630034   0.711   2.710   3.714  2.3727  2.7493 -1.1915
  115MOL   H16730035   0.687   2.738   3.539 -1.8458  0.6648  0.4396
  115MOL   H16830036   0.798   2.627   3.587  0.8770  0.6536 -0.2789
  115MOL   H16930037   0.554   2.582   3.416 -3.0280 -0.2043  1.6831
  115MOL   H17030038   0.502   2.421   3.464 -0.0147  0.3211  0.4457
  115MOL   C17130039   0.706   2.417   3.413  0.0951 -0.4612 -0.4419
  115MOL   C17230040   0.675   2.331   3.293  0.4350 -0.0091  0.5070
  115MOL   C17330041   0.719   2.356   3.168  0.6141 -0.1259 -0.9117
  115MOL   C17430042   0.808   2.471   3.126 -0.4022 -0.9393  0.7170
  115MOL   C17530043   0.688   2.259   3.058  1.1312  0.5447  0.5368
  115MOL   H17630044   0.744   2.344   3.484  1.8027  0.2639 -0.5710
  115MOL   H17730045   0.783   2.494   3.405 -0.8134  0.4985  0.0578
  115MOL   H17830046   0.601   2.255   3.314  1.6225 -0.7151  2.2557
  115MOL   H17930047   0.899   2.468   3.187  0.5425  1.8264 -0.5138
  115MOL   H18030048   0.744   2.559   3.129  1.0446  0.1127  1.3100
  115MOL   H18130049   0.849   2.468   3.025  2.3936 -0.8892  1.7945
  115MOL   H18230050   0.618   2.183   3.096 -0.1905  2.3185  1.7494
  115MOL   H18330051   0.774   2.209   3.014 -0.3729 -1.5780 -0.1007
  115MOL   C18430052   0.605   2.325   2.946  0.1595 -0.6009  0.1475
  115MOL   C18530053   0.547   2.223   2.850  0.6260 -0.2519  0.3930
  115MOL   C18630054   0.584   2.198   2.724  0.3240  0.5670  0.4073
  115MOL   C18730055   0.518   2.086   2.645  0.2253 -0.9072  0.2173
  115MOL   C18830056   0.686   2.278   2.644 -0.0319  0.2842  0.7338
  115MOL   H18930057   0.672   2.397   2.899 -1.1698  0.3068 -0.3919
  115MOL   H19030058   0.531   2.394   2.986 -0.1100  0.2165 -1.7055
  115MOL   H19130059   0.473   2.154   2.888  1.6178 -1.7136 -0.2778
  115MOL   H19230060   0.594   2.011   2.625 -0.0769 -0.9498 -0.7990
  115MOL   H19330061   0.478   2.118   2.549  1.6561  1.2948  0.3199
  115MOL   H19430062   0.438   2.043   2.706  0.7028  0.3038  1.7529
  115MOL   H19530063   0.758   2.206   2.604 -0.1906  0.4434  0.1578
  115MOL   H19630064   0.741   2.348   2.706 -0.1325  0.3766  0.7177
  115MOL   C19730065   0.626   2.351   2.531  0.2630 -0.5025 -0.0353
  115MOL   C19830066   0.737   2.430   2.466  0.3953 -0.5904  1.0221
  115MOL   C19930067   0.809   2.384   2.359  0.6132 -0.6516  0.1994
  115MOL   C20030068   0.918   2.468   2.284  0.3063 -0.0750  0.0003
  115MOL   C20130069   0.787   2.242   2.301 -0.5037  0.1554  0.0865
  115MOL   H20230070   0.557   2.430   2.563  1.1334  0.0250  0.5604
  115MOL   H20330071   0.575   2.282   2.464 -2.8689  1.0282  0.6670
  115MOL   H20430072   0.762   2.527   2.506 -1.3832  0.0628  0.5483
  115MOL   H20530073   0.893   2.462   2.178 -1.7471  1.7270  0.3517
  115MOL   H20630074   1.015   2.432   2.317  0.1187 -2.6078 -2.0576
  115MOL   H20730075   0.911   2.572   2.316  0.3434 -0.3630  0.9429
  115MOL   H20830076   0.745   2.170   2.370 -0.2069  1.5894  1.7957
  115MOL   H20930077   0.889   2.208   2.286 -1.2310 -3.1007  2.0554
  115MOL   C21030078   0.692   2.254   2.183  0.2737 -0.9209 -0.1712
  115MOL   C21130079   0.660   2.120   2.122  0.4191 -0.4781 -0.8360
  115MOL   C21230080   0.555   2.089   2.041 -0.2087 -0.5368  0.1899
  115MOL   C21330081   0.536   1.946   2.011 -0.0462 -0.0745  0.7379
  115MOL   C21430082   0.443   2.179   1.989 -0.8079 -0.4776  0.1440
  115MOL   H21530083   0.749   2.294   2.099 -0.5917  0.2870 -0.1885
  115MOL   H21630084   0.608   2.323   2.194 -0.8698 -1.9340 -2.2144
  115MOL   H21730085   0.734   2.045   2.147 -1.2218 -1.3499  1.5445
  115MOL   H21830086   0.611   1.886   2.062  0.6628  1.2837  1.3301
  115MOL   H21930087   0.547   1.922   1.906 -0.5008  2.2445  0.1403
  115MOL   H22030088   0.442   1.912   2.055 -0.6065  0.7924  0.2321
  115MOL   H22130089   0.442   2.273   2.046 -0.2167 -0.1512 -0.3772
  115MOL   H22230090   0.351   2.122   2.003  0.1227 -2.2195 -0.7787
  115MOL   C22330091   0.457   2.216   1.840 -0.1733 -0.0200 -0.7841
  115MOL   C22430092   0.324   2.261   1.772  0.1212  0.4054 -0.0698
  115MOL   C22530093   0.241   2.176   1.710  0.6530 -0.3827 -0.7397
  115MOL   C22630094   0.118   2.232   1.643 -0.0118 -0.2146  0.2895
  115MOL   C22730095   0.265   2.022   1.697 -0.5550 -0.1275  0.5225
  115MOL   H22830096   0.506   2.136   1.784  0.9075  0.2557 -0.2479
  115MOL   H22930097   0.526   2.300   1.842 -0.2089  0.0118 -0.9215
  115MOL   H23030098   0.303   2.365   1.794  0.0066  0.0559  1.5791
  115MOL   H23130099   0.033   2.172   1.675 -0.2467 -0.3070 -0.4882
  115MOL   H23230100   0.121   2.232   1.534  0.3350  1.4879  0.2857
  115MOL   H23330101   0.103   2.333   1.681  0.8676 -0.4973  1.4213
  115MOL   H23430102   0.177   1.968   1.733 -0.3395  1.2028  3.1502
  115MOL   H23530103   0.348   1.986   1.758 -0.2422  0.7320  0.6096
  115MOL   C23630104   0.305   1.978   1.550 -0.0380  0.0923  0.7211
  115MOL   C23730105   0.352   1.834   1.543  0.4326 -0.5925  0.4445
  115MOL   C23830106   0.381   1.769   1.425  0.2052 -0.2721 -0.2974
  115MOL   C23930107   0.418   1.621   1.431  0.3000 -0.5209 -0.2309
  115MOL   C24030108   0.360   1.826   1.288 -0.3041  0.0812  0.5612
  115MOL   H24130109   0.382   2.043   1.509 -1.0284  1.5446  1.1190
  115MOL   H24230110   0.216   1.976   1.486  0.5230 -1.5569 -0.0413
  115MOL   H24330111   0.350   1.774   1.633 -1.6712  1.1843  1.6463
  115MOL   H24430112   0.336   1.560   1.393 -1.5524  1.1138  1.0379
  115MOL   H24530113   0.440   1.572   1.526 -1.0370 -0.5600  0.0674
  115MOL   H24630114   0.499   1.598   1.362 -0.9816  0.0131 -1.9324
  115MOL   H24730115   0.330   1.930   1.275 -2.3458 -0.4924  0.3741
  115MOL   H24830116   0.275   1.767   1.254 -0.3948  0.7976 -0.4707
  115MOL   C24930117   0.473   1.797   1.185 -0.1342 -0.1662  0.0088
  115MOL   C25030118   0.597   1.881   1.216 -0.1942 -0.4966 -1.1068
  115MOL   C25130119   0.721   1.835   1.236 -0.6635 -0.1785 -0.2208
  115MOL   C25230120   0.839   1.936   1.251 -0.1933 -0.7024  0.3233
  115MOL   C25330121   0.754   1.685   1.225  0.3631  0.2227 -0.8020
  115MOL   H25430122   0.427   1.826   1.090 -1.9226 -1.4512  0.4587
  115MOL   H25530123   0.495   1.692   1.167 -1.0506 -0.5614  1.1626
  115MOL   H25630124   0.589   1.988   1.206  1.1700 -0.1295  1.3603
  115MOL   H25730125   0.914   1.932   1.172  0.3177  1.1775  0.6895
  115MOL   H25830126   0.889   1.923   1.347  1.6945  1.2046 -0.3628
  115MOL   H25930127   0.809   2.040   1.261 -0.1056 -0.6786  0.3384
  115MOL   H26030128   0.706   1.625   1.147 -1.8782  0.5457  0.2748
  115MOL   H26130129   0.732   1.627   1.315  0.2966  1.1968 -0.1837
  115MOL   H26230130   0.861   1.672   1.208  1.0269  0.8308  2.5865
  116MOL     C130131   2.927   7.678   5.026  0.3121  0.7606  0.0382
  116MOL     C230132   2.883   7.731   4.888 -0.2411  0.0411  1.0771
  116MOL     C330133   2.948   7.732   4.766  0.5309 -0.3040 -0.3525
  116MOL     C430134   2.880   7.774   4.635 -0.5878  0.1914 -0.0265
  116MOL     C530135   3.095   7.690   4.747  0.6076 -0.4632  0.1973
  116MOL     H630136   2.889   7.737   5.110  0.5725  0.1763  0.5691
  116MOL     H730137   2.890   7.576   5.030  1.6287  0.2776  0.0908
  116MOL     H830138   2.780   7.764   4.889 -0.5282 -0.8352  1.0269
  116MOL     H930139   2.907   7.712   4.549  1.9996 -1.6582  2.0049
  116MOL    H1030140   2.924   7.867   4.600 -0.1505  0.4007  1.0316
  116MOL    H1130141   2.773   7.780   4.651 -0.8716 -0.3656 -1.6644
  116MOL    H1230142   3.087   7.621   4.663  1.4409 -0.7559  0.3563
  116MOL    H1330143   3.125   7.623   4.828  3.1692 -0.5979 -0.8176
  116MOL    H1430144   3.035   7.683   5.040  0.3562 -0.2721  0.0803
  116MOL    C1530145   3.186   7.808   4.725 -0.7292  0.6256  0.0910
  116MOL    C1630146   3.182   0.026   4.843  0.4285 -0.0869  0.2281
  116MOL    C1730147   3.276   0.067   4.931 -0.1180 -0.7000  0.5991
  116MOL    C1830148   3.250   0.173   5.029  0.7428  0.2523  0.1528
  116MOL    C1930149   3.417   0.003   4.931 -0.3513  0.4049 -0.0252
  116MOL    H2030150   3.147   7.853   4.633 -0.0557  0.5972 -0.2134
  116MOL    H2130151   3.287   7.770   4.708 -1.4761 -1.1591 -0.5207
  116MOL    H2230152   3.086   0.073   4.859 -0.0354 -0.8415 -0.3040
  116MOL    H2330153   3.325   0.250   5.011 -0.0714  0.9676 -0.1838
  116MOL    H2430154   3.280   0.140   5.129  0.9074  0.2212  0.0939
  116MOL    H2530155   3.148   0.211   5.026  0.4639 -0.2353  2.3688
  116MOL    H2630156   3.488   0.073   4.977 -0.0509 -0.7291  1.2520
  116MOL    H2730157   3.467   7.864   4.835  0.0779 -1.2977  0.4969
  116MOL    C2830158   3.403   7.762   5.020 -0.1068 -0.5002 -0.2805
  116MOL    C2930159   3.526   7.663   5.018  0.4152 -1.1748 -0.0136
  116MOL    C3030160   3.520   7.530   5.008  0.4429 -0.3458 -0.5175
  116MOL    C3130161   3.648   7.456   5.042  1.1803 -0.2334  0.7126
  116MOL    C3230162   3.388   7.454   5.007 -0.3636  0.4810  0.1253
  116MOL    H3330163   3.321   7.697   4.990 -1.1007  0.0279  1.2574
  116MOL    H3430164   3.368   7.793   5.118 -1.0826 -0.4727 -0.6271
  116MOL    H3530165   3.621   7.709   5.043 -1.3620  1.9796  1.2450
  116MOL    H3630166   3.652   7.435   5.149  1.5167 -1.2791  0.5021
  116MOL    H3730167   3.735   7.517   5.018  0.1586  1.1418  0.4224
  116MOL    H3830168   3.675   7.367   4.984  0.3970  0.2732 -0.4518
  116MOL    H3930169   3.418   7.359   4.962  1.0626  1.6425 -1.4150
  116MOL    H4030170   3.313   7.485   4.934 -1.1412 -1.7435 -0.0659
  116MOL    C4130171   3.327   7.429   5.145  0.2314  0.0042 -0.4362
  116MOL    C4230172   3.415   7.358   5.250 -0.6822  0.5544 -0.2960
  116MOL    C4330173   3.481   7.410   5.355  0.8988 -0.3364 -0.5796
  116MOL    C4430174   3.549   7.325   5.459  0.6618 -0.7183 -0.0910
  116MOL    C4530175   3.491   7.555   5.389  0.3317 -0.1025 -0.5876
  116MOL    H4630176   3.229   7.381   5.145  0.0212  0.4056 -1.8488
  116MOL    H4730177   3.320   7.532   5.181 -1.4749  0.1348 -1.1057
  116MOL    H4830178   3.403   7.251   5.236 -0.5125  0.5749 -0.6107
  116MOL    H4930179   3.502   7.325   5.558 -0.2544 -0.0562 -0.5170
  116MOL    H5030180   3.645   7.365   5.489  0.4593 -0.3128  0.0185
  116MOL    H5130181   3.548   7.221   5.426  2.0941 -0.5970 -0.5139
  116MOL    H5230182   3.500   7.607   5.293  0.5152 -0.8014 -0.9520
  116MOL    H5330183   3.583   7.586   5.438 -0.8242  0.8622  1.0126
  116MOL    C5430184   3.369   7.610   5.476  0.7812  0.8348 -0.3619
  116MOL    C5530185   3.323   7.752   5.449  0.1855 -0.4031 -0.1107
  116MOL    C5630186   3.325   7.859   5.529  0.0934 -0.5995  0.0956
  116MOL    C5730187   3.285   0.121   5.481  1.2429 -0.3059  0.2682
  116MOL    C5830188   3.374   7.857   5.670 -0.8831 -0.0160 -1.0054
  116MOL    H5930189   3.392   7.586   5.580  1.1396 -1.1519 -0.8673
  116MOL    H6030190   3.283   7.544   5.468  0.1635  1.8516 -2.1175
  116MOL    H6130191   3.273   7.763   5.354  0.0273  0.6475  0.0834
  116MOL    H6230192   3.225   0.164   5.561 -2.7067 -0.8694 -2.2385
  116MOL    H6330193   3.241   0.135   5.382 -0.8621 -2.1768  0.9151
  116MOL    H6430194   3.369   0.190   5.483  0.9388  0.1986 -2.2711
  116MOL    H6530195   3.427   0.072   5.687 -2.3569  0.2299  2.7863
  116MOL    H6630196   3.444   7.774   5.674  0.4021  1.1225  1.4491
  116MOL    C6730197   3.262   7.837   5.768  0.4210  0.1646  0.1494
  116MOL    C6830198   3.302   7.855   5.908  0.2155  0.7004  0.3635
  116MOL    C6930199   3.245   7.801   6.017 -0.2884  0.1294 -0.1961
  116MOL    C7030200   3.289   7.840   6.160  0.7048  0.1592 -0.6467
  116MOL    C7130201   3.128   7.698   6.009  0.0171  0.2269  0.3088
  116MOL    H7230202   3.235   7.734   5.745 -0.2294  1.1740 -3.9401
  116MOL    H7330203   3.172   0.017   5.751  0.3462  0.0021 -0.0051
  116MOL    H7430204   3.380   0.050   5.917  0.0910  0.6866  1.4969
  116MOL    H7530205   3.228   0.050   6.172 -1.7111 -1.6152  0.7972
  116MOL    H7630206   3.394   7.867   6.168  0.9554 -1.5984  3.4172
  116MOL    H7730207   3.244   7.774   6.235 -1.0250  2.3766  0.3397
  116MOL    H7830208   3.164   7.604   6.050 -1.3745 -0.7652 -0.7274
  116MOL    H7930209   3.102   7.681   5.904  0.7469 -1.7382  0.4224
  116MOL    C8030210   3.005   7.768   6.075 -0.1368 -0.1790 -0.3474
  116MOL    C8130211   2.887   7.666   6.091  0.3903 -0.9573  0.4744
  116MOL    C8230212   2.860   7.582   6.195  0.1859 -0.1836 -0.3906
  116MOL    C8330213   2.938   7.572   6.325 -0.0592 -0.2719  0.0197
  116MOL    C8430214   2.741   7.484   6.180  0.2108  0.0145 -0.2786
  116MOL    H8530215   2.980   7.861   6.025  0.3661  0.7739  1.1184
  116MOL    H8630216   3.024   7.792   6.180  0.9379 -1.4872 -0.2230
  116MOL    H8730217   2.825   7.663   6.002  2.7828 -3.5196 -1.2018
  116MOL    H8830218   2.876   7.616   6.403  1.0976 -1.1843  1.4844
  116MOL    H8930219   3.034   7.622   6.318 -0.2335  0.0002 -0.4338
  116MOL    H9030220   2.965   7.472   6.360  1.7808  0.4721  0.7991
  116MOL    H9130221   2.670   7.515   6.104  0.8002 -0.9379 -1.2218
  116MOL    H9230222   2.691   7.480   6.277  1.5295 -1.1582  0.3735
  116MOL    C9330223   2.803   7.343   6.135  0.0710 -0.1684  0.0662
  116MOL    C9430224   2.690   7.247   6.085  0.2165 -0.4615 -0.2483
  116MOL    C9530225   2.607   7.166   6.154 -0.0783  1.0696  0.3047
  116MOL    C9630226   2.491   7.096   6.084  0.2585  0.2161 -0.2157
  116MOL    C9730227   2.607   7.164   6.307  0.2731 -0.6394  0.2584
  116MOL    H9830228   2.862   7.302   6.217  0.7232  1.1259  0.2623
  116MOL    H9930229   2.861   7.352   6.043  1.2702  2.0490  0.9929
  116MOL   H10030230   2.676   7.239   5.978  0.6226 -1.6787 -0.2231
  116MOL   H10130231   2.507   6.993   6.052 -0.1854  1.1318 -3.4878
  116MOL   H10230232   2.399   7.089   6.142  0.0448  2.5071 -0.2464
  116MOL   H10330233   2.468   7.143   5.988 -0.6169  0.0074 -0.1134
  116MOL   H10430234   2.520   7.202   6.361  0.1892 -2.5761  1.5159
  116MOL   H10530235   2.694   7.224   6.331  0.4476  0.0914 -2.0482
  116MOL   C10630236   2.627   7.020   6.360 -0.2015 -0.7070 -0.1896
  116MOL   C10730237   2.651   7.024   6.517 -0.2866  0.2905  0.0662
  116MOL   C10830238   2.559   7.011   6.617 -0.2074 -0.6092 -0.0765
  116MOL   C10930239   2.413   6.991   6.582  0.0382 -0.3345  0.0809
  116MOL   C11030240   2.592   7.033   6.764  0.2303 -0.1188 -0.5621
  116MOL   H11130241   2.712   6.975   6.309  0.4672  1.1220 -0.6900
  116MOL   H11230242   2.539   6.956   6.344 -2.0721  1.0945  2.5109
  116MOL   H11330243   2.747   7.055   6.554 -0.5202  2.4861 -1.1124
  116MOL   H11430244   2.366   7.089   6.573  2.2876  0.6863 -0.8845
  116MOL   H11530245   2.400   6.928   6.494 -2.1877  1.4902 -0.9522
  116MOL   H11630246   2.372   6.945   6.672  1.3674 -3.0752 -0.6626
  116MOL   H11730247   2.698   7.012   6.774  0.3591  0.2945 -1.0358
  116MOL   H11830248   2.538   6.956   6.819  2.2675 -0.3588  1.1669
  116MOL   C11930249   2.560   7.167   6.830 -0.6752  0.6956  0.1688
  116MOL   C12030250   2.410   7.202   6.825 -0.6180  0.0966  0.1784
  116MOL   C12130251   2.361   7.324   6.822  0.0148 -0.6230 -0.2750
  116MOL   C12230252   2.213   7.357   6.822  0.2108  0.3948 -0.3631
  116MOL   C12330253   2.451   7.450   6.834  0.1560  0.1947  0.4903
  116MOL   H12430254   2.617   7.242   6.775 -1.5483  2.2550  1.3296
  116MOL   H12530255   2.600   7.156   6.930  0.7903  0.6007 -0.4177
  116MOL   H12630256   2.342   7.119   6.831 -0.5030 -0.0647 -0.7707
  116MOL   H12730257   2.154   7.265   6.825 -3.2686  2.5629  0.5534
  116MOL   H12830258   2.181   7.398   6.726  0.5205  0.3537 -0.4831
  116MOL   H12930259   2.180   7.418   6.905  1.0956 -0.3595  0.5535
  116MOL   H13030260   2.549   7.428   6.878 -0.6949 -2.9805  0.9216
  116MOL   H13130261   2.413   7.519   6.909 -0.9926  0.2809 -0.1681
  116MOL   C13230262   2.454   7.511   6.696  0.0332  0.5385  0.2453
  116MOL   C13330263   2.538   7.639   6.692 -0.1161 -0.5969 -0.1729
  116MOL   C13430264   2.499   7.766   6.680 -0.4401 -0.8279  0.6862
  116MOL   C13530265   2.609   7.872   6.662  0.3009 -0.4910  0.3726
  116MOL   C13630266   2.356   7.816   6.684 -0.0015 -0.4944  0.6377
  116MOL   H13730267   2.356   7.529   6.652 -0.1271 -2.1579 -0.5552
  116MOL   H13830268   2.503   7.438   6.631  0.6171 -0.0133  1.2915
  116MOL   H13930269   2.640   7.607   6.688 -0.5994 -1.9249 -2.3946
  116MOL   H14030270   2.706   7.824   6.647 -0.0201 -0.5716 -1.6203
  116MOL   H14130271   2.634   0.051   6.750  1.7195  0.2236 -0.4736
  116MOL   H14230272   2.571   0.064   6.589  0.5208 -1.1315 -0.3827
  116MOL   H14330273   2.286   7.739   6.651 -1.0939  1.4078 -1.6634
  116MOL   H14430274   2.358   0.023   6.616 -2.1409 -0.2573  0.8474
  116MOL   C14530275   2.318   7.862   6.820  0.4135  0.9910  0.0139
  116MOL   C14630276   2.170   0.025   6.827  0.7046 -0.4007 -0.7009
  116MOL   C14730277   2.070   7.836   6.893  0.1120 -0.4067  0.2743
  116MOL   C14830278   1.928   0.012   6.913 -0.5011  0.5674  0.8532
  116MOL   C14930279   2.100   7.698   6.957  0.3101 -0.0781 -0.2424
  116MOL   H15030280   2.379   0.073   6.825 -0.2302  1.6258 -2.8567
  116MOL   H15130281   2.360   7.800   6.900 -2.6899  2.1793  2.6544
  116MOL   H15230282   2.146   0.119   6.780  3.5926  0.8876  0.2910
  116MOL   H15330283   1.927   0.060   7.011 -0.1871  4.2756 -0.8841
  116MOL   H15430284   1.848   7.817   6.903  0.7487 -0.7064  0.0124
  116MOL   H15530285   1.919   0.100   6.850 -1.0545  0.0613  0.2253
  116MOL   H15630286   2.199   7.652   6.946  0.2253 -0.3261  0.0160
  116MOL   H15730287   2.038   7.633   6.895 -0.8161 -1.3248  2.1207
  116MOL   C15830288   2.064   7.699   7.107 -0.0715 -0.3526  0.5411
  116MOL   C15930289   2.176   7.773   7.179  0.5991  0.2025 -0.4275
  116MOL   C16030290   2.233   7.744   7.300 -0.3850  0.0768  0.3550
  116MOL   C16130291   2.175   7.659   7.412 -0.2487  0.1901  0.3184
  116MOL   C16230292   2.365   7.799   7.347 -0.0034 -0.4642  0.0749
  116MOL   H16330293   2.068   7.596   7.143  1.7615 -0.7402 -0.7030
  116MOL   H16430294   1.965   7.741   7.123 -0.1031  1.3797 -3.6887
  116MOL   H16530295   2.239   7.840   7.122  0.5083 -1.8565 -3.0387
  116MOL   H16630296   2.243   7.575   7.425 -0.6226 -0.5155 -2.0098
  116MOL   H16730297   2.079   7.613   7.388  0.9299 -2.1431 -0.0855
  116MOL   H16830298   2.168   7.720   7.502  2.5736 -1.5641  1.7917
  116MOL   H16930299   2.365   7.850   7.444 -0.3900  1.6138 -0.9895
  116MOL   H17030300   2.398   7.865   7.268  0.2080 -1.2991 -0.5417
  116MOL   C17130301   2.483   7.685   7.351 -0.1645 -0.2311 -0.6812
  116MOL   C17230302   2.625   7.748   7.358  0.3562 -0.1180  0.5051
  116MOL   C17330303   2.707   7.768   7.249  0.3514  0.3305 -0.3774
  116MOL   C17430304   2.672   7.748   7.100 -0.0261  0.3046  1.0480
  116MOL   C17530305   2.844   7.835   7.270  0.0998  0.1648 -0.2721
  116MOL   H17630306   2.465   7.621   7.264 -2.7412 -1.0506  0.4138
  116MOL   H17730307   2.480   7.623   7.440  0.8909 -0.0498 -0.5137
  116MOL   H17830308   2.668   7.782   7.451  0.6794  1.6743 -0.2715
  116MOL   H17930309   2.761   7.748   7.037  0.3091  1.0214  1.5202
  116MOL   H18030310   2.606   7.821   7.055 -0.9210 -1.6347 -0.9062
  116MOL   H18130311   2.619   7.653   7.096  0.7431 -0.1259  0.7981
  116MOL   H18230312   2.850   7.876   7.371 -0.5111  0.5408 -0.3837
  116MOL   H18330313   2.841   0.043   7.204 -0.0156 -0.2025 -0.7522
  116MOL   C18430314   2.969   7.746   7.237  0.4946  0.3564 -0.0745
  116MOL   C18530315   3.105   7.812   7.234 -0.1792 -0.1310 -0.9599
  116MOL   C18630316   3.196   7.811   7.338  0.0493 -0.2648  0.0628
  116MOL   C18730317   3.316   0.019   7.328 -0.2964  0.2316 -0.4131
  116MOL   C18830318   3.188   7.720   7.463 -0.1521 -0.1518 -0.1883
  116MOL   H18930319   2.964   7.681   7.149  0.2353  1.4640 -0.8910
  116MOL   H19030320   2.955   7.678   7.321  1.0895 -1.5447 -1.4666
  116MOL   H19130321   3.133   7.874   7.150  0.6855  1.9742  0.8431
  116MOL   H19230322   3.340   0.063   7.425 -0.7442 -0.3501 -0.0382
  116MOL   H19330323   3.290   0.100   7.259  0.4751  1.0407  0.2249
  116MOL   H19430324   3.398   7.848   7.277  1.3275  0.6884  1.6590
  116MOL   H19530325   3.263   7.641   7.461  0.4561  0.3319  2.2752
  116MOL   H19630326   3.091   7.671   7.459 -0.8507  1.1131  1.0004
  116MOL   C19730327   3.201   7.792   7.594 -0.0384 -0.2857 -0.0100
  116MOL   C19830328   3.169   7.697   7.708  0.2833  0.3099 -0.1464
  116MOL   C19930329   3.063   7.698   7.788  0.7840 -0.0032  0.4245
  116MOL   C20030330   3.045   7.592   0.015  1.2329  0.6755 -0.6151
  116MOL   C20130331   2.959   7.807   7.780  0.2016 -0.4372 -0.2248
  116MOL   H20230332   3.160   0.013   7.578 -0.1242 -0.6639 -2.2582
  116MOL   H20330333   3.298   7.837   7.616 -1.3395  1.7303  1.8139
  116MOL   H20430334   3.244   7.621   7.721  0.1662 -0.0715 -1.5606
  116MOL   H20530335   3.137   7.542   0.048  0.5801  0.2051  0.5102
  116MOL   H20630336   2.988   7.503   7.867  0.9273  1.1294 -1.4687
  116MOL   H20730337   3.000   7.630   0.106  0.0125  2.8896 -2.1218
  116MOL   H20830338   3.000   0.019   7.736 -0.8358 -1.1848 -2.8382
  116MOL   H20930339   2.925   7.827   0.003 -0.2553  2.8407 -0.9659
  116MOL   C21030340   2.825   7.785   7.706  0.3523 -0.3154 -0.0995
  116MOL   C21130341   2.725   7.706   7.785  0.5299  0.8267  0.1982
  116MOL   C21230342   2.591   7.727   7.797  0.8979 -0.1133  0.4390
  116MOL   C21330343   2.507   7.624   7.874 -0.0580  0.0141 -0.9082
  116MOL   C21430344   2.516   7.843   7.725 -0.3863 -0.1103 -0.0953
  116MOL   H21530345   2.834   7.731   7.611 -1.7555 -2.7010  0.9927
  116MOL   H21630346   2.778   7.879   7.678  0.5983 -0.1576  0.0110
  116MOL   H21730347   2.758   7.627   7.851 -0.7946  0.0105 -0.1108
  116MOL   H21830348   2.469   7.671   0.085 -1.1434 -1.1460 -0.7443
  116MOL   H21930349   2.568   7.538   0.024  0.0723 -0.7860 -3.3936
  116MOL   H22030350   2.425   7.583   7.815  0.9879 -0.3002 -2.1685
  116MOL   H22130351   2.428   7.795   7.683  0.1153  0.5359 -1.9201
  116MOL   H22230352   2.563   7.879   7.633  1.0802  0.7105  0.9411
  116MOL   C22330353   2.467   0.075   7.812  0.4417  0.1343 -0.4553
  116MOL   C22430354   2.359   0.152   7.740 -0.0560  0.4109  0.2860
  116MOL   C22530355   2.231   0.166   7.778  0.9336 -0.1157  0.4039
  116MOL   C22630356   2.129   0.237   7.686  0.0983  0.2908 -0.1373
  116MOL   C22730357   2.162   0.127   0.024 -0.4669 -0.3917  0.1516
  116MOL   H22830358   2.550   0.143   7.834  0.8068 -0.3566 -0.3111
  116MOL   H22930359   2.434   0.035   0.029  2.2068  0.3886  0.2771
  116MOL   H23030360   2.385   0.176   7.639 -1.8151 -3.2815 -1.1397
  116MOL   H23130361   2.179   0.249   7.590  0.5303 -2.9884 -0.3688
  116MOL   H23230362   2.108   0.337   7.724 -0.3961 -0.1850  0.8644
  116MOL   H23330363   2.041   0.175   7.670  0.9538 -0.7733 -0.7350
  116MOL   H23430364   2.213   0.036   0.057 -1.1680 -0.3887  1.2719
  116MOL   H23530365   2.063   0.084   0.006 -0.6725 -0.0829  0.5365
  116MOL   C23630366   2.157   0.233   0.125 -0.5158 -0.5035  0.2935
  116MOL   C23730367   2.086   0.181   0.251 -0.5211  0.3042  0.0007
  116MOL   C23830368   1.965   0.206   0.307  0.0194 -0.1946 -0.1065
  116MOL   C23930369   1.926   0.131   0.438  0.6416 -0.0444  0.3501
  116MOL   C24030370   1.855   0.284   0.246  0.1294  0.2587 -0.1753
  116MOL   H24130371   2.119   0.334   0.104  1.0439  0.3663  1.5367
  116MOL   H24230372   2.257   0.251   0.164 -0.4386  1.9986 -0.9637
  116MOL   H24330373   2.154   0.118   0.305  0.3113  1.6409  0.5190
  116MOL   H24430374   1.896   0.198   0.518  0.9045 -0.5544  0.8829
  116MOL   H24530375   2.014   0.075   0.468  0.3483  0.4753  2.2278
  116MOL   H24630376   1.848   0.057   0.418 -2.7510  3.9221 -1.7948
  116MOL   H24730377   1.893   0.355   0.173  1.8959  1.1541  1.5515
  116MOL   H24830378   1.799   0.342   0.320 -0.9693 -0.9206 -0.0691
  116MOL   C24930379   1.741   0.202   0.190  0.7561 -0.0080 -0.1316
  116MOL   C25030380   1.773   0.161   0.050 -0.0059  0.0862  0.2332
  116MOL   C25130381   1.770   0.035   0.002  0.1468  1.1395  0.2398
  116MOL   C25230382   1.776   0.018   7.736 -1.3226 -0.3593 -0.5417
  116MOL   C25330383   1.749   7.789   0.087  0.5195  0.5621 -0.7644
  116MOL   H25430384   1.641   0.245   0.196  0.9048  0.5033 -1.3463
  116MOL   H25530385   1.716   0.116   0.253 -4.0139  0.9309 -0.5235
  116MOL   H25630386   1.780   0.244   7.859 -1.3667 -0.7495 -0.9115
  116MOL   H25730387   1.830   0.099   7.686  3.0181 -1.8392  1.4582
  116MOL   H25830388   1.673   0.023   7.700 -1.7434 -1.2928  0.5347
  116MOL   H25930389   1.833   7.807   7.713 -0.1521  0.4020 -0.6613
  116MOL   H26030390   1.669   7.727   0.046 -0.4707  0.3868  1.3739
  116MOL   H26130391   1.717   7.818   0.187  0.3342 -1.0997 -0.3345
  116MOL   H26230392   1.839   7.728   0.085  0.6567  0.7605 -3.9740
  117MOL     C130393   3.539   1.731   2.713 -0.4773 -0.2885 -0.2862
  117MOL     C230394   3.640   1.739   2.602 -0.0417  0.5610  0.2957
  117MOL     C330395   3.663   1.644   2.510  0.3270  0.5102 -0.7539
  117MOL     C430396   3.762   1.670   2.398 -0.3020  0.0336 -0.0372
  117MOL     C530397   3.611   1.500   2.517  0.8944 -0.3762 -0.6531
  117MOL     H630398   3.474   1.645   2.700 -0.6311 -0.1408 -0.4851
  117MOL     H730399   3.592   1.720   2.808 -1.2292  1.9396  0.4042
  117MOL     H830400   3.705   1.825   2.589 -0.3689  1.0035  1.5374
  117MOL     H930401   3.717   1.656   2.299  2.0447  0.7282 -1.2556
  117MOL    H1030402   3.846   1.604   2.420 -1.8046 -1.7127  0.5844
  117MOL    H1130403   3.800   1.770   2.417 -0.2244  0.0787 -0.4163
  117MOL    H1230404   3.624   1.437   2.429 -2.1220 -1.7764 -0.1625
  117MOL    H1330405   3.503   1.514   2.526  0.9778 -1.2968  2.3806
  117MOL    H1430406   3.492   1.828   2.727 -1.1523 -0.7450  0.6873
  117MOL    C1530407   3.663   1.419   2.641  0.0951 -0.4864  0.0337
  117MOL    C1630408   3.597   1.280   2.654 -0.5449 -0.3997  0.5759
  117MOL    C1730409   3.648   1.160   2.694  0.0255 -0.1517  0.2044
  117MOL    C1830410   3.565   1.027   2.693 -0.6555 -0.0803  0.0167
  117MOL    C1930411   3.795   1.141   2.733 -0.5234  0.0250 -0.3828
  117MOL    H2030412   3.645   1.478   2.730  0.3446 -0.6317  0.1814
  117MOL    H2130413   3.771   1.418   2.627  0.0162 -1.0445 -0.5767
  117MOL    H2230414   3.493   1.283   2.625 -0.5683 -0.8645  0.6213
  117MOL    H2330415   3.475   1.053   2.638 -0.8884 -0.4103  0.2415
  117MOL    H2430416   3.545   0.993   2.795 -1.4447 -0.0626 -0.1272
  117MOL    H2530417   3.612   0.953   2.629 -3.0954  0.2555 -2.2473
  117MOL    H2630418   3.842   1.230   2.690  1.5912 -1.6351 -1.6036
  117MOL    H2730419   3.850   1.062   2.681  0.9438  1.5533 -1.2077
  117MOL    C2830420   3.823   1.115   2.881  0.7236 -1.2745 -0.5350
  117MOL    C2930421   3.780   1.236   2.958  0.3259  0.2945 -0.7636
  117MOL    C3030422   3.844   1.292   3.064 -0.4919 -0.2348 -0.2801
  117MOL    C3130423   3.813   1.427   3.129  0.5416 -0.9630 -0.4347
  117MOL    C3230424   3.972   1.233   3.121 -0.6503  0.3221 -0.0234
  117MOL    H3330425   3.928   1.098   2.905  0.9333  1.0115  0.3280
  117MOL    H3430426   3.768   1.025   2.906 -0.7922  0.1461  1.4094
  117MOL    H3530427   3.682   1.274   2.933 -0.0322  0.8883  1.4848
  117MOL    H3630428   3.710   1.458   3.110  0.0669 -1.1151  1.7231
  117MOL    H3730429   3.884   1.500   3.090  1.6871 -0.7061  1.9839
  117MOL    H3830430   3.833   1.423   3.236 -2.2348  2.4026  0.3153
  117MOL    H3930431   4.026   1.304   3.183 -0.2847 -0.9574  1.1486
  117MOL    H4030432   4.046   1.214   3.044 -0.5613  2.3447 -0.4452
  117MOL    C4130433   3.941   1.118   3.219  0.5972  0.1144  0.4719
  117MOL    C4230434   4.054   1.101   3.324 -0.7950  0.2131 -0.3303
  117MOL    C4330435   4.075   1.006   3.414 -0.4746  0.4184  0.7167
  117MOL    C4430436   4.208   0.991   3.482  0.4459  0.2476  1.1679
  117MOL    C4530437   3.975   0.894   3.435 -0.5858 -0.4062 -0.6369
  117MOL    H4630438   3.925   1.029   3.158  3.3719  0.2162 -0.4597
  117MOL    H4730439   3.856   1.136   3.285 -1.2725  0.9371 -2.0932
  117MOL    H4830440   4.133   1.172   3.310 -0.1881 -0.3275  0.3276
  117MOL    H4930441   4.252   1.076   3.534 -0.1499  1.2069  0.1281
  117MOL    H5030442   4.283   0.948   3.415  3.0502  1.1548  3.3930
  117MOL    H5130443   4.191   0.918   3.561 -0.7946  0.1582  0.8236
  117MOL    H5230444   4.024   0.800   3.412  0.4097 -0.5993  2.1044
  117MOL    H5330445   3.900   0.896   3.355 -0.7621  0.3717 -0.4549
  117MOL    C5430446   3.905   0.890   3.570  0.0448 -0.0021 -0.2361
  117MOL    C5530447   3.820   0.772   3.569  0.3913 -0.6755 -0.4525
  117MOL    C5630448   3.852   0.648   3.616  0.4848 -0.5147 -0.2518
  117MOL    C5730449   3.771   0.528   3.580  0.3080 -0.1570  0.5009
  117MOL    C5830450   3.979   0.615   3.696 -0.0706  0.0088 -0.7443
  117MOL    H5930451   3.839   0.976   3.586 -0.1346  0.0653 -1.3153
  117MOL    H6030452   3.987   0.884   3.641  1.9079  0.6369 -2.2695
  117MOL    H6130453   3.721   0.779   3.527  0.8158  0.0787 -1.3391
  117MOL    H6230454   3.830   0.447   3.536  0.3631  0.9818 -1.5793
  117MOL    H6330455   3.697   0.550   3.503  0.8450 -1.8136 -0.5111
  117MOL    H6430456   3.717   0.499   3.671 -1.2876  0.6347 -0.1786
  117MOL    H6530457   3.936   0.553   3.775 -2.4012  0.4478 -1.6245
  117MOL    H6630458   4.015   0.705   3.744 -1.7450  0.9364 -1.1689
  117MOL    C6730459   4.088   0.533   3.628 -0.3309  0.7720  0.5030
  117MOL    C6830460   4.183   0.470   3.724  0.9504  0.2684 -0.0941
  117MOL    C6930461   4.200   0.337   3.748 -0.2832 -0.5824  0.2943
  117MOL    C7030462   4.289   0.288   3.852  0.2948 -1.4190  0.1389
  117MOL    C7130463   4.126   0.229   3.668  0.2943 -0.0649 -0.5186
  117MOL    H7230464   4.149   0.601   3.569  0.5413 -1.2587 -1.0264
  117MOL    H7330465   4.048   0.460   3.557 -2.2836  1.1425  1.1918
  117MOL    H7430466   4.246   0.526   3.792  0.5041 -0.1697  0.6898
  117MOL    H7530467   4.348   0.367   3.898 -0.4443 -1.6480  1.4965
  117MOL    H7630468   4.363   0.237   3.789 -0.8327 -1.5821 -1.0741
  117MOL    H7730469   4.241   0.238   3.936 -0.6155  0.8768  1.0142
  117MOL    H7830470   4.188   0.140   3.666  0.6380  0.0049  3.0985
  117MOL    H7930471   4.116   0.258   3.564  0.0443 -0.0759 -0.4990
  117MOL    C8030472   3.996   0.182   3.727 -0.2576 -0.1559  0.3557
  117MOL    C8130473   3.903   0.113   3.630 -0.7400 -0.7828  0.4464
  117MOL    C8230474   3.844   7.870   3.636 -0.2555 -1.2434  0.1343
  117MOL    C8330475   3.863   7.765   3.742  0.1088  0.0588 -0.2045
  117MOL    C8430476   3.752   7.825   3.522 -0.9441  0.1588  0.2515
  117MOL    H8530477   3.949   0.273   3.764  0.9032  0.2221  0.9225
  117MOL    H8630478   4.004   0.126   3.820  0.5343 -0.2305  0.2435
  117MOL    H8730479   3.880   0.154   3.532 -0.5086  2.3570  1.6763
  117MOL    H8830480   3.928   7.792   3.825 -1.5540  2.0763  0.4715
  117MOL    H8930481   3.910   7.681   3.691  1.6324  1.0215 -0.3950
  117MOL    H9030482   3.773   7.734   3.796  1.4414 -0.9629  1.4975
  117MOL    H9130483   3.772   7.721   3.496 -2.0252  0.8663 -3.7702
  117MOL    H9230484   3.786   0.007   3.438  0.0628  0.0793  0.5939
  117MOL    C9330485   3.605   7.855   3.554  0.6299 -0.1318 -0.5199
  117MOL    C9430486   3.521   7.851   3.432 -0.1720  0.1740  0.7776
  117MOL    C9530487   3.437   7.756   3.395  0.2736  0.1742  0.5793
  117MOL    C9630488   3.341   7.763   3.280  0.5642  0.2092  0.4236
  117MOL    C9730489   3.429   7.619   3.462 -0.7091  0.3485 -0.1206
  117MOL    H9830490   3.600   0.079   3.589 -1.0766 -0.1890 -0.5246
  117MOL    H9930491   3.581   7.774   3.623 -1.2994 -1.3034 -2.5011
  117MOL   H10030492   3.530   0.066   3.380 -0.3023 -0.0932  0.2708
  117MOL   H10130493   3.351   7.860   3.231  1.2265 -0.5367 -0.9384
  117MOL   H10230494   3.365   7.694   3.199 -2.6601 -0.9135  0.3481
  117MOL   H10330495   3.239   7.739   3.309  0.4611 -0.8177 -0.7593
  117MOL   H10430496   3.327   7.597   3.491 -0.9566 -0.1517 -1.3405
  117MOL   H10530497   3.477   7.609   3.559  0.7917 -2.5600 -1.1194
  117MOL   C10630498   3.498   7.513   3.376  1.0553  0.1534 -0.4203
  117MOL   C10730499   3.509   7.381   3.448 -0.5732  0.4422  0.3119
  117MOL   C10830500   3.629   7.323   3.488  0.2823 -0.2266  0.3322
  117MOL   C10930501   3.770   7.384   3.470  0.4356 -0.0423  0.1759
  117MOL   C11030502   3.630   7.191   3.554 -0.0739  0.3608  1.4313
  117MOL   H11130503   3.591   7.547   3.331  2.0924 -3.5793 -1.2644
  117MOL   H11230504   3.423   7.503   3.297 -0.3083  0.4677  0.8174
  117MOL   H11330505   3.414   7.333   3.468 -1.8058  1.5342 -2.6758
  117MOL   H11430506   3.777   7.444   3.560 -1.6622 -1.0828  1.0526
  117MOL   H11530507   3.846   7.307   3.477  1.7398  1.2481  0.3980
  117MOL   H11630508   3.778   7.437   3.375 -2.2161  0.7728  0.3536
  117MOL   H11730509   3.676   7.106   3.504 -2.0788 -1.1697  2.1207
  117MOL   H11830510   3.528   7.153   3.554 -0.9432  2.6446  1.0504
  117MOL   C11930511   3.701   7.193   3.694  0.1776 -0.0026  0.0506
  117MOL   C12030512   3.628   7.290   3.778 -0.5666 -0.3650 -0.2719
  117MOL   C12130513   3.677   7.357   3.889 -0.1424  0.5624 -0.8842
  117MOL   C12230514   3.571   7.437   3.974  0.2298  0.1779  0.3477
  117MOL   C12330515   3.825   7.347   3.934  0.1099 -1.0036  0.8216
  117MOL   H12430516   3.805   7.219   3.677  0.0907 -0.3041 -0.9393
  117MOL   H12530517   3.686   7.091   3.730 -2.2953  0.2380 -0.2028
  117MOL   H12630518   3.521   7.291   3.761 -0.5509 -1.3544 -0.4247
  117MOL   H12730519   3.469   7.421   3.939 -0.3097  1.3242  1.3580
  117MOL   H12830520   3.591   7.545   3.968  0.7157  0.0238 -1.0895
  117MOL   H12930521   3.564   7.412   4.080 -1.2393  0.8380  0.4131
  117MOL   H13030522   3.856   7.451   3.939 -0.5669 -0.6932 -0.9276
  117MOL   H13130523   3.891   7.305   3.859 -0.9669 -0.5559 -0.4045
  117MOL   C13230524   3.845   7.287   4.069  0.3724  0.5004  0.4565
  117MOL   C13330525   3.974   7.336   4.132  0.2926  0.8291  0.2453
  117MOL   C13430526   3.987   7.429   4.224  0.3809 -0.1976 -1.2722
  117MOL   C13530527   4.127   7.449   4.288  0.0811 -0.0037  0.4024
  117MOL   C13630528   3.879   7.517   4.271  0.2083 -0.2097  0.4385
  117MOL   H13730529   3.852   7.180   4.048 -0.9365  0.4841  0.0220
  117MOL   H13830530   3.749   7.285   4.122 -0.8706  0.3456 -1.7293
  117MOL   H13930531   4.062   7.276   4.113  0.0038  1.1235 -2.1329
  117MOL   H14030532   4.196   7.414   4.211 -0.8630 -1.2642  0.0999
  117MOL   H14130533   4.132   7.389   4.379 -1.3249 -1.4278 -0.4378
  117MOL   H14230534   4.141   7.551   4.323  0.2553  0.7773 -1.8536
  117MOL   H14330535   3.791   7.513   4.206  1.2884 -2.2139 -0.9583
  117MOL   H14430536   3.919   7.617   4.259  2.8938 -1.2232  0.6718
  117MOL   C14530537   3.844   7.494   4.416 -0.3337  0.1363 -0.7198
  117MOL   C14630538   3.720   7.565   4.471  0.6793  0.6997 -0.3999
  117MOL   C14730539   3.711   7.622   4.589  0.0859 -0.2122 -0.0567
  117MOL   C14830540   3.585   7.691   4.637  0.0854  0.1031 -0.2190
  117MOL   C14930541   3.816   7.618   4.697 -0.9255 -0.5936 -0.1307
  117MOL   H15030542   3.934   7.521   4.472 -0.7145  1.8392 -0.9003
  117MOL   H15130543   3.819   7.389   4.424  1.5720 -0.2542  0.7427
  117MOL   H15230544   3.639   7.563   4.400  0.6413  0.7792 -0.3584
  117MOL   H15330545   3.607   7.795   4.659  1.9372 -0.0142 -1.4393
  117MOL   H15430546   3.556   7.648   4.733  3.6407 -0.6711  0.5644
  117MOL   H15530547   3.515   7.683   4.554 -0.6216  0.1827  0.3681
  117MOL   H15630548   3.872   7.525   4.696  1.0402  0.5213  1.1689
  117MOL   H15730549   3.781   7.620   4.800 -0.2525  0.9959  0.0836
  117MOL   C15830550   3.911   7.738   4.690  0.7360  0.3134  0.3359
  117MOL   C15930551   4.025   7.710   4.786 -0.1193  0.9085 -0.6373
  117MOL   C16030552   4.157   7.718   4.761  0.7125 -0.4975 -0.1533
  117MOL   C16130553   4.219   7.765   4.627 -0.0800  0.4845 -0.3223
  117MOL   C16230554   4.262   7.677   4.860  0.0242 -0.2504 -0.0492
  117MOL   H16330555   3.863   7.830   4.723  1.0587  0.4313  0.4835
  117MOL   H16430556   3.955   7.754   4.591  4.3344  1.4167  2.0208
  117MOL   H16530557   3.995   7.673   4.883  0.0467  1.1158 -0.5080
  117MOL   H16630558   4.160   7.754   4.537  2.7899 -1.8227 -2.0201
  117MOL   H16730559   4.305   7.699   4.621 -0.9658 -0.5951 -1.4434
  117MOL   H16830560   4.256   7.867   4.630  2.1465 -0.3040  0.6916
  117MOL   H16930561   4.320   7.595   4.819  0.3412  0.2918 -0.6835
  117MOL   H17030562   4.217   7.635   4.950  0.6805  0.0867  0.4439
  117MOL   C17130563   4.353   7.789   4.905  0.1853 -0.3623  0.1511
  117MOL   C17230564   4.459   7.750   5.002 -0.4836 -0.2229 -0.1205
  117MOL   C17330565   4.462   7.771   5.135 -0.1776  0.5663 -0.1651
  117MOL   C17430566   4.347   7.836   5.210 -0.4904  0.6149  0.1603
  117MOL   C17530567   4.575   7.727   5.225  0.3631 -0.2396 -0.6608
  117MOL   H17630568   4.287   7.865   4.948 -0.5769 -0.8020 -0.2198
  117MOL   H17730569   4.406   7.841   4.825  2.4501 -1.0628  1.1594
  117MOL   H17830570   4.543   7.706   4.951 -0.0386  0.9382 -0.4093
  117MOL   H17930571   4.305   7.758   5.274 -0.9989  0.6101 -0.1697
  117MOL   H18030572   4.282   0.012   5.142  0.3538  0.3853 -0.8326
  117MOL   H18130573   4.383   0.035   5.277 -0.7237  0.7336  0.1499
  117MOL   H18230574   4.595   7.621   5.206  1.9092 -0.1382  0.2938
  117MOL   H18330575   4.538   7.742   5.326 -3.1001  0.3191 -1.9513
  117MOL   C18430576   4.706   7.795   5.192  0.2610 -0.4266 -0.1933
  117MOL   C18530577   4.827   7.773   5.284  0.0242  0.1315  0.2148
  117MOL   C18630578   4.946   7.713   5.266 -0.8746  0.1548  0.4950
  117MOL   C18730579   5.066   7.699   5.364 -0.1148  0.5218  0.2099
  117MOL   C18830580   4.973   7.640   5.133 -0.0926  0.0053 -0.3274
  117MOL   H18930581   4.691   0.024   5.185 -1.2635 -0.7886 -3.3820
  117MOL   H19030582   4.741   7.768   5.092  0.2771 -5.0021  0.9628
  117MOL   H19130583   4.824   7.815   5.384  1.2755 -0.5265  0.5392
  117MOL   H19230584   5.118   7.604   5.355  1.1976  1.2906 -0.4781
  117MOL   H19330585   5.058   7.722   5.471  0.3000  1.3075  0.0759
  117MOL   H19430586   5.150   7.764   5.339  1.0683 -0.4701  1.5270
  117MOL   H19530587   5.077   7.666   5.112  0.1206  0.2986  1.0857
  117MOL   H19630588   4.929   7.686   5.044  1.8736 -0.0416 -1.3625
  117MOL   C19730589   4.952   7.487   5.138  0.0814  0.1998  0.3800
  117MOL   C19830590   4.999   7.412   5.016  0.0604  0.2366  0.5412
  117MOL   C19930591   5.091   7.314   5.009  0.4061  0.1695 -0.3773
  117MOL   C20030592   5.133   7.241   4.876  0.1750 -0.0714 -0.1463
  117MOL   C20130593   5.177   7.262   5.130 -0.8344  0.3451  0.0069
  117MOL   H20230594   4.848   7.462   5.157  0.1303 -0.5019 -0.2788
  117MOL   H20330595   5.002   7.451   5.228  0.6108  0.4801  0.1993
  117MOL   H20430596   4.946   7.446   4.928  0.1363  0.7026  0.6750
  117MOL   H20530597   5.093   7.287   4.785  1.7883 -0.4563 -1.0807
  117MOL   H20630598   5.093   7.140   4.886 -0.7496  0.2723 -0.4048
  117MOL   H20730599   5.242   7.238   4.867  0.4254 -0.7702  2.7535
  117MOL   H20830600   5.195   7.154   5.138  0.5422  0.5612  0.0489
  117MOL   H20930601   5.122   7.278   5.223 -1.9010  1.3516 -0.7877
  117MOL   C21030602   5.309   7.352   5.136 -0.4281  0.3293  0.4330
  117MOL   C21130603   5.364   7.357   5.277 -0.1157 -0.1706  0.4446
  117MOL   C21230604   5.489   7.324   5.314  0.0465  0.5391  0.6018
  117MOL   C21330605   5.547   7.357   5.450  0.1482  0.0771  0.1154
  117MOL   C21430606   5.605   7.286   5.213  0.8218 -0.1808  0.1282
  117MOL   H21530607   5.284   7.456   5.118 -2.2119 -0.1156  0.1588
  117MOL   H21630608   5.381   7.315   5.062 -1.2465 -1.9595  0.7156
  117MOL   H21730609   5.295   7.400   5.348  0.3764  0.8804  0.2939
  117MOL   H21830610   5.479   7.403   5.522  2.7261  1.5953  1.6662
  117MOL   H21930611   5.634   7.422   5.441 -0.2058  0.6464  0.6681
  117MOL   H22030612   5.585   7.270   5.502  1.0833  0.3934 -0.0401
  117MOL   H22130613   5.566   7.230   5.128  0.2475 -0.8089  0.7986
  117MOL   H22230614   5.664   7.214   5.270 -1.7997 -2.2614  0.3291
  117MOL   C22330615   5.674   7.406   5.149 -0.6910 -0.2716  0.6479
  117MOL   C22430616   5.792   7.365   5.060  0.4461 -1.1121  0.1471
  117MOL   C22530617   5.797   7.371   4.924 -0.2406 -0.2215  0.3450
  117MOL   C22630618   5.920   7.324   4.846  0.7102  0.4096 -0.2120
  117MOL   C22730619   5.671   7.393   4.835 -0.2021  0.3396  0.1393
  117MOL   H22830620   5.715   7.481   5.217  0.8371 -0.0750 -0.4437
  117MOL   H22930621   5.595   7.462   5.098  0.4532  0.5857 -0.2220
  117MOL   H23030622   5.881   7.331   5.110  2.0301  2.4480 -0.0590
  117MOL   H23130623   6.021   7.349   4.880  0.1176 -0.0467  1.9696
  117MOL   H23230624   5.900   7.356   4.744  1.0233  1.1397 -0.0489
  117MOL   H23330625   5.928   7.215   4.840 -0.1615  0.2291  1.5789
  117MOL   H23430626   5.699   7.446   4.744 -0.8161 -1.9680 -1.4224
  117MOL   H23530627   5.592   7.452   4.880 -1.5690 -1.7087  0.5045
  117MOL   C23630628   5.603   7.263   4.793  0.2551 -0.0871  0.3699
  117MOL   C23730629   5.476   7.282   4.703 -0.7581 -0.0352  0.3179
  117MOL   C23830630   5.419   7.181   4.632 -0.1352  0.4843  0.7783
  117MOL   C23930631   5.297   7.202   4.541  0.0103  0.4549 -0.5523
  117MOL   C24030632   5.469   7.039   4.639  0.4278 -1.4508  0.3293
  117MOL   H24130633   5.564   7.234   4.891  2.0005 -0.9260  0.8418
  117MOL   H24230634   5.672   7.192   4.748 -1.1809 -1.5025  0.3821
  117MOL   H24330635   5.426   7.378   4.696  1.4338  1.1248 -0.0580
  117MOL   H24430636   5.329   7.170   4.441  0.2412  0.6379 -0.5373
  117MOL   H24530637   5.253   7.301   4.542 -0.9775  0.0330 -1.4012
  117MOL   H24630638   5.223   7.129   4.573  1.1052  0.1370  1.3167
  117MOL   H24730639   5.382   6.976   4.656 -0.0671 -1.0519 -0.7081
  117MOL   H24830640   5.529   7.015   4.727  3.9941  3.1879 -0.6281
  117MOL   C24930641   5.553   6.999   4.516  0.1576 -0.0718 -0.1473
  117MOL   C25030642   5.578   6.853   4.506 -0.4485  0.2655 -0.0940
  117MOL   C25130643   5.693   6.787   4.475 -0.9123 -0.5229 -0.7266
  117MOL   C25230644   5.698   6.639   4.497  0.0937  0.5914  0.6557
  117MOL   C25330645   5.826   6.855   4.449 -0.0115  0.1738  0.1155
  117MOL   H25430646   5.648   7.051   4.524  0.8545 -1.2039 -0.8773
  117MOL   H25530647   5.503   7.032   4.425 -2.4364 -1.9860  0.4966
  117MOL   H25630648   5.492   6.792   4.530 -0.1874 -0.0348  0.0848
  117MOL   H25730649   5.734   6.592   4.405  1.0537  2.7301 -0.0964
  117MOL   H25830650   5.601   6.593   4.515  0.2727 -2.5385 -5.0223
  117MOL   H25930651   5.758   6.612   4.584 -0.4795 -0.6595  0.6780
  117MOL   H26030652   5.892   6.838   4.533  0.9547 -2.2881 -1.0851
  117MOL   H26130653   5.824   6.961   4.424  1.9408  1.0859  3.5475
  117MOL   H26230654   5.869   6.802   4.364  0.6041 -0.6667  0.9429
  118MOL     C130655   0.640   4.090   3.756  0.1183  0.0271  0.7908
  118MOL     C230656   0.522   4.098   3.660 -0.2592 -0.1079 -0.1764
  118MOL     C330657   0.401   4.150   3.686  0.8258 -0.2110  1.1917
  118MOL     C430658   0.306   4.146   3.567 -0.2776 -0.4382  0.9405
  118MOL     C530659   0.355   4.219   3.816 -0.3631 -0.0725 -0.2565
  118MOL     H630660   0.716   4.019   3.724  0.8073  0.6155  1.1080
  118MOL     H730661   0.679   4.192   3.746  1.0314 -0.3593  0.4336
  118MOL     H830662   0.548   4.064   3.560  1.7686 -2.1815  0.9956
  118MOL     H930663   0.344   4.099   3.476 -1.4357  2.1717 -0.9537
  118MOL    H1030664   0.257   4.241   3.547  0.4811 -0.4037 -0.9349
  118MOL    H1130665   0.220   4.086   3.596 -1.0657 -1.5925 -3.4385
  118MOL    H1230666   0.440   4.209   3.883  0.4192 -0.3692 -1.2890
  118MOL    H1330667   0.288   4.151   3.868 -0.6484  0.9748  0.7821
  118MOL    H1430668   0.604   4.073   3.858 -2.1441 -0.3994 -0.0526
  118MOL    C1530669   0.308   4.362   3.804  0.0396  0.0273 -0.5136
  118MOL    C1630670   0.282   4.425   3.939  0.6615  0.5938  0.7682
  118MOL    C1730671   0.351   4.514   4.013 -0.2544  0.2210  2.0721
  118MOL    C1830672   0.301   4.562   4.147 -0.2645  0.0992  0.2541
  118MOL    C1930673   0.481   4.574   3.965 -0.6399 -0.4278  0.9924
  118MOL    H2030674   0.215   4.364   3.747 -0.7990  0.3635  0.8456
  118MOL    H2130675   0.392   4.406   3.750  0.6807 -2.9512 -2.0495
  118MOL    H2230676   0.196   4.387   3.992  0.0853  0.6490 -0.1147
  118MOL    H2330677   0.196   4.532   4.154 -0.1057 -1.0746 -2.0042
  118MOL    H2430678   0.300   4.671   4.136 -0.7282  0.2800  1.8768
  118MOL    H2530679   0.362   4.547   4.236  0.5975  0.1458 -0.3242
  118MOL    H2630680   0.484   4.681   3.947 -0.4894 -0.6253 -0.1601
  118MOL    H2730681   0.508   4.530   3.869 -0.3488  2.3591 -0.2389
  118MOL    C2830682   0.602   4.547   4.059 -0.3308  0.1861  0.7477
  118MOL    C2930683   0.738   4.595   4.007  0.9787 -0.9108  0.4742
  118MOL    C3030684   0.843   4.517   3.976  1.0150  0.3329 -0.1373
  118MOL    C3130685   0.971   4.583   3.933  0.1896 -0.1496  0.0433
  118MOL    C3230686   0.847   4.358   3.973 -0.6723  0.6462  0.1478
  118MOL    H3330687   0.604   4.443   4.093 -0.2378  0.2745  1.0173
  118MOL    H3430688   0.591   4.602   4.152  1.7553  1.3093  0.3514
  118MOL    H3530689   0.750   4.701   3.991  2.8439 -1.4106 -1.7642
  118MOL    H3630690   0.983   4.688   3.961 -1.1381  0.5806 -2.0544
  118MOL    H3730691   0.972   4.572   3.825 -0.8089 -0.5156  0.0637
  118MOL    H3830692   1.063   4.537   3.970  0.8108  0.1936 -1.0641
  118MOL    H3930693   0.847   4.315   3.873 -0.3262 -2.2556  1.3378
  118MOL    H4030694   0.752   4.326   4.014 -0.0985 -0.0187  0.9635
  118MOL    C4130695   0.966   4.296   4.049 -0.7545 -0.2780  0.2898
  118MOL    C4230696   0.946   4.149   4.085  0.6713 -0.2497 -0.3005
  118MOL    C4330697   1.005   4.076   4.181 -0.2914  0.2285  0.1887
  118MOL    C4430698   0.963   3.937   4.218 -0.7942  1.0145  0.6111
  118MOL    C4530699   1.117   4.138   4.267  0.2331 -0.1667  0.1614
  118MOL    H4630700   1.006   4.365   4.123  3.5752 -0.0026 -2.1010
  118MOL    H4730701   1.048   4.287   3.978 -1.7095 -2.9148 -0.5390
  118MOL    H4830702   0.870   4.103   4.024  0.8854 -1.3396  0.2498
  118MOL    H4930703   0.922   3.941   4.319 -0.9702 -3.2686  0.7724
  118MOL    H5030704   1.049   3.870   4.218 -1.8671 -0.4158 -1.3097
  118MOL    H5130705   0.890   3.890   4.153 -0.3982  2.1694 -0.6752
  118MOL    H5230706   1.100   4.113   4.372 -1.0176  0.1524  0.0449
  118MOL    H5330707   1.116   4.246   4.261  1.1603 -0.2717 -2.4829
  118MOL    C5430708   1.249   4.074   4.222  0.0111 -0.0068 -0.3933
  118MOL    C5530709   1.362   4.152   4.279  0.4850  0.4951  0.4887
  118MOL    C5630710   1.445   4.126   4.382  0.0720  0.7809 -0.3955
  118MOL    C5730711   1.563   4.218   4.416  0.6673 -0.1856  0.8709
  118MOL    C5830712   1.448   3.994   4.450 -0.5801 -0.2432 -0.5443
  118MOL    H5930713   1.245   4.079   4.113 -0.2401  1.2505 -0.3417
  118MOL    H6030714   1.244   3.970   4.253  0.4354  0.1198  0.0967
  118MOL    H6130715   1.391   4.240   4.223 -0.7144 -0.7052 -2.0822
  118MOL    H6230716   1.648   4.156   4.443 -1.1947 -2.3609  1.9314
  118MOL    H6330717   1.544   4.290   4.495 -0.1368 -0.2771  0.7664
  118MOL    H6430718   1.587   4.283   4.332 -2.7846  2.2798  1.6845
  118MOL    H6530719   1.352   3.943   4.439 -1.5849  1.4888 -0.0008
  118MOL    H6630720   1.451   4.002   4.559 -0.0999  0.8888 -0.6393
  118MOL    C6730721   1.555   3.898   4.415 -0.3982  0.1182 -0.1716
  118MOL    C6830722   1.499   3.760   4.448  0.6103  0.0120 -0.3296
  118MOL    C6930723   1.544   3.676   4.536  0.4703 -0.1187 -0.0664
  118MOL    C7030724   1.474   3.543   4.546  0.3991 -0.1412 -0.0025
  118MOL    C7130725   1.664   3.697   4.623 -0.5553  0.9845  0.3694
  118MOL    H7230726   1.648   3.933   4.461  0.0996 -0.9516 -0.3509
  118MOL    H7330727   1.578   3.899   4.308 -0.7964  0.8869 -0.2504
  118MOL    H7430728   1.406   3.734   4.398  0.4600 -0.9796  0.4346
  118MOL    H7530729   1.370   3.537   4.516  0.3393 -1.5538  0.4628
  118MOL    H7630730   1.476   3.505   4.649 -0.5960 -1.0210 -0.3029
  118MOL    H7730731   1.522   3.465   4.488  0.0546  1.1151 -1.9984
  118MOL    H7830732   1.625   3.708   4.725  0.3586 -0.4496  0.8894
  118MOL    H7930733   1.709   3.795   4.610 -0.0934  0.8967  1.2546
  118MOL    C8030734   1.773   3.590   4.621  0.2901  0.0958  0.3987
  118MOL    C8130735   1.879   3.610   4.725  0.1256  0.5458  0.3705
  118MOL    C8230736   2.013   3.609   4.708  0.7326  0.7329  1.3958
  118MOL    C8330737   2.086   3.599   4.580 -0.1693  0.7076  0.5427
  118MOL    C8430738   2.100   3.631   4.829 -0.4211 -0.0590 -0.3300
  118MOL    H8530739   1.811   3.582   4.519 -1.8551  0.1716 -0.4292
  118MOL    H8630740   1.738   3.488   4.641 -2.8994  1.4633  2.2124
  118MOL    H8730741   1.838   3.616   4.825 -2.4584 -0.6854 -0.5590
  118MOL    H8830742   2.035   3.542   4.503 -0.6956  0.6061  0.9619
  118MOL    H8930743   2.175   3.538   4.587 -2.9366 -3.3440  2.1007
  118MOL    H9030744   2.121   3.696   4.545  1.0828  0.2570  0.5186
  118MOL    H9130745   2.200   3.613   4.790  0.7113  1.4345  1.7808
  118MOL    H9230746   2.072   3.563   4.909 -2.2924  0.2328 -0.7025
  118MOL    C9330747   2.104   3.779   4.879 -0.1073 -0.4111  0.6525
  118MOL    C9430748   2.182   3.797   5.015  1.1482 -0.0134  0.9084
  118MOL    C9530749   2.253   3.906   5.041  0.1628  0.1179  0.1182
  118MOL    C9630750   2.301   3.920   5.182 -0.3269 -0.1196 -0.2689
  118MOL    C9730751   2.280   4.029   4.949  0.5947  0.0277 -0.1491
  118MOL    H9830752   2.013   3.837   4.877  0.7381  0.9047 -0.3400
  118MOL    H9930753   2.159   3.828   4.798  0.6283 -1.1364  0.7077
  118MOL   H10030754   2.171   3.719   5.089  0.9047 -1.2525 -0.4348
  118MOL   H10130755   2.284   3.830   5.242 -0.5408 -0.2917 -0.5833
  118MOL   H10230756   2.401   3.962   5.186  0.0599 -1.1668  1.2132
  118MOL   H10330757   2.238   3.997   5.227 -1.7463 -0.9558 -0.7739
  118MOL   H10430758   2.253   4.114   5.011 -3.6425 -0.9855 -0.5075
  118MOL   H10530759   2.212   4.028   4.864 -2.1337 -1.9325  1.9934
  118MOL   C10630760   2.421   4.060   4.896  0.2986 -0.5399  0.6215
  118MOL   C10730761   2.466   3.950   4.803 -0.3812  0.0474 -0.1502
  118MOL   C10830762   2.475   3.953   4.668 -0.4767 -0.1088 -0.2497
  118MOL   C10930763   2.427   4.068   4.582  0.3887 -0.3688 -0.3527
  118MOL   C11030764   2.554   3.846   4.588  0.3095  1.0167 -0.2407
  118MOL   H11130765   2.497   4.064   4.975 -0.1100  0.6536  0.9654
  118MOL   H11230766   2.423   4.156   4.845  2.6825 -0.9272 -0.1005
  118MOL   H11330767   2.486   3.857   4.855  2.5761  0.8959  0.3384
  118MOL   H11430768   2.511   4.125   4.543  1.9422 -1.4235  1.3737
  118MOL   H11530769   2.378   4.028   4.493  0.3821 -0.2434 -0.4050
  118MOL   H11630770   2.367   4.147   4.627  1.7234  0.8043 -0.6090
  118MOL   H11730771   2.517   3.840   4.486 -0.0329  1.5443 -0.1477
  118MOL   H11830772   2.534   3.747   4.631  2.9113  0.0056 -1.2648
  118MOL   C11930773   2.702   3.868   4.583  0.4379 -0.1851  0.1446
  118MOL   C12030774   2.741   3.992   4.501  0.4814  0.3854 -0.2173
  118MOL   C12130775   2.795   4.111   4.539 -0.2587  0.6524 -0.9024
  118MOL   C12230776   2.814   4.223   4.442 -0.5430  0.0321 -0.3977
  118MOL   C12330777   2.852   4.128   4.676 -0.6624 -0.0471  0.1947
  118MOL   H12430778   2.747   3.778   4.541  2.5266  1.0869 -0.3998
  118MOL   H12530779   2.743   3.871   4.684  1.8224  0.3427 -0.4137
  118MOL   H12630780   2.710   3.994   4.398  0.0507 -0.1040 -0.0991
  118MOL   H12730781   2.911   4.231   4.393 -0.4697 -1.9001 -0.5895
  118MOL   H12830782   2.776   4.319   4.479 -0.6382 -1.0673  2.5256
  118MOL   H12930783   2.766   4.192   4.350 -1.6042 -2.0748  0.8226
  118MOL   H13030784   2.954   4.162   4.662  0.8891 -3.9977  1.2737
  118MOL   H13130785   2.875   4.033   4.724  0.3598  0.5766  0.9503
  118MOL   C13230786   2.762   4.212   4.771  0.0884 -0.3826  0.0581
  118MOL   C13330787   2.852   4.263   4.888 -0.8807 -0.2498  0.0782
  118MOL   C13430788   2.885   4.388   4.921 -0.0969 -0.3376  0.2263
  118MOL   C13530789   2.968   4.413   5.045 -0.1678 -0.1656  0.0449
  118MOL   C13630790   2.829   4.505   4.843 -0.6028 -0.8742 -0.3834
  118MOL   H13730791   2.677   4.152   4.802 -0.0701 -0.3730 -0.3572
  118MOL   H13830792   2.725   4.292   4.707  1.5241  0.2296 -0.0281
  118MOL   H13930793   2.898   4.186   4.949  1.5367  0.4964 -0.7245
  118MOL   H14030794   2.982   4.335   5.119  0.3710 -0.0605  0.0598
  118MOL   H14130795   2.930   4.505   5.090  1.3704  0.0343  0.9464
  118MOL   H14230796   3.068   4.446   5.015 -1.3054  2.8198 -0.6733
  118MOL   H14330797   2.809   4.488   4.737 -0.8402  0.8623 -0.6239
  118MOL   H14430798   2.907   4.581   4.831 -1.5826  0.2295  0.1585
  118MOL   C14530799   2.703   4.572   4.910 -0.6193  0.2693 -0.6122
  118MOL   C14630800   2.586   4.479   4.951  0.3402  0.2512  0.1358
  118MOL   C14730801   2.451   4.515   4.970 -0.1008  1.0350  0.5216
  118MOL   C14830802   2.356   4.411   5.026  0.6636  0.2663  0.2135
  118MOL   C14930803   2.394   4.656   4.938  0.1198  0.3744 -0.1001
  118MOL   H15030804   2.662   4.650   4.846 -0.7075 -1.3655 -2.6017
  118MOL   H15130805   2.729   4.620   5.005 -0.7916  1.4045 -1.1335
  118MOL   H15230806   2.605   4.375   4.973 -1.1538  0.1034  0.7761
  118MOL   H15330807   2.284   4.455   5.094  0.8057  0.6290  0.1265
  118MOL   H15430808   2.406   4.330   5.079 -1.9621 -0.9380  0.9468
  118MOL   H15530809   2.290   4.385   4.944 -0.8123  0.8407  1.1826
  118MOL   H15630810   2.307   4.645   4.873  0.2359  0.6466 -0.3039
  118MOL   H15730811   2.466   4.712   4.879 -0.2630 -1.6705 -2.6336
  118MOL   C15830812   2.374   4.737   5.068 -0.3766 -0.1661 -0.3866
  118MOL   C15930813   2.301   4.872   5.046  0.6021  0.2334 -0.4582
  118MOL   C16030814   2.314   4.997   5.104  1.0028  0.0916  0.2859
  118MOL   C16130815   2.430   5.030   5.201 -0.3299  0.4806 -0.5288
  118MOL   C16230816   2.212   5.110   5.087  0.5091 -0.6258  0.0328
  118MOL   H16330817   2.471   4.757   5.114 -0.3580  1.7549 -1.2224
  118MOL   H16430818   2.304   4.687   5.134 -0.1545 -0.3964 -0.3287
  118MOL   H16530819   2.207   4.868   4.992 -0.2542  0.3012  1.0091
  118MOL   H16630820   2.476   4.938   5.238 -1.6967 -0.5697 -1.4207
  118MOL   H16730821   2.398   5.097   5.281  0.5952  0.0591  0.2134
  118MOL   H16830822   2.512   5.076   5.147  0.2506 -0.0022 -0.0658
  118MOL   H16930823   2.178   5.108   4.983 -2.9198 -1.1423  1.0956
  118MOL   H17030824   2.231   5.211   5.122 -0.3462  0.2274 -1.8853
  118MOL   C17130825   2.081   5.076   5.155 -0.6335 -0.6849  0.2075
  118MOL   C17230826   2.075   5.069   5.307 -0.3487  0.3239  0.5780
  118MOL   C17330827   1.986   5.128   5.386 -0.7850  0.0861  0.3953
  118MOL   C17430828   1.862   5.201   5.327  0.1678 -0.0164  0.2004
  118MOL   C17530829   1.998   5.109   5.547  0.3227 -0.7555 -0.4102
  118MOL   H17630830   2.053   4.977   5.119 -1.8972  0.3651 -1.8019
  118MOL   H17730831   2.005   5.142   5.112 -1.4466 -1.5875  0.2489
  118MOL   H17830832   2.152   5.009   5.351 -1.0821 -0.3949  0.8809
  118MOL   H17930833   1.841   5.291   5.384 -2.5672 -0.4422 -0.0300
  118MOL   H18030834   1.774   5.136   5.335 -1.7941  2.7846  2.0882
  118MOL   H18130835   1.873   5.237   5.225 -1.5377  2.4953  0.8455
  118MOL   H18230836   2.004   5.210   5.588 -0.2863 -0.9678  0.1945
  118MOL   H18330837   2.087   5.052   5.574 -0.3403 -2.8863 -2.4780
  118MOL   C18430838   1.874   5.040   5.614 -0.6025 -0.4697 -0.1163
  118MOL   C18530839   1.899   4.965   5.743 -0.5341  0.2841  0.2347
  118MOL   C18630840   1.832   4.988   5.856  0.2681 -0.2409 -0.9313
  118MOL   C18730841   1.857   4.901   5.984  0.4077  0.4416 -0.3323
  118MOL   C18830842   1.735   5.101   5.880  0.7102 -0.0412 -0.3687
  118MOL   H18930843   1.842   4.966   5.541 -3.3179  0.4157  0.0928
  118MOL   H19030844   1.793   5.113   5.621 -1.5250 -1.5348  0.5722
  118MOL   H19130845   1.976   4.889   5.739  0.5000  1.3831 -0.9680
  118MOL   H19230846   1.766   4.896   6.043 -0.0528  1.4457 -0.9431
  118MOL   H19330847   1.936   4.951   6.039 -1.5961  2.5629  0.7142
  118MOL   H19430848   1.879   4.796   5.962 -2.2631 -0.5759  1.5569
  118MOL   H19530849   1.691   5.091   5.979 -0.0444  1.1611 -0.5770
  118MOL   H19630850   1.653   5.100   5.807  1.4990 -0.3084 -1.2573
  118MOL   C19730851   1.800   5.235   5.878  0.2485 -0.1732  0.4919
  118MOL   C19830852   1.710   5.356   5.913  0.6317  0.5766  0.2827
  118MOL   C19930853   1.743   5.457   5.995  0.3401  0.2258 -0.4551
  118MOL   C20030854   1.643   5.562   6.027  0.1855 -0.3311  0.0492
  118MOL   C20130855   1.878   5.472   6.068  0.1255 -0.4599  0.4483
  118MOL   H20230856   1.837   5.245   5.776  1.5992 -0.0032  0.9870
  118MOL   H20330857   1.888   5.227   5.943  0.0143 -3.0342  0.4886
  118MOL   H20430858   1.614   5.356   5.864  1.0996  1.1508 -0.6450
  118MOL   H20530859   1.611   5.569   6.131 -1.5860  2.3941 -0.6203
  118MOL   H20630860   1.549   5.541   5.977 -0.8185  1.8977  0.9035
  118MOL   H20730861   1.673   5.658   5.984  0.8480 -0.7866 -0.5128
  118MOL   H20830862   1.908   5.381   6.119 -1.5981 -0.4719  1.4671
  118MOL   H20930863   1.855   5.538   6.151 -0.4462  0.9089 -0.7735
  118MOL   C21030864   1.983   5.551   5.983  0.5399 -0.2526 -0.0143
  118MOL   C21130865   2.105   5.602   6.062  0.1894 -0.8557 -0.4137
  118MOL   C21230866   2.221   5.537   6.085 -0.2708  0.0159  0.6862
  118MOL   C21330867   2.337   5.597   6.165  0.4037  0.1078  0.4491
  118MOL   C21430868   2.244   5.396   6.029 -0.6155 -0.1303  0.5407
  118MOL   H21530869   1.931   5.626   5.923  0.4431 -0.1976  0.1367
  118MOL   H21630870   2.019   5.484   5.905  0.8526  0.8164 -0.7974
  118MOL   H21730871   2.088   5.696   6.112 -3.1666 -2.0868  0.9675
  118MOL   H21830872   2.323   5.700   6.199 -1.9462 -0.3574  0.9845
  118MOL   H21930873   2.433   5.608   6.116 -0.1633 -1.5121 -1.0445
  118MOL   H22030874   2.338   5.530   6.251 -1.6091 -0.1786  0.2637
  118MOL   H22130875   2.164   5.349   5.970 -0.1887  0.3924 -0.4804
  118MOL   H22230876   2.276   5.332   6.110  1.6666 -0.4895 -0.6155
  118MOL   C22330877   2.369   5.391   5.940 -0.5850  0.8542 -0.4147
  118MOL   C22430878   2.395   5.243   5.892 -0.5334 -0.1954 -0.5456
  118MOL   C22530879   2.386   5.197   5.766  0.2293  0.2631  0.0385
  118MOL   C22630880   2.412   5.047   5.737  0.6368  0.5144  1.0462
  118MOL   C22730881   2.354   5.278   5.638 -0.2708  0.5566  0.1422
  118MOL   H22830882   2.452   5.421   6.004 -0.8745  0.9136 -0.0628
  118MOL   H22930883   2.372   5.460   5.856 -1.6024 -1.0993 -2.1167
  118MOL   H23030884   2.425   5.172   5.968 -0.8254  0.1712 -0.0837
  118MOL   H23130885   2.471   5.027   5.648 -0.3462 -2.1982  0.9641
  118MOL   H23230886   2.313   5.012   5.709  0.4584  1.6948  0.1376
  118MOL   H23330887   2.455   4.993   5.821  2.7642  1.2550  0.4641
  118MOL   H23430888   2.268   5.343   5.653 -0.6389 -0.2138  1.5478
  118MOL   H23530889   2.332   5.198   5.567  2.8715  0.2647 -0.5771
  118MOL   C23630890   2.480   5.354   5.580 -0.0964 -0.1155 -0.0382
  118MOL   C23730891   2.472   5.385   5.429  0.1673  0.0685  0.3935
  118MOL   C23830892   2.475   5.510   5.375  0.0530 -0.3865 -0.0393
  118MOL   C23930893   2.472   5.525   5.228 -0.2279  0.1741 -0.1491
  118MOL   C24030894   2.513   5.639   5.440  0.2198  0.7079 -0.3610
  118MOL   H24130895   2.575   5.311   5.609 -0.0315  0.3835  0.4964
  118MOL   H24230896   2.472   5.448   5.635  0.0867 -0.1827  0.1033
  118MOL   H24330897   2.457   5.294   5.373 -0.6566 -0.3080  1.2232
  118MOL   H24430898   2.571   5.520   5.182 -0.1772  1.1105 -0.1588
  118MOL   H24530899   2.423   5.620   5.206 -1.5951 -0.1401  1.4697
  118MOL   H24630900   2.414   5.447   5.178 -0.0908 -0.2653  0.3738
  118MOL   H24730901   2.581   5.692   5.373  1.7742 -0.3053  0.4233
  118MOL   H24830902   2.584   5.624   5.521  1.8368  1.2014 -1.6593
  118MOL   C24930903   2.389   5.720   5.483  0.3454 -0.4483 -0.1466
  118MOL   C25030904   2.413   5.842   5.564 -0.2700 -0.7043  0.2622
  118MOL   C25130905   2.418   5.848   5.697 -0.1101 -0.5785  0.1979
  118MOL   C25230906   2.445   5.978   5.763 -0.0821 -0.3517 -0.0395
  118MOL   C25330907   2.393   5.732   5.789  0.6415 -0.6181  0.3599
  118MOL   H25430908   2.323   5.664   5.550 -0.3232 -0.4430 -0.8002
  118MOL   H25530909   2.335   5.752   5.395 -1.5255  1.5055  1.6455
  118MOL   H25630910   2.434   5.936   5.514 -0.7136 -0.4156  0.6080
  118MOL   H25730911   2.351   6.019   5.800 -0.1708 -0.4616 -0.1440
  118MOL   H25830912   2.489   6.055   5.700  0.2235 -0.0253  0.5685
  118MOL   H25930913   2.516   5.960   5.843 -1.5413 -1.4089  1.0452
  118MOL   H26030914   2.393   5.637   5.735  1.9073  0.6067 -1.8615
  118MOL   H26130915   2.288   5.736   5.818  0.1295 -0.8212 -1.4013
  118MOL   H26230916   2.459   5.729   5.876  0.7585 -1.2818  0.2468
  119MOL     C130917   4.884   4.416   2.177  0.2023 -0.2667  0.5910
  119MOL     C230918   5.015   4.465   2.240 -0.2845  0.8818 -0.1557
  119MOL     C330919   5.144   4.451   2.200  0.2066  0.1325 -0.1938
  119MOL     C430920   5.255   4.514   2.289  0.2402 -0.1813  0.0020
  119MOL     C530921   5.190   4.389   2.067 -0.4234  0.1421 -0.7553
  119MOL     H630922   4.823   4.506   2.165  1.2133  0.0627 -2.3455
  119MOL     H730923   4.901   4.374   2.079 -2.3893  0.5531 -0.2377
  119MOL     H830924   5.005   4.520   2.333 -0.7874  2.1312 -0.9472
  119MOL     H930925   5.211   4.581   2.364  1.4276 -0.5356  1.0252
  119MOL    H1030926   5.325   4.564   2.222 -0.7610  0.9888 -0.1992
  119MOL    H1130927   5.304   4.442   2.353 -1.7201  1.5673  3.6334
  119MOL    H1230928   5.265   4.456   2.025 -0.2478  0.0533 -0.5843
  119MOL    H1330929   5.109   4.387   1.995  0.3732 -2.5702 -1.6287
  119MOL    H1430930   4.843   4.336   2.238  1.3931  0.0384  1.8231
  119MOL    C1530931   5.266   4.262   2.077 -0.3804  0.6145 -0.0453
  119MOL    C1630932   5.196   4.163   2.159 -0.1298  0.3712  0.0824
  119MOL    C1730933   5.239   4.090   2.262 -0.1502  0.6094 -0.6934
  119MOL    C1830934   5.139   3.999   2.340  0.4329 -0.2704 -0.0612
  119MOL    C1930935   5.381   4.089   2.311 -0.4006 -0.5854 -0.0653
  119MOL    H2030936   5.366   4.285   2.113  0.4913 -2.8181 -0.0423
  119MOL    H2130937   5.263   4.229   1.973  0.1276 -0.9201  0.4160
  119MOL    H2230938   5.091   4.157   2.133 -0.4014 -0.3763  1.2989
  119MOL    H2330939   5.131   3.901   2.292  0.8785  0.0725 -0.8483
  119MOL    H2430940   5.044   4.051   2.328  0.1203 -0.2761  2.2597
  119MOL    H2530941   5.173   3.986   2.443  0.9325  0.7522 -0.0974
  119MOL    H2630942   5.434   4.144   2.233  3.0829 -0.5168  2.2237
  119MOL    H2730943   5.426   3.990   2.318  1.7028  0.3960  0.7562
  119MOL    C2830944   5.390   4.165   2.446  0.1396  0.1515 -0.1266
  119MOL    C2930945   5.531   4.213   2.467 -0.6413  0.0299  0.0267
  119MOL    C3030946   5.613   4.186   2.568  0.3726 -0.5475  0.6831
  119MOL    C3130947   5.753   4.247   2.585 -0.1612 -0.5919  0.2753
  119MOL    C3230948   5.570   4.090   2.684 -0.1987 -0.1061 -0.1184
  119MOL    H3330949   5.354   4.107   2.531 -0.7034  1.4668  0.4360
  119MOL    H3430950   5.329   4.255   2.459  1.0168  0.4080  2.5454
  119MOL    H3530951   5.572   4.284   2.397 -1.2761  0.6951  0.3244
  119MOL    H3630952   5.835   4.180   2.613  0.0075  0.3354  2.0302
  119MOL    H3730953   5.734   4.306   2.674  1.7024 -0.3498  0.5427
  119MOL    H3830954   5.797   4.312   2.508  1.4166 -1.0037  0.8004
  119MOL    H3930955   5.662   4.034   2.699  0.5325  1.1099 -0.0682
  119MOL    H4030956   5.487   4.024   2.657 -0.0844  0.0044 -0.7523
  119MOL    C4130957   5.553   4.160   2.819  0.2338 -0.0307  0.1225
  119MOL    C4230958   5.528   4.057   2.934  0.1471  0.3815  1.0427
  119MOL    C4330959   5.413   4.016   2.985  0.0775  0.5174 -0.4224
  119MOL    C4430960   5.412   3.904   3.092 -0.4080 -0.5302  0.0161
  119MOL    C4530961   5.276   4.046   2.930  0.3266  0.4182  0.1963
  119MOL    H4630962   5.469   4.227   2.802  0.4237  0.3426  0.6172
  119MOL    H4730963   5.644   4.216   2.841 -1.4285  2.6760  0.4077
  119MOL    H4830964   5.617   4.004   2.965 -0.1329 -1.2622 -0.9271
  119MOL    H4930965   5.510   3.871   3.124 -0.2974 -0.9524 -0.7331
  119MOL    H5030966   5.351   3.825   3.048  0.3135 -1.9949  1.5948
  119MOL    H5130967   5.357   3.948   3.175  0.5204  1.2830 -0.3188
  119MOL    H5230968   5.285   4.141   2.876  1.0490 -0.3853 -1.1317
  119MOL    H5330969   5.203   4.070   3.007  0.4482  0.2186  0.3707
  119MOL    C5430970   5.229   3.947   2.825  0.2290 -0.1134  0.2743
  119MOL    C5530971   5.088   3.991   2.776 -0.4797  0.1358  0.5055
  119MOL    C5630972   4.972   3.919   2.768 -0.4746  0.2911 -0.4129
  119MOL    C5730973   4.839   3.987   2.709  0.4587 -0.3282 -0.4848
  119MOL    C5830974   4.954   3.765   2.801  0.6593  0.1411  0.3111
  119MOL    H5930975   5.237   3.846   2.863 -0.0021 -1.0406 -2.0195
  119MOL    H6030976   5.301   3.954   2.743 -0.1474 -2.4779 -0.2969
  119MOL    H6130977   5.082   4.092   2.739 -0.0995 -0.2705 -0.6856
  119MOL    H6230978   4.855   4.087   2.670  1.9497 -0.7030 -0.8970
  119MOL    H6330979   4.765   3.985   2.789  0.7289  2.2196 -0.1320
  119MOL    H6430980   4.800   3.931   2.624 -2.9423 -0.2190  0.9562
  119MOL    H6530981   4.862   3.743   2.855  0.4867 -0.8298 -0.3697
  119MOL    H6630982   5.042   3.733   2.857 -1.5846 -1.4390  3.0575
  119MOL    C6730983   4.934   3.688   2.673  0.0519 -0.1052  0.0322
  119MOL    C6830984   4.969   3.542   2.687 -0.3792 -0.2070 -0.2677
  119MOL    C6930985   5.089   3.484   2.657 -0.1217 -0.2940 -0.2707
  119MOL    C7030986   5.114   3.344   2.692 -0.1737 -0.3739 -0.5471
  119MOL    C7130987   5.215   3.547   2.587  0.5472  0.6359  0.2259
  119MOL    H7230988   5.002   3.727   2.597  0.2725 -1.2852 -0.3811
  119MOL    H7330989   4.830   3.698   2.643  0.2276 -0.1747 -0.6054
  119MOL    H7430990   4.895   3.487   2.743  1.7000  0.0735  2.9636
  119MOL    H7530991   5.027   3.303   2.744 -0.0265 -1.5062 -1.1683
  119MOL    H7630992   5.203   3.337   2.756  0.0990  1.9149 -0.6273
  119MOL    H7730993   5.131   3.290   2.599 -2.0098 -0.9601 -0.5637
  119MOL    H7830994   5.192   3.651   2.567  0.3975  0.4578 -0.5273
  119MOL    H7930995   5.227   3.506   2.487 -0.6683 -2.2959  1.2162
  119MOL    C8030996   5.338   3.567   2.679 -0.1320 -0.1358 -0.1351
  119MOL    C8130997   5.449   3.651   2.625 -0.3597 -0.9628 -0.4002
  119MOL    C8230998   5.573   3.608   2.603 -0.3869  0.0981  0.1284
  119MOL    C8330999   5.613   3.458   2.616  0.0156  0.4462  0.3857
  119MOL    C8431000   5.677   3.713   2.555  0.0662 -0.5889 -0.4739
  119MOL    H8531001   5.373   3.469   2.713 -1.7640 -0.5173  0.4850
  119MOL    H8631002   5.301   3.603   2.775 -0.4098 -1.7923  0.3943
  119MOL    H8731003   5.431   3.758   2.623  0.0105 -0.9147 -2.4730
  119MOL    H8831004   5.706   3.457   2.558 -1.5062  0.3853 -2.1237
  119MOL    H8931005   5.538   3.390   2.576  0.1766  0.4154  0.1369
  119MOL    H9031006   5.641   3.432   2.718  2.4740  0.1854 -0.3112
  119MOL    H9131007   5.641   3.800   2.501  2.7683  0.0155 -1.3870
  119MOL    H9231008   5.739   3.668   2.477 -2.6659 -1.7968 -1.9896
  119MOL    C9331009   5.757   3.770   2.672  0.0348 -0.3428 -0.0473
  119MOL    C9431010   5.866   3.860   2.626 -0.1486 -0.0705  0.3131
  119MOL    C9531011   5.990   3.865   2.674  0.1323 -0.1433 -0.3586
  119MOL    C9631012   6.087   3.978   2.624 -0.0184  0.5281 -0.2485
  119MOL    C9731013   6.046   3.761   2.777 -0.1951 -0.5144  0.1466
  119MOL    H9831014   5.792   3.689   2.736  2.0225  0.8925  0.4504
  119MOL    H9931015   5.677   3.821   2.725 -1.0432 -1.7423 -0.3039
  119MOL   H10031016   5.841   3.932   2.549 -2.3326 -1.2849 -0.1753
  119MOL   H10131017   6.124   4.027   2.714  1.1021  1.1903 -1.0587
  119MOL   H10231018   6.170   3.940   2.565 -0.5006 -1.0058  0.0274
  119MOL   H10331019   6.039   4.051   2.559 -0.5541 -0.0682 -0.5264
  119MOL   H10431020   6.152   3.765   2.753 -0.6477 -2.1816 -2.2290
  119MOL   H10531021   6.007   3.660   2.766 -0.5975 -0.5168  1.4805
  119MOL   C10631022   6.039   3.818   2.918  0.5798  0.4270  0.5803
  119MOL   C10731023   6.134   3.752   3.018  0.2567 -1.0372  0.0870
  119MOL   C10831024   6.105   3.689   3.132  0.8093  0.0391  0.1681
  119MOL   C10931025   5.966   3.681   3.191  0.0167  0.2303 -0.1996
  119MOL   C11031026   6.208   3.627   3.227 -0.2170  0.0069 -0.4028
  119MOL   H11131027   5.937   3.815   2.955  0.1832 -0.8505 -0.5338
  119MOL   H11231028   6.061   3.924   2.908 -1.6840  0.8251 -0.3311
  119MOL   H11331029   6.234   3.756   2.978 -0.5488  2.4097 -1.7823
  119MOL   H11431030   5.938   3.740   3.278  0.4528 -0.4926  0.4473
  119MOL   H11531031   5.882   3.687   3.122 -0.7752 -1.0051  0.6314
  119MOL   H11631032   5.948   3.579   3.225 -0.9233  0.5402  0.2458
  119MOL   H11731033   6.174   3.525   3.247  2.0238 -0.8579 -0.8755
  119MOL   H11831034   6.210   3.684   3.319 -2.1161 -0.2635 -0.1641
  119MOL   C11931035   6.352   3.607   3.166  0.4803  0.2402 -0.6675
  119MOL   C12031036   6.460   3.558   3.258 -0.0400 -0.4334  0.0351
  119MOL   C12131037   6.499   3.430   3.273  0.1499 -0.1517 -0.3762
  119MOL   C12231038   6.604   3.400   3.377 -0.2472  0.2326  0.5786
  119MOL   C12331039   6.445   3.306   3.202 -0.7437  0.1154  0.0478
  119MOL   H12431040   6.385   3.694   3.109  1.7579  1.2200  1.4922
  119MOL   H12531041   6.342   3.536   3.085 -0.6370  0.2328 -0.5237
  119MOL   H12631042   6.505   3.637   3.318  1.9928 -1.0905 -0.5621
  119MOL   H12731043   6.702   3.366   3.343 -1.1882 -1.5340 -0.5044
  119MOL   H12831044   6.560   3.322   3.440 -0.2341  1.2401  1.8492
  119MOL   H12931045   6.614   3.481   3.449  2.5577 -0.6276  1.1919
  119MOL   H13031046   6.340   3.308   3.172 -1.0019  0.6082  0.9567
  119MOL   H13131047   6.448   3.223   3.273  0.4911 -1.4078 -1.7369
  119MOL   C13231048   6.543   3.262   3.092  0.0232  0.2322 -1.3393
  119MOL   C13331049   6.494   3.145   3.017 -0.6146 -0.7646 -0.7337
  119MOL   C13431050   6.560   3.072   2.924 -0.1135  0.2018 -0.4532
  119MOL   C13531051   6.488   2.952   2.868 -0.0136  0.3688  0.4119
  119MOL   C13631052   6.705   3.085   2.880 -0.5442  0.0175  0.6466
  119MOL   H13731053   6.632   3.230   3.146 -1.2216 -0.1988  0.4759
  119MOL   H13831054   6.572   3.345   3.027 -1.1989  2.0752  0.4236
  119MOL   H13931055   6.393   3.120   3.047 -0.7935  2.5909  1.7074
  119MOL   H14031056   6.481   2.874   2.944  3.4914 -0.5954 -0.1414
  119MOL   H14131057   6.537   2.925   2.775 -0.3357 -0.8326  0.5789
  119MOL   H14231058   6.392   2.993   2.838  1.0641  1.2269 -1.9572
  119MOL   H14331059   6.761   2.992   2.887 -2.7373 -1.2489  1.8435
  119MOL   H14431060   6.759   3.149   2.950 -1.7134 -0.7345  2.2640
  119MOL   C14531061   6.720   3.146   2.742  0.3417 -0.7990  0.0506
  119MOL   C14631062   6.857   3.221   2.726  0.0607  0.1797  0.4346
  119MOL   C14731063   6.875   3.340   2.667  0.5019 -0.1811  0.7287
  119MOL   C14831064   7.006   3.409   2.687  0.6293 -0.1212 -0.0092
  119MOL   C14931065   6.769   3.409   2.585  0.8017 -0.1660  0.1629
  119MOL   H15031066   6.641   3.216   2.717  1.0459  0.7646  2.0869
  119MOL   H15131067   6.715   3.068   2.667 -1.2007 -0.1811 -0.4916
  119MOL   H15231068   6.945   3.178   2.772  1.1321  1.6364 -0.2062
  119MOL   H15331069   7.056   3.413   2.590  1.9833 -2.1733  0.5601
  119MOL   H15431070   7.068   3.363   2.764 -2.7138 -0.4625  2.5923
  119MOL   H15531071   6.990   3.514   2.713 -2.1088 -0.4386 -0.2420
  119MOL   H15631072   6.708   3.329   2.542 -0.9685 -0.2463  2.7402
  119MOL   H15731073   6.831   3.454   2.506 -0.8835  1.1992 -0.4112
  119MOL   C15831074   6.686   3.511   2.663 -0.3049 -0.7888 -0.2848
  119MOL   C15931075   6.586   3.594   2.578  0.1608 -0.3645 -0.4210
  119MOL   C16031076   6.455   3.615   2.604 -0.2288 -0.4335 -0.0179
  119MOL   C16131077   6.388   3.541   2.717  0.9763 -0.0538 -0.2591
  119MOL   C16231078   6.373   3.706   2.523 -0.0573  0.4193 -0.0638
  119MOL   H16331079   6.757   3.575   2.714 -1.0134 -1.6601  1.8349
  119MOL   H16431080   6.633   3.470   2.748 -0.3758  1.6754  0.9043
  119MOL   H16531081   6.624   3.642   2.489 -0.8613 -1.2068 -1.3106
  119MOL   H16631082   6.282   3.537   2.692  1.2038  0.0976 -1.2641
  119MOL   H16731083   6.397   3.580   2.818 -0.7482  1.5848 -0.7081
  119MOL   H16831084   6.416   3.436   2.726  2.5931  0.4742  1.0797
  119MOL   H16931085   6.439   3.786   2.491  0.1492 -0.4812 -1.9596
  119MOL   H17031086   6.307   3.767   2.585  0.2012 -0.5380  1.1819
  119MOL   C17131087   6.305   3.645   2.400 -0.0679 -0.1648 -0.4376
  119MOL   C17231088   6.183   3.726   2.350 -0.5122  0.6486 -0.2384
  119MOL   C17331089   6.062   3.690   2.305  0.0702 -0.1087  0.0451
  119MOL   C17431090   6.016   3.547   2.312 -0.2903  0.1013  0.1186
  119MOL   C17531091   5.961   3.792   2.253  0.4836 -0.3659 -0.1379
  119MOL   H17631092   6.268   3.549   2.436  1.0665 -0.5117 -0.1896
  119MOL   H17731093   6.381   3.641   2.322 -0.6211 -0.7211 -0.9612
  119MOL   H17831094   6.213   3.829   2.345 -2.5837  1.2361 -0.6858
  119MOL   H17931095   5.910   3.540   2.286 -0.5724  3.9089 -0.0030
  119MOL   H18031096   6.026   3.506   2.412  1.3807 -1.2620 -0.5897
  119MOL   H18131097   6.070   3.484   2.242 -0.2957  0.3579 -0.1169
  119MOL   H18231098   5.900   3.777   2.341  4.4476 -2.5485  2.3838
  119MOL   H18331099   5.907   3.750   2.168  1.3466 -1.2850 -0.2505
  119MOL   C18431100   6.008   3.937   2.226  0.1606 -0.6366 -0.6008
  119MOL   C18531101   6.087   3.977   2.102 -0.7176 -0.4166 -0.3610
  119MOL   C18631102   6.171   4.084   2.096 -0.0363 -0.4147  0.5101
  119MOL   C18731103   6.263   4.103   1.973 -0.4928  0.9393 -0.5827
  119MOL   C18831104   6.180   4.185   2.212 -0.7688  0.4387  0.3928
  119MOL   H18931105   6.049   3.976   2.319  1.3437 -1.4002 -0.8081
  119MOL   H19031106   5.925   4.007   2.211  0.9039  0.1918 -0.9156
  119MOL   H19131107   6.087   3.908   2.019  0.1424 -1.4428  0.4794
  119MOL   H19231108   6.248   4.012   1.915  1.5018  0.3181 -0.1639
  119MOL   H19331109   6.369   4.122   1.991 -0.1119  1.2368 -2.8922
  119MOL   H19431110   6.223   4.181   1.909  1.1525  1.1328 -1.4132
  119MOL   H19531111   6.270   4.245   2.196 -1.7342  2.2716  1.6212
  119MOL   H19631112   6.197   4.136   2.308 -0.1499 -0.6223 -0.2452
  119MOL   C19731113   6.054   4.278   2.221 -0.2678  0.7089 -0.0349
  119MOL   C19831114   6.081   4.382   2.329 -0.2087  0.1444 -0.6879
  119MOL   C19931115   6.082   4.515   2.311  0.6297  0.4628  0.2294
  119MOL   C20031116   6.124   4.603   2.429 -0.1558 -0.2555  0.0237
  119MOL   C20131117   6.061   4.580   2.173 -0.8657 -0.0512 -0.2049
  119MOL   H20231118   5.968   4.226   2.261  0.2522  0.7340  1.1461
  119MOL   H20331119   6.031   4.328   2.127  1.0966  2.5571  0.5766
  119MOL   H20431120   6.095   4.338   2.427  0.6811 -0.8846 -1.2702
  119MOL   H20531121   6.036   4.622   2.491 -1.2749 -0.1057 -1.5876
  119MOL   H20631122   6.168   4.699   2.399  0.7548  0.1498  2.5360
  119MOL   H20731123   6.198   4.545   2.484 -0.3513  1.4518  2.1578
  119MOL   H20831124   6.017   4.677   2.193  2.0628  0.9774  1.4419
  119MOL   H20931125   5.976   4.541   2.116 -1.3784  0.1791  0.3992
  119MOL   C21031126   6.176   4.571   2.066 -0.5762 -0.0309 -0.5451
  119MOL   C21131127   6.120   4.616   1.934  0.1630 -0.7648  0.4281
  119MOL   C21231128   6.177   4.715   1.859  0.1367  0.2883 -0.4650
  119MOL   C21331129   6.109   4.750   1.732 -0.6744 -0.7810  0.0146
  119MOL   C21431130   6.287   4.818   1.901  0.3004 -0.1537 -1.0704
  119MOL   H21531131   6.222   4.472   2.065 -1.1229 -0.3162  1.0205
  119MOL   H21631132   6.254   4.634   2.108  2.7649 -2.6515 -2.5513
  119MOL   H21731133   6.035   4.563   1.896  0.0108 -0.1141 -0.1357
  119MOL   H21831134   6.017   4.694   1.716 -0.3565 -0.9661 -1.1423
  119MOL   H21931135   6.176   4.729   1.649 -1.3580 -0.3729 -0.6441
  119MOL   H22031136   6.067   4.850   1.748  2.6113  0.5050  1.0999
  119MOL   H22131137   6.305   4.805   2.008 -1.7899 -1.6454 -0.8737
  119MOL   H22231138   6.233   4.912   1.894 -1.5136 -1.0879 -0.1466
  119MOL   C22331139   6.414   4.810   1.810  0.4131 -0.6315 -0.6879
  119MOL   C22431140   6.525   4.903   1.862  0.0841 -0.1152 -0.1484
  119MOL   C22531141   6.657   4.889   1.849 -0.4230  0.3787 -0.3984
  119MOL   C22631142   6.747   5.011   1.879 -0.3517 -0.5672 -0.7940
  119MOL   C22731143   6.725   4.758   1.811  0.3682  0.8050 -0.5836
  119MOL   H22831144   6.386   4.855   1.715 -1.6497  2.3192  1.2321
  119MOL   H22931145   6.452   4.710   1.790  0.6024 -0.8138  0.5355
  119MOL   H23031146   6.486   5.000   1.891 -0.5628 -0.4883  0.2401
  119MOL   H23131147   6.822   5.024   1.802  0.1266  3.2702  0.2382
  119MOL   H23231148   6.813   4.980   1.960  0.1944 -2.1912 -1.8325
  119MOL   H23331149   6.694   5.104   1.899 -2.0254 -1.5125 -0.7094
  119MOL   H23431150   6.822   4.797   1.779  0.7076  0.1286 -0.3847
  119MOL   H23531151   6.690   4.695   1.729  0.3945  0.8923 -0.6618
  119MOL   C23631152   6.745   4.674   1.940 -0.7317 -0.0959  0.2918
  119MOL   C23731153   6.637   4.572   1.976 -0.0788  0.0365  0.2535
  119MOL   C23831154   6.652   4.455   2.042 -0.0029  0.1664 -0.0234
  119MOL   C23931155   6.527   4.365   2.072 -0.4357  0.1045  0.2878
  119MOL   C24031156   6.786   4.400   2.103  0.5731  0.6632 -0.0076
  119MOL   H24131157   6.758   4.734   2.030  0.1656 -0.6826  0.5618
  119MOL   H24231158   6.839   4.620   1.929 -0.3433  0.6172  0.0613
  119MOL   H24331159   6.538   4.587   1.937  0.1132 -1.7387 -0.9460
  119MOL   H24431160   6.534   4.266   2.028  2.0358  1.0495 -1.6259
  119MOL   H24531161   6.444   4.412   2.019 -0.2860 -0.0996 -0.1298
  119MOL   H24631162   6.511   4.369   2.180  0.5981  0.8240  0.4311
  119MOL   H24731163   6.779   4.375   2.208  0.5596 -1.8515 -0.5835
  119MOL   H24831164   6.848   4.489   2.113 -0.6252  1.5031  0.1722
  119MOL   C24931165   6.850   4.290   2.013  0.2279 -0.2075 -0.5396
  119MOL   C25031166   6.997   4.317   2.006 -0.2343  0.5983  0.7015
  119MOL   C25131167   7.103   4.243   2.057  0.0752  0.2504 -0.2468
  119MOL   C25231168   7.245   4.296   2.032 -0.0785  0.2365 -0.1120
  119MOL   C25331169   7.092   4.106   2.132 -0.1903  0.3555  0.3274
  119MOL   H25431170   6.806   4.294   1.913  0.7802 -1.6892 -0.8526
  119MOL   H25531171   6.842   4.187   2.048 -0.5332 -0.5909 -1.7866
  119MOL   H25631172   7.020   4.413   1.961  2.5059  0.3358  1.4930
  119MOL   H25731173   7.309   4.286   2.120 -1.9145 -0.7577  1.1352
  119MOL   H25831174   7.246   4.401   2.002  1.0905 -0.0325 -1.0657
  119MOL   H25931175   7.303   4.235   1.962  1.7203  0.2988  1.2711
  119MOL   H26031176   6.997   4.054   2.141  1.2832 -2.8957 -1.7212
  119MOL   H26131177   7.123   4.107   2.236 -0.3343 -2.3052  0.4167
  119MOL   H26231178   7.150   4.039   2.068 -1.1052 -0.4382  0.3245
  120MOL     C131179   5.531   2.117   6.678 -0.1227 -0.0111  0.0645
  120MOL     C231180   5.540   2.070   6.536 -0.8642 -0.1345  0.0255
  120MOL     C331181   5.597   1.959   6.492  0.4011 -0.0887  0.8542
  120MOL     C431182   5.611   1.933   6.338  0.0529  0.6886 -0.0734
  120MOL     C531183   5.652   1.849   6.579 -0.3373 -0.5088  0.6005
  120MOL     H631184   5.622   2.150   6.729  0.4786 -0.1634 -0.8817
  120MOL     H731185   5.465   2.202   6.694 -1.0053 -0.7057  0.1293
  120MOL     H831186   5.510   2.141   6.460 -0.4862 -0.0258 -0.0235
  120MOL     H931187   5.715   1.917   6.310  0.0557 -1.9771  1.2555
  120MOL    H1031188   5.573   2.015   6.277  0.6030  2.2276  1.6039
  120MOL    H1131189   5.567   1.834   6.323  1.6251 -0.4758  2.6495
  120MOL    H1231190   5.627   1.751   6.538  1.3090 -1.6155  2.1930
  120MOL    H1331191   5.597   1.859   6.673  0.9304  2.1561  1.1324
  120MOL    H1431192   5.497   2.039   6.746  3.2131 -2.3226 -0.7421
  120MOL    C1531193   5.810   1.854   6.600  0.1822 -0.2121 -0.2122
  120MOL    C1631194   5.862   1.744   6.688 -0.3149 -0.0795  0.1322
  120MOL    C1731195   5.895   1.750   6.817  0.0642  0.2087 -0.2244
  120MOL    C1831196   5.945   1.622   6.890  0.1456  0.4726 -0.6376
  120MOL    C1931197   5.881   1.873   6.900 -0.1341 -0.4196 -0.3368
  120MOL    H2031198   5.846   1.952   6.630  1.0556 -0.0786 -1.6192
  120MOL    H2131199   5.856   1.850   6.501  0.9629  3.2424 -0.0428
  120MOL    H2231200   5.869   1.650   6.635  2.1641  0.6880 -0.9569
  120MOL    H2331201   6.053   1.611   6.896 -0.0048 -2.0467 -1.7085
  120MOL    H2431202   5.911   1.531   6.840  1.0546 -0.3151  0.1640
  120MOL    H2531203   5.903   1.621   6.990 -2.6144 -2.6761 -1.7401
  120MOL    H2631204   5.814   1.856   6.984 -0.2036  0.6249 -0.1693
  120MOL    H2731205   5.856   1.964   6.845  2.2853 -0.1942 -1.1632
  120MOL    C2831206   6.021   1.910   6.963  0.2938  0.1761 -0.7486
  120MOL    C2931207   6.011   2.029   7.055 -0.2217 -0.3690  1.1123
  120MOL    C3031208   6.030   2.034   7.187  0.5709 -0.3416 -0.6411
  120MOL    C3131209   6.014   2.168   7.261  0.0953  0.2081  0.2262
  120MOL    C3231210   6.068   1.910   7.274 -0.2641 -0.0285  0.2096
  120MOL    H3331211   6.088   1.940   6.882  0.5425  0.3177 -0.4904
  120MOL    H3431212   6.059   1.824   7.016 -0.3379  0.7118  0.5866
  120MOL    H3531213   5.970   2.117   7.007 -1.2476 -2.5851 -2.2855
  120MOL    H3631214   5.968   2.238   7.192  0.0365 -1.0883 -1.0587
  120MOL    H3731215   6.113   2.209   7.280  0.0286  0.3382  0.2881
  120MOL    H3831216   5.953   2.152   7.350  0.0437  0.9238  0.3199
  120MOL    H3931217   6.008   1.823   7.245  1.5477 -2.2405  2.8218
  120MOL    H4031218   6.044   1.922   7.380 -0.3160 -1.6569  0.3951
  120MOL    C4131219   6.215   1.872   7.262 -0.0208  0.0575  0.3130
  120MOL    C4231220   6.305   1.971   7.339  0.2783  0.2286 -0.1737
  120MOL    C4331221   6.327   1.969   7.472  0.5207 -0.1417 -0.4819
  120MOL    C4431222   6.427   2.078   7.524 -0.0180  0.4833  0.3002
  120MOL    C4531223   6.289   1.852   7.565  0.7699  0.5063  0.8838
  120MOL    H4631224   6.239   1.865   7.156  1.9867 -1.0830  0.8091
  120MOL    H4731225   6.234   1.769   7.294  0.9924  0.2960  0.5177
  120MOL    H4831226   6.360   2.040   7.277 -0.5158  1.5981  0.6227
  120MOL    H4931227   6.528   2.039   7.537  0.7992  2.7555  0.9988
  120MOL    H5031228   6.399   2.105   7.626  1.2554  2.2712  0.2030
  120MOL    H5131229   6.429   2.164   7.457  0.1896  0.5292  0.3673
  120MOL    H5231230   6.246   1.771   7.507 -0.1481 -0.6022  3.0818
  120MOL    H5331231   6.206   1.891   7.625 -0.0571  1.5933 -0.8832
  120MOL    C5431232   6.395   1.786   7.661 -0.6490 -0.0363 -0.4408
  120MOL    C5531233   6.538   1.782   7.604  0.3812  0.6190 -0.2724
  120MOL    C5631234   6.651   1.815   7.668  0.6286  0.4533  0.1764
  120MOL    C5731235   6.781   1.834   7.586 -0.6300  0.3300 -0.1724
  120MOL    C5831236   6.666   1.854   7.815  0.3991 -0.5625  0.8904
  120MOL    H5931237   6.375   1.683   7.693 -0.3829  0.1832  0.4386
  120MOL    H6031238   6.389   1.841   7.755  0.7619  1.9906 -1.5114
  120MOL    H6131239   6.540   1.765   7.498  2.7247  0.4341 -0.2172
  120MOL    H6231240   6.872   1.833   7.647 -1.6482  1.3507  1.4072
  120MOL    H6331241   6.777   1.928   7.532  1.1066 -0.3340 -1.4728
  120MOL    H6431242   6.780   1.760   7.506 -0.2211 -1.2799  1.2661
  120MOL    H6531243   6.567   1.875   7.854 -0.4109 -0.0724 -1.3177
  120MOL    H6631244   6.725   1.946   7.817  1.6320 -1.3585  1.2313
  120MOL    C6731245   6.735   1.749   0.029  0.3502  0.1830  0.4140
  120MOL    C6831246   6.648   1.636   0.086  0.2324  0.9511  0.3230
  120MOL    C6931247   6.674   1.507   0.099 -0.3819  0.0457 -0.5173
  120MOL    C7031248   6.567   1.411   0.147 -0.2601  0.1296  0.5540
  120MOL    C7131249   6.808   1.443   0.066 -0.1905 -0.1753 -0.5368
  120MOL    H7231250   6.770   1.803   0.117  1.2505  0.9042 -0.3782
  120MOL    H7331251   6.817   1.694   7.863  0.5544 -0.9732  2.1541
  120MOL    H7431252   6.549   1.667   0.115  0.5002  2.1983 -0.0785
  120MOL    H7531253   6.609   1.351   0.228 -0.2537 -1.2334 -0.4348
  120MOL    H7631254   6.532   1.343   0.068  3.6912  0.3240 -1.4581
  120MOL    H7731255   6.486   1.472   0.188  1.2303  3.1465 -0.8277
  120MOL    H7831256   6.810   1.345   0.114  0.0081 -0.3641 -0.9234
  120MOL    H7931257   6.882   1.513   0.106 -1.0309  0.4442 -0.0663
  120MOL    C8031258   6.821   1.425   7.792 -0.3983 -0.3558  0.7561
  120MOL    C8131259   6.963   1.377   7.754 -1.0598 -0.3857 -1.0679
  120MOL    C8231260   7.038   1.421   7.653 -0.0666  0.0235 -0.0950
  120MOL    C8331261   6.980   1.516   7.551  0.4731 -0.2990  0.6161
  120MOL    C8431262   7.185   1.383   7.635  0.5479 -0.1849 -0.7643
  120MOL    H8531263   6.804   1.516   7.735  0.3851  0.2257  1.4251
  120MOL    H8631264   6.752   1.343   7.772 -0.8168 -0.0605  0.9763
  120MOL    H8731265   7.005   1.315   7.832 -4.0407  0.7568  1.5915
  120MOL    H8831266   6.872   1.515   7.541  0.7460 -0.1002 -2.6370
  120MOL    H8931267   7.012   1.489   7.451 -2.4777 -0.1753 -0.3970
  120MOL    H9031268   7.014   1.619   7.562 -0.1464 -0.0501  0.1590
  120MOL    H9131269   7.206   1.318   7.720  2.2513 -1.5229 -2.1654
  120MOL    H9231270   7.244   1.474   7.645  0.0814 -0.0208  0.5600
  120MOL    C9331271   7.209   1.303   7.514  0.4858  0.4253  0.2955
  120MOL    C9431272   7.347   1.321   7.451  0.3594 -0.1104  0.2436
  120MOL    C9531273   7.423   1.218   7.404 -0.4803  0.4266 -0.3934
  120MOL    C9631274   7.549   1.242   7.324 -0.4242  0.2322  0.5420
  120MOL    C9731275   7.380   1.074   7.426  0.2968  0.4358 -0.5967
  120MOL    H9831276   7.142   1.330   7.432  0.1835  0.9859  0.7229
  120MOL    H9931277   7.185   1.202   7.546 -0.8612  0.1393 -1.5066
  120MOL   H10031278   7.378   1.422   7.432  3.3598 -1.4466 -2.4202
  120MOL   H10131279   7.562   1.346   7.297 -0.3287 -0.0266 -0.4086
  120MOL   H10231280   7.638   1.207   7.376 -1.1283 -0.6160  1.2115
  120MOL   H10331281   7.542   1.185   7.231  0.0233 -0.3060  0.8345
  120MOL   H10431282   7.338   1.067   7.527  0.3288  1.5337 -0.5028
  120MOL   H10531283   7.473   1.018   7.418 -0.3107 -1.0654  2.2809
  120MOL   C10631284   7.278   1.015   7.331  0.0137  0.0560  0.8461
  120MOL   C10731285   7.197   0.900   7.388 -0.4112  0.3061 -0.0098
  120MOL   C10831286   7.237   0.772   7.379  0.0515  0.2637  0.5683
  120MOL   C10931287   7.355   0.728   7.289 -0.2592 -0.1538 -0.2487
  120MOL   C11031288   7.153   0.661   7.433  0.0583 -0.9757  0.0611
  120MOL   H11131289   7.327   0.999   7.235 -1.3148  0.6826  0.0418
  120MOL   H11231290   7.210   1.095   7.300 -0.8025 -0.5777  0.9802
  120MOL   H11331291   7.120   0.928   7.459 -0.9562  0.0461 -0.4892
  120MOL   H11431292   7.355   0.626   7.250  0.6493 -0.7577  1.2769
  120MOL   H11531293   7.361   0.790   7.199 -0.0494  0.2264  0.0259
  120MOL   H11631294   7.440   0.746   7.355 -0.1901  0.7265 -0.5681
  120MOL   H11731295   7.132   0.586   7.357  1.4498 -1.1080 -0.1995
  120MOL   H11831296   7.055   0.697   7.466 -0.4428 -2.0110 -0.2863
  120MOL   C11931297   7.216   0.582   7.548  0.2651  0.8828 -0.3422
  120MOL   C12031298   7.126   0.468   7.597  0.4747  0.2387  0.3570
  120MOL   C12131299   7.104   0.433   7.728  0.6892 -0.0848 -0.1518
  120MOL   C12231300   6.996   0.332   7.778  0.3147 -0.1556  0.2351
  120MOL   C12331301   7.176   0.502   7.840 -0.2247 -0.1059  0.0224
  120MOL   H12431302   7.241   0.648   7.630 -0.6892 -0.8133  1.3547
  120MOL   H12531303   7.308   0.535   7.514 -0.9500 -1.2703 -0.7839
  120MOL   H12631304   7.073   0.413   7.521 -0.9199 -0.1576  1.5928
  120MOL   H12731305   6.957   0.364   7.875  3.2841  2.7302  0.5806
  120MOL   H12831306   7.054   0.240   7.785  0.2733 -0.3308 -1.5844
  120MOL   H12931307   6.910   0.318   7.713  4.0585 -0.2935 -5.0031
  120MOL   H13031308   7.105   0.517   0.042 -1.8076 -1.3465 -1.0973
  120MOL   H13131309   7.199   0.605   7.813 -0.4293 -1.0549 -4.1538
  120MOL   C13231310   7.298   0.409   0.006  0.2944 -0.1408  0.6622
  120MOL   C13331311   7.408   0.400   7.779  0.1792  0.2013 -0.0987
  120MOL   C13431312   7.513   0.482   7.762 -0.3051  0.7030  0.2956
  120MOL   C13531313   7.630   0.443   7.675 -0.0100  0.0391  0.0164
  120MOL   C13631314   7.529   0.611   7.846 -0.5574  0.1670  0.2332
  120MOL   H13731315   7.262   0.309   0.027 -0.8314  0.0848 -0.1493
  120MOL   H13831316   7.337   0.458   0.095 -0.4011  1.8568 -0.0969
  120MOL   H13931317   7.387   0.326   7.703 -1.3641 -0.6532  1.1182
  120MOL   H14031318   7.709   0.417   7.746 -0.7160  0.7058  1.0643
  120MOL   H14131319   7.652   0.530   7.614 -1.4832 -1.1239 -2.2170
  120MOL   H14231320   7.620   0.351   7.617  0.3801  1.9032 -3.0973
  120MOL   H14331321   7.634   0.604   7.876 -0.9542  0.6883  1.7983
  120MOL   H14431322   7.472   0.612   0.060 -1.0562  2.6045 -0.0639
  120MOL   C14531323   7.489   0.740   7.777 -0.4611  0.2700  0.0381
  120MOL   C14631324   7.519   0.857   7.871 -0.2276  0.1995  0.0891
  120MOL   C14731325   7.439   0.969   0.008  0.0207  1.1943 -0.1108
  120MOL   C14831326   7.479   1.088   0.096  0.2977  0.3049  0.4199
  120MOL   C14931327   7.316   0.992   7.802  0.6392 -0.2152  0.9350
  120MOL   H15031328   7.386   0.732   7.743 -0.4290 -1.2997  0.2923
  120MOL   H15131329   7.543   0.749   7.683 -3.1390 -0.2867 -1.6011
  120MOL   H15231330   7.607   0.845   0.055 -0.9201 -0.2628  0.9754
  120MOL   H15331331   7.581   1.085   0.135  1.2087  0.0101 -1.9003
  120MOL   H15431332   7.415   1.125   0.177  0.1466 -1.5341  1.1796
  120MOL   H15531333   7.496   1.173   0.031 -0.0043  0.9234  1.1482
  120MOL   H15631334   7.302   0.918   7.723  1.6010  0.3566  0.2149
  120MOL   H15731335   7.328   1.077   7.735 -1.3284 -0.6152  0.0397
  120MOL   C15831336   7.186   1.023   0.006 -0.7868  0.0287  0.3255
  120MOL   C15931337   7.065   1.035   7.800  0.4214 -0.0318  0.7102
  120MOL   C16031338   6.955   0.956   7.790  0.2976  0.3716  0.4015
  120MOL   C16131339   6.937   0.820   7.866  0.8084 -0.2591 -0.3356
  120MOL   C16231340   6.835   0.988   7.694 -0.2179  0.8302 -0.3022
  120MOL   H16331341   7.200   1.101   0.081 -1.4181  0.2498  0.2174
  120MOL   H16431342   7.179   0.930   0.063  0.8910  1.4263  2.9336
  120MOL   H16531343   7.066   1.119   7.733  1.1326 -0.9492 -0.4540
  120MOL   H16631344   7.022   0.791   0.050 -0.5393 -1.9797  0.7437
  120MOL   H16731345   6.905   0.740   7.799 -0.4088  0.0593 -0.1453
  120MOL   H16831346   6.849   0.835   0.049  0.5449  0.2083 -0.8287
  120MOL   H16931347   6.836   0.927   7.603  1.1715  2.0378 -1.1266
  120MOL   H17031348   6.857   1.083   7.644  2.4258 -1.3693 -3.5409
  120MOL   C17131349   6.699   0.979   7.764  0.6080 -0.5680  0.2506
  120MOL   C17231350   6.590   1.031   7.675 -0.2547 -0.0785  0.5698
  120MOL   C17331351   6.490   0.954   7.624  0.2660  0.3545 -0.2495
  120MOL   C17431352   6.485   0.800   7.614  0.0166 -0.1508 -0.2943
  120MOL   C17531353   6.376   1.016   7.537 -0.3926  0.6405 -0.7645
  120MOL   H17631354   6.699   1.046   7.850 -1.3152  2.4507 -1.9978
  120MOL   H17731355   6.684   0.878   7.804 -1.1131 -0.5885 -0.4274
  120MOL   H17831356   6.589   1.139   7.669 -1.6877 -0.0394  1.1681
  120MOL   H17931357   6.391   0.753   7.642  0.8998 -1.4160  0.6210
  120MOL   H18031358   6.565   0.745   7.664 -1.8505 -1.3616  1.4440
  120MOL   H18131359   6.513   0.775   7.512  1.2760 -3.2030  0.7541
  120MOL   H18231360   6.395   0.991   7.432  1.2240  1.6296 -0.7120
  120MOL   H18331361   6.385   1.125   7.537 -0.2871  0.6642  2.8270
  120MOL   C18431362   6.237   0.978   7.594 -0.1273 -1.4311  0.2416
  120MOL   C18531363   6.121   1.041   7.512  0.2114 -0.2515  0.0727
  120MOL   C18631364   5.993   1.058   7.549  0.3715 -0.1288 -0.1077
  120MOL   C18731365   5.897   1.135   7.464  0.5509 -0.3299  0.5511
  120MOL   C18831366   5.939   1.028   7.692  0.3322 -0.0740  0.1613
  120MOL   H18931367   6.220   1.009   7.698 -0.2335 -2.0858  0.4228
  120MOL   H19031368   6.222   0.871   7.578 -2.2140 -1.0642 -0.3362
  120MOL   H19131369   6.147   1.081   7.416 -0.2342  2.7295  1.1590
  120MOL   H19231370   5.852   1.215   7.523 -0.2643 -1.2512  1.2172
  120MOL   H19331371   5.810   1.071   7.445  0.8742 -0.7723  0.5639
  120MOL   H19431372   5.947   1.172   7.375  1.6462 -1.6019  0.6216
  120MOL   H19531373   5.999   0.957   7.749  1.4250 -2.2529 -3.5354
  120MOL   H19631374   5.841   0.983   7.677  0.2497 -0.1626  0.9812
  120MOL   C19731375   5.924   1.150   7.784  0.3282  0.1702 -0.4030
  120MOL   C19831376   6.059   1.195   7.820  0.8872  0.2131  0.1204
  120MOL   C19931377   6.109   1.317   7.814 -0.3507 -0.7572  0.0258
  120MOL   C20031378   6.249   1.342   7.860 -0.0466  0.4931 -0.3925
  120MOL   C20131379   6.028   1.437   7.767  0.1325 -0.1643 -0.2096
  120MOL   H20231380   5.873   1.119   7.875  0.0254  0.3665 -0.5049
  120MOL   H20331381   5.857   1.224   7.739 -1.8014 -1.7278 -0.4585
  120MOL   H20431382   6.125   1.118   7.857  0.6516 -0.1077 -0.1230
  120MOL   H20531383   6.298   1.383   7.772  0.9712 -1.5277 -0.8116
  120MOL   H20631384   6.300   1.251   0.013 -0.7416  0.7798  1.6114
  120MOL   H20731385   6.250   1.409   0.067 -3.2568  0.3940 -0.2109
  120MOL   H20831386   6.041   1.511   7.846 -3.2713  0.8669 -0.5516
  120MOL   H20931387   5.920   1.427   7.760 -0.0029  0.1319  1.1924
  120MOL   C21031388   6.087   1.503   7.644  0.0087  0.2200 -0.5763
  120MOL   C21131389   5.985   1.610   7.594 -0.4088 -0.2591 -0.4059
  120MOL   C21231390   5.912   1.613   7.484 -0.0076  0.2654 -0.2427
  120MOL   C21331391   5.815   1.726   7.460 -0.5489  0.8849  0.0333
  120MOL   C21431392   5.917   1.501   7.379  0.9577  0.2424 -0.3103
  120MOL   H21531393   6.110   1.426   7.570 -0.1818  0.5081 -0.9379
  120MOL   H21631394   6.182   1.552   7.665  1.4632 -2.5134 -0.5105
  120MOL   H21731395   5.965   1.687   7.667 -1.4051 -0.7103 -0.1821
  120MOL   H21831396   5.846   1.803   7.390 -1.9769 -0.5627 -2.2289
  120MOL   H21931397   5.783   1.773   7.554 -1.5319 -0.3893  0.3502
  120MOL   H22031398   5.725   1.680   7.419  1.2942 -0.3493 -2.6830
  120MOL   H22131399   5.817   1.495   7.337  0.5660  0.1108  0.6306
  120MOL   H22231400   5.952   1.404   7.416  0.9525  0.2495 -0.2866
  120MOL   C22331401   6.010   1.536   7.258  0.6433  0.1499 -0.0545
  120MOL   C22431402   6.038   1.423   7.155 -0.7753  0.2137  0.6312
  120MOL   C22531403   6.160   1.371   7.117 -0.5164 -0.1116 -0.2276
  120MOL   C22631404   6.176   1.278   7.001 -0.3996  0.1827  0.2617
  120MOL   C22731405   6.290   1.409   7.178 -0.2048 -0.1279 -0.1216
  120MOL   H22831406   6.098   1.591   7.294 -0.1175  2.5755 -1.7551
  120MOL   H22931407   5.951   1.609   7.203 -2.8659 -2.8002 -0.3965
  120MOL   H23031408   5.946   1.394   7.106 -1.2234 -0.3352  1.7709
  120MOL   H23131409   6.080   1.247   6.960  0.5313 -1.1859 -0.9598
  120MOL   H23231410   6.221   1.183   7.030 -0.0878 -0.1654 -1.2937
  120MOL   H23331411   6.235   1.342   6.935  1.3846 -1.7294 -0.0836
  120MOL   H23431412   6.293   1.506   7.227 -0.9878 -0.3295  0.3354
  120MOL   H23531413   6.361   1.420   7.096  0.4017 -0.1306  0.3974
  120MOL   C23631414   6.347   1.291   7.267  0.8061 -0.2525  0.9437
  120MOL   C23731415   6.469   1.338   7.347  0.7496  0.1715 -0.7416
  120MOL   C23831416   6.596   1.294   7.328  0.2287  0.5291 -0.4160
  120MOL   C23931417   6.720   1.344   7.404 -0.1690  0.4134  0.3808
  120MOL   C24031418   6.638   1.209   7.211 -0.2262 -0.0358  0.5042
  120MOL   H24131419   6.374   1.209   7.200  1.0842  0.4594  0.1731
  120MOL   H24231420   6.276   1.251   7.339 -0.3236  0.5532  0.2890
  120MOL   H24331421   6.462   1.408   7.429 -0.4270 -0.9927  0.1631
  120MOL   H24431422   6.759   1.436   7.361  0.3333 -0.1467 -0.3796
  120MOL   H24531423   6.807   1.279   7.400 -0.7951 -0.3862 -0.5743
  120MOL   H24631424   6.679   1.371   7.501 -1.1156  2.0378 -0.4454
  120MOL   H24731425   6.742   1.232   7.187 -0.7162  0.6306 -1.0708
  120MOL   H24831426   6.580   1.244   7.125  0.0620  2.1430  1.1832
  120MOL   C24931427   6.615   1.065   7.235  0.8667  0.4952  0.1884
  120MOL   C25031428   6.684   0.974   7.133 -0.7972 -0.1177  0.6042
  120MOL   C25131429   6.809   0.919   7.133 -0.2225  0.0299  0.7974
  120MOL   C25231430   6.860   0.816   7.038 -0.0012  0.5890 -0.6187
  120MOL   C25331431   6.902   0.950   7.245  0.3496  0.2122 -0.6212
  120MOL   H25431432   6.507   1.057   7.235  0.9207 -0.2622 -0.6625
  120MOL   H25531433   6.645   1.039   7.337  3.1042  0.3167 -0.4799
  120MOL   H25631434   6.607   0.942   7.065 -0.7311 -0.7970  0.8422
  120MOL   H25731435   6.923   0.861   6.962  0.6316 -0.1001 -0.5089
  120MOL   H25831436   6.772   0.766   6.997 -0.2482 -0.3121  0.9516
  120MOL   H25931437   6.908   0.733   7.091  2.1255  2.3542  0.2848
  120MOL   H26031438   7.001   0.984   7.213  0.7159 -0.6580 -0.4253
  120MOL   H26131439   6.912   0.849   7.287 -1.3428  0.0990 -0.4880
  120MOL   H26231440   6.862   1.016   7.321 -0.1187 -2.2582  1.3657
  121MOL     C131441   5.889   7.151   0.522  0.0557  0.0512 -0.3176
  121MOL     C231442   6.013   7.112   0.591  0.0233 -0.7360  0.0875
  121MOL     C331443   6.144   7.134   0.563  0.4922 -0.5913  0.2486
  121MOL     C431444   6.249   7.081   0.664  0.1990 -0.0099  0.1344
  121MOL     C531445   6.188   7.211   0.451  0.3178 -0.2211  0.3862
  121MOL     H631446   5.911   7.184   0.420 -2.1295 -1.8389 -1.4411
  121MOL     H731447   5.822   7.065   0.516 -1.1798  1.0260 -0.7958
  121MOL     H831448   5.986   7.073   0.688  1.4540  0.5242  1.0111
  121MOL     H931449   6.312   6.997   0.634  0.2754  0.4141 -0.9144
  121MOL    H1031450   6.201   7.059   0.759  0.9680 -0.4850  0.4160
  121MOL    H1131451   6.309   7.168   0.691 -1.6708  1.3492  0.0540
  121MOL    H1231452   6.269   7.279   0.478 -0.8504  0.9137  1.0971
  121MOL    H1331453   6.104   7.279   0.437 -0.0469 -0.3469  1.8134
  121MOL    H1431454   5.845   7.235   0.575  0.4263  1.5728 -2.3728
  121MOL    C1531455   6.217   7.135   0.321  0.0127  0.3959  0.5980
  121MOL    C1631456   6.122   7.019   0.304 -0.1304  0.5869  0.3003
  121MOL    C1731457   6.147   6.888   0.309  0.2615  1.0890  0.3812
  121MOL    C1831458   6.038   6.777   0.286  0.4135  0.3181 -0.4917
  121MOL    C1931459   6.277   6.821   0.351 -0.0082 -0.0928  0.5662
  121MOL    H2031460   6.320   7.100   0.324  0.1445  0.8472  1.6948
  121MOL    H2131461   6.209   7.205   0.238  0.2539 -2.7876 -2.2189
  121MOL    H2231462   6.024   7.055   0.277 -0.4997  0.5594  1.5720
  121MOL    H2331463   5.945   6.822   0.252  0.5630  0.6849 -0.4208
  121MOL    H2431464   6.013   6.718   0.374  1.8345 -0.7550 -0.7848
  121MOL    H2531465   6.071   6.705   0.211 -0.8561 -0.2440 -0.5256
  121MOL    H2631466   6.265   6.725   0.402  2.2006 -0.0141  1.2644
  121MOL    H2731467   6.320   6.882   0.429  1.1222 -0.7892  0.4993
  121MOL    C2831468   6.384   6.827   0.238  0.0594 -0.1734 -0.1390
  121MOL    C2931469   6.496   6.728   0.273  0.3898  0.1518 -0.2538
  121MOL    C3031470   6.537   6.619   0.202 -0.2714 -0.9625  0.2144
  121MOL    C3131471   6.656   6.539   0.244 -0.1593  0.5019 -0.3110
  121MOL    C3231472   6.476   6.572   0.072 -0.0419 -0.6496  0.3379
  121MOL    H3331473   6.419   6.929   0.223  0.1262 -0.3212 -1.0298
  121MOL    H3431474   6.323   6.807   0.150 -1.1264 -1.7714  1.0196
  121MOL    H3531475   6.534   6.749   0.372  0.8958 -1.1272 -0.1644
  121MOL    H3631476   6.682   6.560   0.348  0.0109  0.3353 -0.3199
  121MOL    H3731477   6.743   6.559   0.182 -0.6332  0.1807 -1.0952
  121MOL    H3831478   6.637   6.432   0.249  1.7179  0.1774  0.3697
  121MOL    H3931479   6.546   6.514   0.013  1.3887  1.3624 -0.0026
  121MOL    H4031480   6.460   6.665   0.018  3.1012 -0.6451 -0.6698
  121MOL    C4131481   6.357   6.478   0.103 -0.6630 -0.0659  0.4436
  121MOL    C4231482   6.295   6.409   7.869 -0.1491 -0.6004  0.2101
  121MOL    C4331483   6.188   6.326   7.874 -0.2062  0.4398 -0.4711
  121MOL    C4431484   6.120   6.267   7.751 -0.2742  0.4822  0.4883
  121MOL    C4531485   6.120   6.292   0.129 -0.2034  0.7933  0.2577
  121MOL    H4631486   6.278   6.530   0.156  0.9023 -0.1321  2.9490
  121MOL    H4731487   6.389   6.409   0.182  0.1226 -1.2295 -0.8735
  121MOL    H4831488   6.334   6.428   7.771 -2.7188 -1.0564 -0.9472
  121MOL    H4931489   6.093   6.162   7.763  0.3915 -0.1628 -3.1398
  121MOL    H5031490   6.188   6.276   7.667 -0.7284  1.0627  0.1757
  121MOL    H5131491   6.029   6.325   7.737  1.6976  3.4317 -0.5255
  121MOL    H5231492   6.189   6.300   0.212  2.6628  0.8784 -2.0371
  121MOL    H5331493   6.101   6.185   0.126 -1.5201  1.0462 -1.1649
  121MOL    C5431494   5.987   6.359   0.157  0.7748  0.4605  0.3243
  121MOL    C5531495   5.918   6.278   0.268  0.0625 -0.2322 -0.4772
  121MOL    C5631496   5.930   6.285   0.404  0.3115  0.2447  0.8265
  121MOL    C5731497   5.850   6.189   0.499  0.2587  0.1778  0.4231
  121MOL    C5831498   6.012   6.397   0.474 -0.4981  0.1001  0.7374
  121MOL    H5931499   5.918   6.354   0.072  0.4134  0.9741  0.5881
  121MOL    H6031500   6.001   6.464   0.179 -4.3859  1.1953  0.8378
  121MOL    H6131501   5.860   6.195   0.230  0.8909 -0.7201 -0.6984
  121MOL    H6231502   5.778   6.241   0.562 -0.3075  0.3173 -0.3433
  121MOL    H6331503   5.910   6.140   0.576 -0.2343  1.1988  1.4783
  121MOL    H6431504   5.801   6.117   0.433  0.9171  0.9974 -0.9609
  121MOL    H6531505   5.955   6.481   0.511  0.0623 -0.6602  3.4084
  121MOL    H6631506   6.074   6.438   0.394 -1.8234  1.5683  0.4282
  121MOL    C6731507   6.110   6.341   0.591 -0.3009 -0.6234 -0.0291
  121MOL    C6831508   6.201   6.456   0.626  0.7593 -0.4849 -0.3868
  121MOL    C6931509   6.336   6.477   0.611  0.2508 -1.8405 -0.0355
  121MOL    C7031510   6.409   6.604   0.661 -0.4623 -0.0142 -0.0934
  121MOL    C7131511   6.426   6.379   0.542  0.0855  0.4581 -0.6935
  121MOL    H7231512   6.156   6.249   0.556  1.9234  1.2839 -2.3032
  121MOL    H7331513   6.050   6.306   0.675 -1.5544 -1.8583 -1.4190
  121MOL    H7431514   6.148   6.537   0.674 -0.4294 -1.1931 -0.4869
  121MOL    H7531515   6.497   6.581   0.722 -0.5266  1.6568  0.6467
  121MOL    H7631516   6.358   6.671   0.730  1.6736  0.6422  0.9084
  121MOL    H7731517   6.446   6.657   0.574  1.8464 -2.0569 -0.4102
  121MOL    H7831518   6.519   6.427   0.512  0.6774  0.3566  0.9171
  121MOL    H7931519   6.382   6.334   0.453 -2.0520  2.1642 -0.5324
  121MOL    C8031520   6.486   6.268   0.631  0.3196 -0.1720 -0.2145
  121MOL    C8131521   6.401   6.142   0.650 -0.1423 -0.3183 -0.0405
  121MOL    C8231522   6.388   6.055   0.755  0.4615 -0.3487 -0.0528
  121MOL    C8331523   6.469   6.061   0.879  0.1058  0.0067  0.1054
  121MOL    C8431524   6.292   5.940   0.745 -0.3945  0.3207 -0.5774
  121MOL    H8531525   6.517   6.318   0.723 -0.7208  2.7735 -1.4069
  121MOL    H8631526   6.576   6.238   0.578  0.2987 -0.5479 -0.0395
  121MOL    H8731527   6.333   6.119   0.570  1.7982 -0.4049 -1.6904
  121MOL    H8831528   6.543   6.140   0.878  0.9793 -0.7924  0.7587
  121MOL    H8931529   6.519   5.968   0.905 -1.0811 -0.7118 -0.1072
  121MOL    H9031530   6.405   6.083   0.965  0.2257 -0.6378  0.3635
  121MOL    H9131531   6.311   5.871   0.827 -1.8728  1.5811  0.8850
  121MOL    H9231532   6.308   5.884   0.653  4.3208 -1.2880  1.0708
  121MOL    C9331533   6.148   5.984   0.770  0.1160 -0.1843 -0.2338
  121MOL    C9431534   6.047   5.871   0.788  0.2029  0.2130  0.2133
  121MOL    C9531535   5.933   5.867   0.866 -0.1000 -0.5142  0.7230
  121MOL    C9631536   5.856   5.740   0.870 -0.0928 -0.0399 -0.0644
  121MOL    C9731537   5.873   5.984   0.949 -0.0680  0.1189 -0.3440
  121MOL    H9831538   6.122   6.063   0.699  2.4293  1.3499  0.5641
  121MOL    H9931539   6.149   6.044   0.862  2.9252 -0.7823  0.1675
  121MOL   H10031540   6.067   5.778   0.737 -0.5061 -1.5615  3.0407
  121MOL   H10131541   5.880   5.686   0.962  2.2754  0.2337 -0.5059
  121MOL   H10231542   5.748   5.760   0.868 -0.2719 -1.0138 -0.6008
  121MOL   H10331543   5.878   5.678   0.784  0.4450  0.4744 -0.3018
  121MOL   H10431544   5.958   6.046   0.976  0.2508 -0.1139 -0.8214
  121MOL   H10531545   5.825   5.946   1.039  2.5245  0.5609  1.2526
  121MOL   C10631546   5.768   6.075   0.878  0.1586  0.4000  0.7174
  121MOL   C10731547   5.745   6.212   0.937 -0.6245  0.9735 -0.3392
  121MOL   C10831548   5.649   6.296   0.903  0.5331  0.0172  0.3321
  121MOL   C10931549   5.541   6.264   0.800 -0.1290 -0.2047 -0.0795
  121MOL   C11031550   5.649   6.437   0.953 -0.2723  0.4887 -0.1349
  121MOL   H11131551   5.675   6.018   0.880  0.8351 -0.7870 -0.5885
  121MOL   H11231552   5.799   6.088   0.774  0.7372 -1.1852  0.6796
  121MOL   H11331553   5.830   6.259   0.985 -0.6985  1.5974 -0.8108
  121MOL   H11431554   5.519   6.362   0.756  1.6662  0.0295 -0.4651
  121MOL   H11531555   5.567   6.187   0.727  0.2689  1.1716 -1.4122
  121MOL   H11631556   5.444   6.237   0.843 -1.4093  1.2716 -1.9537
  121MOL   H11731557   5.690   6.443   1.053 -1.6885  0.0712  0.4829
  121MOL   H11831558   5.545   6.463   0.973 -0.1060  0.8962  0.1950
  121MOL   C11931559   5.713   6.542   0.852  0.1620 -0.1705 -0.4029
  121MOL   C12031560   5.674   6.685   0.886  0.4591  0.1551  0.7121
  121MOL   C12131561   5.665   6.789   0.799  0.4369  0.1254 -0.5073
  121MOL   C12231562   5.634   6.927   0.856 -0.1168  0.3063 -0.2405
  121MOL   C12331563   5.709   6.781   0.653  0.3618  0.4442 -0.9543
  121MOL   H12431564   5.682   6.530   0.749  2.2836 -0.1161 -1.0763
  121MOL   H12531565   5.820   6.521   0.846  0.6303  2.0940 -0.7573
  121MOL   H12631566   5.658   6.716   0.988  0.8428  1.1467  0.4751
  121MOL   H12731567   5.573   6.976   0.780 -0.6181  0.6703  0.3870
  121MOL   H12831568   5.723   6.981   0.889 -0.5166  0.5146  0.4895
  121MOL   H12931569   5.565   6.920   0.940  1.5906 -0.0485  1.1694
  121MOL   H13031570   5.762   6.687   0.638 -0.7344 -0.5476  1.1779
  121MOL   H13131571   5.768   6.864   0.613  0.9709  0.5802  0.2039
  121MOL   C13231572   5.581   6.783   0.568 -0.6466 -0.0959 -0.1186
  121MOL   C13331573   5.616   6.767   0.423  0.1232  0.0089 -0.6964
  121MOL   C13431574   5.615   6.648   0.361 -0.0299 -0.1644 -1.1069
  121MOL   C13531575   5.649   6.634   0.215 -0.4509 -0.2412 -0.3691
  121MOL   C13631576   5.583   6.515   0.424 -0.7980  0.0244  0.4041
  121MOL   H13731577   5.527   6.878   0.575  0.9697  0.8440 -0.1226
  121MOL   H13831578   5.520   6.706   0.615  1.6394 -0.2232  2.7891
  121MOL   H13931579   5.642   6.855   0.366 -0.5496  1.9800  1.9308
  121MOL   H14031580   5.722   6.556   0.199  1.6523  1.4838  0.5901
  121MOL   H14131581   5.679   6.721   0.157  0.8191 -0.8421 -0.6207
  121MOL   H14231582   5.560   6.610   0.157  1.4240 -1.0523 -2.9741
  121MOL   H14331583   5.577   6.520   0.532  2.8721 -0.4578  0.6794
  121MOL   H14431584   5.672   6.456   0.400 -1.6535 -0.3328 -2.0209
  121MOL   C14531585   5.455   6.449   0.375  0.2916 -0.0794 -0.1452
  121MOL   C14631586   5.435   6.313   0.438  0.0376 -0.8067 -0.5538
  121MOL   C14731587   5.384   6.207   0.377  0.3714  0.0654  0.0025
  121MOL   C14831588   5.351   6.074   0.452 -0.5325 -0.1967  0.1859
  121MOL   C14931589   5.340   6.207   0.229  0.2078  0.9374  0.0053
  121MOL   H15031590   5.456   6.451   0.266 -2.5147 -1.3170 -0.2496
  121MOL   H15131591   5.368   6.514   0.391 -1.1467 -1.1301 -3.2590
  121MOL   H15231592   5.449   6.307   0.545  0.0074 -0.6907 -0.5431
  121MOL   H15331593   5.396   6.066   0.551  0.8400 -1.0890 -0.4934
  121MOL   H15431594   5.379   5.994   0.383 -1.5269  0.0005 -0.4603
  121MOL   H15531595   5.243   6.066   0.463 -0.3486  0.1923  2.3682
  121MOL   H15631596   5.371   6.111   0.188  1.8607  0.9256  1.2456
  121MOL   H15731597   5.393   6.281   0.169 -1.1578  2.3039  0.4626
  121MOL   C15831598   5.185   6.226   0.222 -0.6797 -0.4048 -0.0910
  121MOL   C15931599   5.107   6.163   0.105 -0.1068  0.5649  0.5680
  121MOL   C16031600   5.072   6.220   7.870 -0.6747 -0.0196 -0.2695
  121MOL   C16131601   5.103   6.367   7.840 -0.1678 -0.2310  0.3971
  121MOL   C16231602   4.963   6.160   7.779 -0.1052 -0.6152 -0.1832
  121MOL   H16331603   5.148   6.326   0.244  0.6297 -0.4344  2.4467
  121MOL   H16431604   5.147   6.187   0.316 -0.2279 -3.9240 -1.3139
  121MOL   H16531605   5.070   6.065   0.132 -1.3140  1.1930  1.2363
  121MOL   H16631606   5.018   6.435   7.850  0.3034  0.6322 -1.1033
  121MOL   H16731607   5.135   6.391   7.738  2.3471 -2.3784  0.6298
  121MOL   H16831608   5.164   6.413   0.039  1.2028  2.1046 -1.9499
  121MOL   H16931609   4.875   6.224   7.774 -0.1811 -0.6157  1.1086
  121MOL   H17031610   4.924   6.069   7.823 -0.7177  0.7612  2.1931
  121MOL   C17131611   5.013   6.126   7.642  0.5163  0.0216 -0.5757
  121MOL   C17231612   4.933   5.997   7.603 -0.0958 -0.6060  0.8273
  121MOL   C17331613   4.856   5.979   7.493 -0.7406  0.7376 -0.1517
  121MOL   C17431614   4.828   6.079   7.382  0.6314  0.2502  0.3061
  121MOL   C17531615   4.776   5.852   7.475 -0.3050  0.0053  1.0789
  121MOL   H17631616   5.118   6.101   7.652  0.5483 -1.1526 -3.2926
  121MOL   H17731617   5.003   6.209   7.571 -0.0420  1.3722  1.0535
  121MOL   H17831618   4.936   5.917   7.675  0.4445 -2.8928 -1.6590
  121MOL   H17931619   4.877   6.174   7.405 -0.6418  0.4389  2.3294
  121MOL   H18031620   4.721   6.086   7.367  0.7050 -2.1681 -1.5990
  121MOL   H18131621   4.856   6.037   7.286 -2.1998  2.1750 -1.4280
  121MOL   H18231622   4.670   5.876   7.473 -0.1047  0.9498  1.4960
  121MOL   H18331623   4.773   5.804   7.572 -1.1839 -0.4054  0.8467
  121MOL   C18431624   4.814   5.756   7.362 -0.5545  0.1504  0.6048
  121MOL   C18531625   4.746   5.622   7.374  0.8018  0.1230  0.3413
  121MOL   C18631626   4.798   5.509   7.429  0.7125 -0.2623  0.4129
  121MOL   C18731627   4.709   5.385   7.438 -0.3079  0.6411 -0.5117
  121MOL   C18831628   4.932   5.501   7.500  0.0555  0.6262  0.5273
  121MOL   H18931629   4.921   5.737   7.365 -0.6511 -0.5434 -0.0994
  121MOL   H19031630   4.800   5.802   7.263 -3.1266 -0.3030  0.7154
  121MOL   H19131631   4.646   5.631   7.334  0.8878 -1.5782 -0.3017
  121MOL   H19231632   4.745   5.282   7.431  0.8250  0.9667  0.4811
  121MOL   H19331633   4.624   5.391   7.370  0.2403  1.1273 -1.1713
  121MOL   H19431634   4.668   5.393   7.538 -0.3761 -0.3047 -0.4595
  121MOL   H19531635   4.991   5.593   7.506  0.2264  0.4964  0.8355
  121MOL   H19631636   4.999   5.443   7.436 -0.5621 -0.1672  0.5915
  121MOL   C19731637   4.927   5.443   7.640  0.3670 -0.0874  0.5292
  121MOL   C19831638   5.062   5.429   7.702  0.5829  0.3687  0.9310
  121MOL   C19931639   5.092   5.454   7.827 -0.4663  0.3931  0.1616
  121MOL   C20031640   5.233   5.428   7.867 -0.1287 -0.0451 -0.1615
  121MOL   C20131641   5.003   5.508   0.054 -0.1925  0.3144 -0.8545
  121MOL   H20231642   4.872   5.349   7.634 -2.6394  1.7642 -2.1426
  121MOL   H20331643   4.861   5.503   7.702  1.1279  1.2830  0.0296
  121MOL   H20431644   5.130   5.374   7.638 -1.6588 -0.9856 -0.3497
  121MOL   H20531645   5.267   5.498   0.065  0.7929  0.2949 -0.8663
  121MOL   H20631646   5.281   5.456   7.773 -1.3418  2.2999 -0.1372
  121MOL   H20731647   5.252   5.327   0.023 -1.3082  0.4207  1.9055
  121MOL   H20831648   5.017   5.453   0.147  2.4052  0.3648 -1.1875
  121MOL   H20931649   4.901   5.493   0.018 -0.4416  0.3984 -0.1997
  121MOL   C21031650   5.030   5.657   0.086  0.3785  0.0493 -0.4181
  121MOL   C21131651   4.934   5.716   0.192  1.0279 -0.1242 -0.3368
  121MOL   C21231652   4.951   5.726   0.320 -0.3330 -0.4283  0.1820
  121MOL   C21331653   4.839   5.774   0.410  0.2216 -0.4204  0.3181
  121MOL   C21431654   5.067   5.655   0.393  0.7064 -0.3253  0.5605
  121MOL   H21531655   5.020   5.726   0.002 -0.8123  1.1011  0.5638
  121MOL   H21631656   5.129   5.654   0.131 -0.2828 -3.8695  0.9826
  121MOL   H21731657   4.840   5.759   0.158 -0.0999 -2.0507  0.2489
  121MOL   H21831658   4.876   5.779   0.513  0.5039  0.8070  0.1648
  121MOL   H21931659   4.761   5.698   0.406 -1.0665  0.9021 -0.0258
  121MOL   H22031660   4.785   5.862   0.377 -1.1432 -1.0432  0.8639
  121MOL   H22131661   5.109   5.587   0.320 -0.9107  0.2119 -0.8985
  121MOL   H22231662   5.024   5.595   0.473 -2.1865  0.7082 -0.1619
  121MOL   C22331663   5.174   5.751   0.444  0.5054 -0.5364  0.5260
  121MOL   C22431664   5.290   5.678   0.503  0.2590 -0.4033 -0.7547
  121MOL   C22531665   5.328   5.688   0.630 -0.6548  0.3561  0.3324
  121MOL   C22631666   5.436   5.589   0.673 -0.5076  0.5370  0.1826
  121MOL   C22731667   5.258   5.773   0.732 -0.5985  0.3508  0.3500
  121MOL   H22831668   5.130   5.838   0.493 -0.5644  0.2100 -1.6585
  121MOL   H22931669   5.204   5.788   0.346 -0.6432 -0.2715  0.2662
  121MOL   H23031670   5.342   5.612   0.435  1.3328  0.6461 -0.9462
  121MOL   H23131671   5.388   5.531   0.752  2.0036  1.7151  2.6525
  121MOL   H23231672   5.518   5.638   0.727  0.1633  0.4207 -0.7193
  121MOL   H23331673   5.474   5.532   0.588  0.2210  1.8329 -0.3812
  121MOL   H23431674   5.200   5.702   0.791 -1.4065 -0.2074 -1.0884
  121MOL   H23531675   5.193   5.847   0.685 -0.3569 -1.4681 -2.9767
  121MOL   C23631676   5.366   5.846   0.807  0.1691 -0.4162  0.2153
  121MOL   C23731677   5.310   5.968   0.881 -0.6466  0.3500  0.2438
  121MOL   C23831678   5.273   5.967   1.011 -0.4845  0.3450  0.0281
  121MOL   C23931679   5.200   6.086   1.067  0.4589 -0.4704  0.8858
  121MOL   C24031680   5.288   5.846   1.107  0.4334  0.3115  0.3542
  121MOL   H24131681   5.440   5.884   0.736  1.3306 -2.6690  0.2091
  121MOL   H24231682   5.421   5.782   0.875 -0.1448 -1.7376 -0.7716
  121MOL   H24331683   5.295   6.055   0.819 -0.5078  0.4448  0.3420
  121MOL   H24431684   5.112   6.055   1.123  0.4066 -1.6625  0.1481
  121MOL   H24531685   5.152   6.151   0.994  1.1528 -1.1148 -0.1461
  121MOL   H24631686   5.268   6.148   1.126 -0.2676  1.4748 -0.2474
  121MOL   H24731687   5.290   5.757   1.045  1.2104 -0.4729  1.4976
  121MOL   H24831688   5.211   5.836   1.184 -0.0332 -1.8775 -0.3768
  121MOL   C24931689   5.419   5.845   1.187  0.8585 -0.9915 -0.6114
  121MOL   C25031690   5.436   5.716   1.271 -0.5401 -0.1662 -0.1588
  121MOL   C25131691   5.523   5.611   1.250 -0.1665 -0.2756  0.3107
  121MOL   C25231692   5.536   5.493   1.346 -0.3229  0.5177  0.3352
  121MOL   C25331693   5.613   5.602   1.131  0.2086  0.1314 -0.4082
  121MOL   H25431694   5.409   5.929   1.256  3.2780 -2.6329  1.8417
  121MOL   H25531695   5.494   5.867   1.112 -0.2914  0.6649 -1.3062
  121MOL   H25631696   5.370   5.715   1.355 -0.7284 -1.6257 -0.2957
  121MOL   H25731697   5.505   5.507   1.450  0.1375 -1.1046  0.7163
  121MOL   H25831698   5.644   5.476   1.355 -0.6350 -1.4985  0.6631
  121MOL   H25931699   5.517   5.395   1.302  2.0199  0.0427  0.3189
  121MOL   H26031700   5.611   5.500   1.091  1.6121 -1.1193  2.6147
  121MOL   H26131701   5.715   5.609   1.167  0.0883 -0.8889  0.1686
  121MOL   H26231702   5.593   5.668   1.047 -0.2007  0.2809 -0.1932
  122MOL     C131703   6.718   5.725   7.493 -0.1172 -0.6819 -0.3048
  122MOL     C231704   6.797   5.763   7.366 -0.0931  0.4724  0.0214
  122MOL     C331705   6.782   5.705   7.251  0.4356  0.3737  0.0260
  122MOL     C431706   6.857   5.745   7.127 -0.2504 -0.0553 -0.5195
  122MOL     C531707   6.689   5.587   7.231  0.2275  0.1636 -0.4079
  122MOL     H631708   6.763   5.783   7.574  0.5618 -2.4137  0.5823
  122MOL     H731709   6.615   5.762   7.488  0.0534 -0.3473 -1.6563
  122MOL     H831710   6.863   5.848   7.376  1.1293 -0.1853 -2.2389
  122MOL     H931711   6.965   5.743   7.143 -0.1470  0.8486 -1.0391
  122MOL    H1031712   6.843   5.850   7.100  0.8584  1.1326  3.2318
  122MOL    H1131713   6.824   5.687   7.040 -0.5168  1.4608 -1.4434
  122MOL    H1231714   6.654   5.537   7.321 -0.0612  0.1950 -0.5019
  122MOL    H1331715   6.744   5.503   7.190  3.1010  2.4342 -1.4016
  122MOL    H1431716   6.711   5.618   7.513  2.3698 -0.4088  2.3128
  122MOL    C1531717   6.575   5.629   7.138  0.0644 -0.7562  0.3001
  122MOL    C1631718   6.446   5.543   7.157 -0.9291 -0.4229  0.2718
  122MOL    C1731719   6.384   5.464   7.069  0.6746 -0.2092 -0.0909
  122MOL    C1831720   6.259   5.388   7.107 -0.2051  0.2767 -0.3460
  122MOL    C1931721   6.423   5.451   6.926 -0.5160 -0.0751 -0.0020
  122MOL    H2031722   6.609   5.631   7.035 -2.3743 -0.1211 -0.5138
  122MOL    H2131723   6.549   5.733   7.155 -1.4022 -1.0341 -0.1590
  122MOL    H2231724   6.409   5.545   7.259 -1.2947 -0.4825  0.1414
  122MOL    H2331725   6.223   5.401   7.209 -0.3508 -0.2060 -0.3317
  122MOL    H2431726   6.258   5.283   7.078 -1.1332  0.3242 -0.5224
  122MOL    H2531727   6.173   5.441   7.065  2.1520  4.1999 -0.3719
  122MOL    H2631728   6.458   5.541   6.876  1.8973 -1.4582 -0.9260
  122MOL    H2731729   6.334   5.416   6.874  0.0404 -0.3252 -0.8024
  122MOL    C2831730   6.536   5.347   6.896  0.3463  0.1281 -0.2318
  122MOL    C2931731   6.562   5.344   6.745 -0.0400  0.0310 -0.2826
  122MOL    C3031732   6.564   5.237   6.664  0.0227 -0.4830 -0.1488
  122MOL    C3131733   6.611   5.244   6.517 -0.9965 -0.5769  0.0210
  122MOL    C3231734   6.511   5.096   6.700 -0.1986 -0.5258  0.3530
  122MOL    H3331735   6.505   5.250   6.934 -1.1823  0.7236  0.1131
  122MOL    H3431736   6.628   5.368   6.950  0.4815  0.3679 -0.5576
  122MOL    H3531737   6.613   5.430   6.704 -0.7836  1.1738  1.1244
  122MOL    H3631738   6.537   5.196   6.453 -0.4465 -0.8374 -0.4238
  122MOL    H3731739   6.698   5.179   6.510 -0.7553 -0.3342  0.7267
  122MOL    H3831740   6.647   5.341   6.483  0.9168 -0.4335  2.2781
  122MOL    H3931741   6.469   5.049   6.610 -0.0193 -0.7944  0.4081
  122MOL    H4031742   6.433   5.103   6.776  0.5125  2.3100  0.8553
  122MOL    C4131743   6.635   5.018   6.744  0.5440 -0.3276  0.1703
  122MOL    C4231744   6.591   4.886   6.807  0.1150  0.3679  0.0973
  122MOL    C4331745   6.576   4.771   6.735 -0.0144  0.4363  0.0453
  122MOL    C4431746   6.542   4.642   6.809 -0.1912 -0.5786 -0.1806
  122MOL    C4531747   6.602   4.758   6.591 -0.4819 -0.2298  0.6022
  122MOL    H4631748   6.689   5.069   6.824  1.1630 -1.1071  0.2666
  122MOL    H4731749   6.713   4.997   6.672  2.2899 -2.1195  2.4851
  122MOL    H4831750   6.548   4.892   6.906  0.8479 -2.7485  0.6741
  122MOL    H4931751   6.625   4.572   6.797 -0.3856 -1.0586  1.2622
  122MOL    H5031752   6.451   4.608   6.758  0.0764 -1.0769 -0.3345
  122MOL    H5131753   6.519   4.655   6.914 -0.4902  0.4644 -0.3674
  122MOL    H5231754   6.664   4.673   6.565  0.4160  0.0228  1.8495
  122MOL    H5331755   6.643   4.850   6.549 -0.3008 -2.2898 -3.9965
  122MOL    C5431756   6.481   4.759   6.502  0.0614 -0.3305  0.5581
  122MOL    C5531757   6.400   4.634   6.503  0.5181  0.5414 -0.6835
  122MOL    C5631758   6.268   4.604   6.519 -0.0099 -1.1924 -0.0365
  122MOL    C5731759   6.216   4.463   6.529 -0.1423  0.6571 -0.2823
  122MOL    C5831760   6.160   4.715   6.505  0.3577  0.6056 -0.1841
  122MOL    H5931761   6.531   4.772   6.406  0.0973  0.4766  0.6834
  122MOL    H6031762   6.427   4.853   6.512 -0.2417 -0.4110 -0.2993
  122MOL    H6131763   6.461   4.545   6.500  1.5015  1.1546  0.6533
  122MOL    H6231764   6.296   4.397   6.563  0.6273  1.6082 -0.2169
  122MOL    H6331765   6.176   4.417   6.438  2.2464 -0.5546 -0.7737
  122MOL    H6431766   6.130   4.460   6.595 -0.0558  3.9886  0.0910
  122MOL    H6531767   6.206   4.811   6.526 -0.0766  0.7097  0.2812
  122MOL    H6631768   6.089   4.697   6.586  0.7354 -0.0617  0.0013
  122MOL    C6731769   6.100   4.715   6.366  0.6231  0.4891 -0.1152
  122MOL    C6831770   5.985   4.822   6.351 -0.2038  0.0296  0.7288
  122MOL    C6931771   5.851   4.806   6.352  0.6639  0.1169  0.8583
  122MOL    C7031772   5.753   4.922   6.329  0.9037  0.8862  0.4378
  122MOL    C7131773   5.786   4.669   6.353  0.5217 -0.1396  0.0224
  122MOL    H7231774   6.068   4.617   6.331 -1.4697  0.1531  2.6121
  122MOL    H7331775   6.165   4.752   6.287 -1.0054  4.3140  0.2262
  122MOL    H7431776   6.031   4.919   6.342 -0.6017  0.0107 -2.1817
  122MOL    H7531777   5.791   5.022   6.304  0.2661  1.2991  1.1064
  122MOL    H7631778   5.687   4.923   6.415  2.1493  1.6161  1.4112
  122MOL    H7731779   5.693   4.890   6.244  2.6645  0.2055 -0.5820
  122MOL    H7831780   5.703   4.687   6.421  0.9528  2.0050  0.0161
  122MOL    H7931781   5.844   4.592   6.405  0.4950  0.2872  0.6957
  122MOL    C8031782   5.735   4.619   6.214 -0.0171 -0.0158 -0.0535
  122MOL    C8131783   5.682   4.477   6.217 -0.2274 -0.9447  0.1652
  122MOL    C8231784   5.551   4.441   6.204  0.0685 -0.0230  0.6865
  122MOL    C8331785   5.442   4.549   6.198  0.8504 -0.0982  0.0688
  122MOL    C8431786   5.500   4.295   6.205 -0.0539  0.3447  0.6072
  122MOL    H8531787   5.801   4.638   6.129  1.6561 -3.2793  0.4309
  122MOL    H8631788   5.655   4.684   6.178  0.8591  1.3991  0.4946
  122MOL    H8731789   5.758   4.401   6.233  1.3645  0.1099 -2.1990
  122MOL    H8831790   5.348   4.505   6.231 -0.0828  1.5423 -0.3596
  122MOL    H8931791   5.435   4.587   6.096 -5.6204  0.1037  0.4314
  122MOL    H9031792   5.463   4.625   6.273  4.3449 -3.4066  2.7082
  122MOL    H9131793   5.457   4.270   6.302 -2.1384  0.0646 -0.3631
  122MOL    H9231794   5.590   4.237   6.184 -0.3820  0.1349 -0.2276
  122MOL    C9331795   5.398   4.261   6.097  0.3343  1.1849  0.0979
  122MOL    C9431796   5.388   4.111   6.076 -0.1247  0.0443 -0.3560
  122MOL    C9531797   5.269   4.039   6.088 -0.2287  0.8987  0.7640
  122MOL    C9631798   5.278   3.886   6.063 -0.1157  0.1683 -0.6737
  122MOL    C9731799   5.127   4.097   6.111  0.1126 -0.1468  0.2065
  122MOL    H9831800   5.413   4.312   6.001 -0.8156  0.2192 -0.6127
  122MOL    H9931801   5.300   4.305   6.118 -0.1849 -0.2531  0.7451
  122MOL   H10031802   5.480   4.065   6.044  0.7828  1.2077  0.5649
  122MOL   H10131803   5.185   3.869   6.008 -2.3225  1.0246  2.6687
  122MOL   H10231804   5.364   3.856   6.003  2.0404 -0.6163  2.7001
  122MOL   H10331805   5.280   3.836   6.160 -1.4144  1.4373  0.0400
  122MOL   H10431806   5.054   4.024   6.076  0.5469  0.2373 -1.5245
  122MOL   H10531807   5.116   4.193   6.061 -0.6243 -1.5723 -2.4903
  122MOL   C10631808   5.088   4.122   6.259  0.2318 -0.2189  0.1603
  122MOL   C10731809   5.107   3.994   6.338  0.3877  0.2430  0.6011
  122MOL   C10831810   5.013   3.940   6.416 -0.2485 -0.3291 -0.9678
  122MOL   C10931811   4.878   4.003   6.447 -0.2583 -0.5343  0.3998
  122MOL   C11031812   5.045   3.821   6.501  0.0813 -0.6191 -0.1245
  122MOL   H11131813   4.991   4.171   6.265  1.0325  1.6930 -1.6135
  122MOL   H11231814   5.161   4.192   6.301 -2.1069  2.5815 -0.2749
  122MOL   H11331815   5.204   3.948   6.326 -0.6868 -2.0537  0.6240
  122MOL   H11431816   4.826   3.939   6.518  0.0872  1.1395  2.1937
  122MOL   H11531817   4.895   4.108   6.469  0.2616  0.0278 -2.3843
  122MOL   H11631818   4.824   4.000   6.352 -0.1718  0.6084  0.3015
  122MOL   H11731819   5.119   3.758   6.450  0.4046 -1.3945  1.2813
  122MOL   H11831820   4.961   3.754   6.517 -0.7814  0.3676 -0.4615
  122MOL   C11931821   5.117   3.875   6.628  0.5404  0.0990 -0.1486
  122MOL   C12031822   5.164   3.761   6.716  0.0450 -0.2549 -0.4290
  122MOL   C12131823   5.241   3.773   6.826  0.1950  0.3730  0.5180
  122MOL   C12231824   5.275   3.650   6.912  0.0406 -0.4622  0.1182
  122MOL   C12331825   5.303   3.900   6.863 -0.5486  0.3035  0.2714
  122MOL   H12431826   5.045   3.928   6.691 -0.9978 -1.6949 -0.3627
  122MOL   H12531827   5.185   3.958   6.607  0.3511 -0.2563 -2.2908
  122MOL   H12631828   5.123   3.663   6.699 -2.0587  0.7751 -1.4328
  122MOL   H12731829   5.378   3.619   6.894  0.0917  1.2106 -2.7539
  122MOL   H12831830   5.208   3.570   6.881 -0.4262  0.7029 -1.9728
  122MOL   H12931831   5.259   3.669   7.018  1.4088  0.7186  0.1282
  122MOL   H13031832   5.290   3.904   6.971 -0.2936 -0.3858  0.3289
  122MOL   H13131833   5.247   3.990   6.836  0.7352  0.3954 -2.2746
  122MOL   C13231834   5.455   3.909   6.827 -0.0564 -0.8224  0.7794
  122MOL   C13331835   5.466   3.939   6.677 -0.1760 -0.2349  0.1928
  122MOL   C13431836   5.491   3.855   6.576 -0.3111  0.3216 -0.3061
  122MOL   C13531837   5.503   3.895   6.431 -0.0063  0.3832 -0.1850
  122MOL   C13631838   5.534   3.715   6.597 -0.0888  0.0699  0.0803
  122MOL   H13731839   5.515   3.828   6.868 -0.6683  0.1893  3.8458
  122MOL   H13831840   5.502   3.987   6.887 -0.3802  0.8796 -1.1488
  122MOL   H13931841   5.447   4.043   6.656  3.3424  0.7638  1.5823
  122MOL   H14031842   5.605   3.916   6.401  0.0391  1.0271  0.4061
  122MOL   H14131843   5.461   3.996   6.429  0.7547  0.6961 -0.5533
  122MOL   H14231844   5.453   3.821   6.369 -4.0513 -0.3569  3.6470
  122MOL   H14331845   5.558   3.692   6.701 -0.0423 -0.2517 -0.0015
  122MOL   H14431846   5.629   3.707   6.545  0.7900 -0.8597  1.7599
  122MOL   C14531847   5.429   3.608   6.551 -0.2354 -0.3231 -0.1338
  122MOL   C14631848   5.498   3.477   6.514 -0.5041 -0.0500  0.6214
  122MOL   C14731849   5.538   3.436   6.390  0.2713 -0.5275 -0.5906
  122MOL   C14831850   5.598   3.296   6.372 -0.5321  0.3363  0.7080
  122MOL   C14931851   5.532   3.528   6.262 -0.6997  0.2309 -0.0535
  122MOL   H15031852   5.369   3.641   6.466  0.0338 -0.4990 -0.3934
  122MOL   H15131853   5.355   3.596   6.630  0.3879  0.7310  0.6171
  122MOL   H15231854   5.501   3.412   6.601 -2.4655 -2.0262 -0.7385
  122MOL   H15331855   5.536   3.234   6.307  1.6437 -1.8406  0.6320
  122MOL   H15431856   5.610   3.256   6.472 -0.4665 -1.4644 -0.0131
  122MOL   H15531857   5.699   3.306   6.330 -1.5924  2.6267 -1.5022
  122MOL   H15631858   5.623   3.509   6.206 -1.0382  0.5918 -0.7337
  122MOL   H15731859   5.503   3.628   6.294 -1.4197 -0.5959  2.0103
  122MOL   C15831860   5.416   3.483   6.170  0.2141  0.5157 -0.2848
  122MOL   C15931861   5.424   3.535   6.030 -0.1148 -1.2138  0.2084
  122MOL   C16031862   5.329   3.551   5.930 -0.2996 -0.1920  0.5220
  122MOL   C16131863   5.177   3.523   5.953 -0.0038  0.7236 -0.1611
  122MOL   C16231864   5.357   3.614   5.793 -0.4043 -0.2977 -0.0177
  122MOL   H16331865   5.321   3.521   6.209 -0.1779  0.2504 -0.9692
  122MOL   H16431866   5.402   3.376   6.156 -2.1703  0.5661  1.3631
  122MOL   H16531867   5.519   3.580   6.009 -0.7471  0.3509  0.6539
  122MOL   H16631868   5.160   3.552   6.056  1.9183  0.4215  0.2617
  122MOL   H16731869   5.153   3.417   5.937  0.9402  0.2149  1.6276
  122MOL   H16831870   5.110   3.572   5.883 -1.2852 -0.8393 -0.0555
  122MOL   H16931871   5.458   3.651   5.775  0.0525 -2.3391 -1.8270
  122MOL   H17031872   5.290   3.696   5.768 -0.3151 -0.0744  0.4736
  122MOL   C17131873   5.326   3.510   5.684 -0.2641 -0.0716  0.7898
  122MOL   C17231874   5.353   3.569   5.550  0.8560 -0.0186  0.5886
  122MOL   C17331875   5.273   3.551   5.441  0.2528 -0.5748 -0.3321
  122MOL   C17431876   5.142   3.471   5.441 -0.2360  0.6419  0.2804
  122MOL   C17531877   5.307   3.597   5.302  0.8435 -0.2602 -0.0147
  122MOL   H17631878   5.223   3.474   5.684 -0.7556  1.2208 -1.6555
  122MOL   H17731879   5.388   3.420   5.688 -0.3529 -0.1458  0.5299
  122MOL   H17831880   5.440   3.631   5.536  0.1601  0.6835 -0.7078
  122MOL   H17931881   5.163   3.364   5.432  1.8881  0.9436  1.2635
  122MOL   H18031882   5.071   3.507   5.367 -0.8143 -0.1723  0.4243
  122MOL   H18131883   5.082   3.488   5.530  0.8555  0.4400  1.0714
  122MOL   H18231884   5.377   3.680   5.310  2.1977 -1.1465 -2.1782
  122MOL   H18331885   5.213   3.638   5.267 -0.4613 -2.9081  0.2860
  122MOL   C18431886   5.359   3.486   5.207  0.3185 -0.7331  0.9688
  122MOL   C18531887   5.346   3.535   5.060 -0.0026  0.1094  0.0737
  122MOL   C18631888   5.447   3.558   4.975  0.6320 -0.6932  0.2952
  122MOL   C18731889   5.436   3.615   4.835 -0.4198  0.2299  0.9191
  122MOL   C18831890   5.585   3.529   5.016 -0.2184 -0.1993 -0.5555
  122MOL   H18931891   5.298   3.396   5.215  2.1981 -2.1388 -0.1296
  122MOL   H19031892   5.454   3.456   5.252 -0.6493 -0.2024  3.4863
  122MOL   H19131893   5.246   3.568   5.036 -0.0406  0.1534  0.2953
  122MOL   H19231894   5.495   3.704   4.858  1.5867 -1.3305  1.9120
  122MOL   H19331895   5.331   3.637   4.813  0.7527  4.4999 -0.7759
  122MOL   H19431896   5.477   3.549   4.759  1.8486  2.1465  0.4238
  122MOL   H19531897   5.630   3.482   4.928 -0.6154  0.0340 -0.8861
  122MOL   H19631898   5.596   3.470   5.107 -1.8405  2.4538  1.4137
  122MOL   C19731899   5.671   3.655   5.041  0.7233 -0.3477  0.7308
  122MOL   C19831900   5.812   3.618   5.072 -0.0616  0.6320 -0.4271
  122MOL   C19931901   5.897   3.700   5.131 -0.0213  0.1026 -0.3911
  122MOL   C20031902   6.046   3.669   5.149  0.8053 -0.5537  0.0674
  122MOL   C20131903   5.856   3.833   5.186 -0.5823  0.0156 -0.1140
  122MOL   H20231904   5.631   3.710   5.126  1.0837  0.8431  0.1410
  122MOL   H20331905   5.667   3.711   4.948 -1.3202 -1.9659 -0.1820
  122MOL   H20431906   5.839   3.519   5.037  0.0572  0.6087 -0.2657
  122MOL   H20531907   6.079   3.747   5.081  1.0113  1.2019  2.1245
  122MOL   H20631908   6.078   3.567   5.129 -0.4479 -1.0340  0.4706
  122MOL   H20731909   6.084   3.701   5.246  0.6890 -0.6729  0.1528
  122MOL   H20831910   5.769   3.876   5.136 -0.3627  1.2533  0.5570
  122MOL   H20931911   5.930   3.911   5.170 -0.5565  0.6236  2.7736
  122MOL   C21031912   5.830   3.821   5.330  0.2560  0.7844  0.0448
  122MOL   C21131913   5.763   3.935   5.393  0.8171 -0.3986  0.1745
  122MOL   C21231914   5.774   3.967   5.526  0.7371 -0.2207 -0.1608
  122MOL   C21331915   5.709   4.092   5.579  0.0028 -0.5334  0.5181
  122MOL   C21431916   5.834   3.876   5.629  0.0930  0.7098  0.3693
  122MOL   H21531917   5.926   3.803   5.378 -0.2440 -1.2439  0.3327
  122MOL   H21631918   5.766   3.735   5.348 -2.8792  3.1877  0.8950
  122MOL   H21731919   5.706   3.991   5.321 -2.4651 -0.4777  2.6220
  122MOL   H21831920   5.680   4.151   5.493 -1.2210  0.4789  1.6109
  122MOL   H21931921   5.773   4.152   5.644  3.1234 -0.1713 -2.7461
  122MOL   H22031922   5.622   4.070   5.641 -0.2034  3.0788  1.5974
  122MOL   H22131923   5.882   3.940   5.703  0.5784 -1.5520  2.0831
  122MOL   H22231924   5.911   3.813   5.586 -0.3726  0.3420  0.0685
  122MOL   C22331925   5.729   3.783   5.695  0.1708 -0.6138 -0.7271
  122MOL   C22431926   5.798   3.679   5.793 -0.3136 -0.1217  0.1624
  122MOL   C22531927   5.789   3.542   5.795  0.6871 -0.1660  0.7119
  122MOL   C22631928   5.874   3.465   5.889 -0.5852 -0.1114 -0.5692
  122MOL   C22731929   5.709   3.464   5.693  0.3932 -1.1863 -0.1670
  122MOL   H22831930   5.672   3.727   5.622  0.0585 -0.6315 -0.6251
  122MOL   H22931931   5.659   3.840   5.756 -0.3090 -0.1975 -1.6687
  122MOL   H23031932   5.867   3.732   5.857 -0.0727 -1.5506  1.1009
  122MOL   H23131933   5.881   3.522   5.982 -0.4117 -0.9647 -0.0521
  122MOL   H23231934   5.970   3.455   5.839 -0.2502  0.0423  0.0311
  122MOL   H23331935   5.846   3.361   5.905  3.9232 -1.3558  0.1657
  122MOL   H23431936   5.616   3.509   5.659  0.8539  0.2666  0.4948
  122MOL   H23531937   5.676   3.372   5.741 -2.1164  1.3928  3.2582
  122MOL   C23631938   5.797   3.440   5.565  0.1255  0.1833  0.4126
  122MOL   C23731939   5.728   3.358   5.458 -0.4676  1.2547  0.0825
  122MOL   C23831940   5.781   3.268   5.372 -0.4756 -0.2191  0.1642
  122MOL   C23931941   5.699   3.202   5.263  0.6241  0.0951 -0.6911
  122MOL   C24031942   5.925   3.233   5.374 -0.1195  0.0994 -0.1040
  122MOL   H24131943   5.886   3.392   5.604  0.8905  0.3273 -1.1254
  122MOL   H24231944   5.819   3.540   5.527  5.4234 -1.5585 -1.5568
  122MOL   H24331945   5.623   3.381   5.444 -0.7461 -0.0883 -0.1693
  122MOL   H24431946   5.592   3.218   5.276  0.2234  0.4457 -3.9665
  122MOL   H24531947   5.698   3.093   5.258 -3.8512 -0.0938  1.3418
  122MOL   H24631948   5.741   3.235   5.169 -0.2683  0.3648 -1.0052
  122MOL   H24731949   5.943   3.127   5.390  0.4087  0.3500  1.0438
  122MOL   H24831950   5.979   3.278   5.457  0.4079  0.2536 -0.5227
  122MOL   C24931951   5.993   3.271   5.239  0.0632  0.0898  0.2103
  122MOL   C25031952   6.130   3.209   5.213  0.0253 -0.0737  0.3041
  122MOL   C25131953   6.196   3.213   5.096  0.2405  0.5510  0.6028
  122MOL   C25231954   6.330   3.144   5.084  0.5341 -0.5637  0.0218
  122MOL   C25331955   6.145   3.269   4.966 -0.0792  0.0532 -0.0781
  122MOL   H25431956   6.017   3.377   5.250  0.8659  0.0084 -0.6566
  122MOL   H25531957   5.938   3.266   5.145 -0.1028 -2.7177  0.4176
  122MOL   H25631958   6.177   3.162   5.298  1.6331  0.3399 -0.3252
  122MOL   H25731959   6.351   3.093   5.178 -2.6785 -0.9324  0.5940
  122MOL   H25831960   6.407   3.211   5.045 -1.3411  2.0648  0.7027
  122MOL   H25931961   6.317   3.069   5.006 -0.9199 -0.5853  0.2768
  122MOL   H26031962   6.123   3.183   4.903 -0.2030  0.8815 -1.1783
  122MOL   H26131963   6.213   3.343   4.925  1.3716 -0.8099  0.7222
  122MOL   H26231964   6.048   3.317   4.979 -0.7387 -1.0901 -0.7420
  123MOL     C131965   1.079   2.898   0.048 -0.2245 -0.3435  0.1834
  123MOL     C231966   1.147   3.012   0.123 -0.5043 -0.0610  0.3344
  123MOL     C331967   1.269   3.018   0.181  0.2687 -0.2822 -0.5161
  123MOL     C431968   1.334   3.140   0.239 -0.0527 -0.4587  0.3268
  123MOL     C531969   1.368   2.898   0.169  0.6406 -0.1759  0.1752
  123MOL     H631970   1.001   2.862   0.115 -0.2428  1.9429  1.4343
  123MOL     H731971   1.052   2.929   7.826 -2.3348 -0.2679  0.7618
  123MOL     H831972   1.099   3.109   0.128  0.2376  0.2869  0.9333
  123MOL     H931973   1.255   3.197   0.286 -0.0510 -1.0217  1.0271
  123MOL    H1031974   1.410   3.196   0.184 -0.2386 -1.7808 -1.3475
  123MOL    H1131975   1.379   3.106   0.332 -2.4334 -2.0563  0.9442
  123MOL    H1231976   1.309   2.812   0.138  0.4560  0.2093 -0.5608
  123MOL    H1331977   1.411   2.877   0.267  0.1498  1.0459  0.6700
  123MOL    H1431978   1.140   2.811   0.023  0.0485 -0.9616  2.8539
  123MOL    C1531979   1.480   2.913   0.066 -0.0381 -0.3077  0.3789
  123MOL    C1631980   1.590   2.809   0.066  0.0300  0.1028  0.4372
  123MOL    C1731981   1.716   2.834   0.011 -0.1895  0.3919  0.1731
  123MOL    C1831982   1.837   2.735   0.013 -0.1290  0.0779 -0.2673
  123MOL    C1931983   1.744   2.967   7.823 -0.1297 -0.0821  0.0375
  123MOL    H2031984   1.521   3.014   0.069 -1.5098  0.2602  1.7426
  123MOL    H2131985   1.440   2.908   7.844  1.1708  0.3526 -0.1415
  123MOL    H2231986   1.565   2.715   0.112 -2.9594  1.9462  2.7617
  123MOL    H2331987   1.931   2.773   0.053  0.2640 -0.6099 -0.5457
  123MOL    H2431988   1.867   2.699   7.794 -0.2803  0.3880 -0.4313
  123MOL    H2531989   1.811   2.659   0.087 -0.1931 -1.1951 -1.5893
  123MOL    H2631990   1.849   2.986   7.849  0.2086 -2.3382  0.4226
  123MOL    H2731991   1.694   3.055   7.863  3.2733  1.1334  1.9020
  123MOL    C2831992   1.736   2.975   7.669 -0.7758  0.5214  0.1269
  123MOL    C2931993   1.596   2.957   7.621  0.6653  0.2273 -0.1483
  123MOL    C3031994   1.508   3.054   7.593  0.2488 -0.0089 -0.5570
  123MOL    C3131995   1.357   3.014   7.554 -0.6881 -1.3363  0.1985
  123MOL    C3231996   1.550   3.197   7.590 -0.2410 -0.0378 -0.1388
  123MOL    H3331997   1.791   2.886   7.635 -4.3220 -1.0427 -1.8308
  123MOL    H3431998   1.791   3.063   7.636  0.7382 -1.4186 -2.8073
  123MOL    H3531999   1.551   2.859   7.623  1.2202 -0.0369 -0.3310
  123MOL    H3632000   1.344   2.908   7.530  0.1872 -1.5389  0.5814
  123MOL    H3732001   1.326   3.062   7.461  0.2008 -1.3390 -0.1092
  123MOL    H3832002   1.291   3.053   7.631 -0.1893  2.6606 -1.2638
  123MOL    H3932003   1.510   3.263   7.512  0.0588 -1.1004 -1.1982
  123MOL    H4032004   1.658   3.213   7.580 -0.2965  0.9422  0.7311
  123MOL    C4132005   1.506   3.272   7.716 -0.3213 -1.0608 -0.3045
  123MOL    C4232006   1.538   3.424   7.697  0.3695 -0.0686 -0.3844
  123MOL    C4332007   1.475   3.524   7.763 -0.4029 -1.0126 -0.1679
  123MOL    C4432008   1.502   3.671   7.739  0.1034 -0.3817 -0.4311
  123MOL    C4532009   1.368   3.496   7.873 -0.4558 -0.3465  0.2777
  123MOL    H4632010   1.559   3.250   7.809 -1.9167 -0.0019  0.9008
  123MOL    H4732011   1.397   3.269   7.713 -0.3473  0.6137 -2.4196
  123MOL    H4832012   1.612   3.446   7.621  1.1077 -1.9239 -0.2373
  123MOL    H4932013   1.546   3.726   7.823 -0.8276  2.1924 -1.5616
  123MOL    H5032014   1.407   3.720   7.718  0.2649 -0.2379 -0.8379
  123MOL    H5132015   1.549   3.693   7.643 -1.2696  1.4094 -0.7296
  123MOL    H5232016   1.402   3.551   0.082 -0.0378  2.7436 -1.7096
  123MOL    H5332017   1.366   3.390   0.020 -0.9903 -0.6291 -0.9012
  123MOL    C5432018   1.221   3.538   7.825 -0.2966  0.3002  0.3375
  123MOL    C5532019   1.197   3.492   7.687  0.3401 -0.5571  0.3258
  123MOL    C5632020   1.118   3.391   7.653 -0.4308  0.2150 -0.8458
  123MOL    C5732021   1.111   3.367   7.504  0.4859  0.6703  0.3490
  123MOL    C5832022   1.041   3.294   7.741 -0.0811 -0.0943 -0.9239
  123MOL    H5932023   1.211   3.646   7.835  1.2351  0.4799 -0.0087
  123MOL    H6032024   1.143   3.506   0.015 -1.0398  1.0404 -0.1494
  123MOL    H6132025   1.250   3.548   7.611 -1.6970  0.4497 -0.3761
  123MOL    H6232026   1.004   3.377   7.483  0.5999  2.9651  0.6409
  123MOL    H6332027   1.147   3.270   7.472 -1.4740  0.3228 -0.8897
  123MOL    H6432028   1.167   3.442   7.449 -1.0818  1.3464 -0.3537
  123MOL    H6532029   1.095   3.278   7.835 -2.0689  0.4839  0.3455
  123MOL    H6632030   1.050   3.197   7.691  2.7950 -1.4101  1.9313
  123MOL    C6732031   0.894   3.334   7.775  0.3875  0.2560  0.1143
  123MOL    C6832032   0.831   3.251   0.009 -0.6345  0.6704  0.7112
  123MOL    C6932033   0.705   3.219   0.021  0.5341 -0.3073 -0.4457
  123MOL    C7032034   0.642   3.158   0.148  0.7681 -0.3331  0.0973
  123MOL    C7132035   0.602   3.246   7.801 -0.3583 -0.1391 -0.3163
  123MOL    H7232036   0.841   3.330   7.680  1.8528  0.2958 -0.7144
  123MOL    H7332037   0.904   3.437   7.809 -1.2980  1.2264 -2.1703
  123MOL    H7432038   0.900   3.237   0.092 -1.5259  1.9275  1.6903
  123MOL    H7532039   0.557   3.216   0.185  1.3675 -0.2948  1.4389
  123MOL    H7632040   0.713   3.158   0.230  0.4268 -0.8647  0.3988
  123MOL    H7732041   0.616   3.057   0.118 -0.0620  0.0051 -0.3480
  123MOL    H7832042   0.627   3.339   7.750 -1.1721  0.3557  0.1762
  123MOL    H7932043   0.503   3.263   7.843  0.1185  0.5642  0.5376
  123MOL    C8032044   0.588   3.139   7.699 -0.9770  0.2795  0.4005
  123MOL    C8132045   0.532   3.201   7.577  0.2214  0.1243 -0.0447
  123MOL    C8232046   0.408   3.213   7.530  0.0570  0.3835  0.0715
  123MOL    C8332047   0.286   3.157   7.599  0.2367 -0.2521 -0.4341
  123MOL    C8432048   0.381   3.279   7.393 -0.2582  0.4574 -0.1167
  123MOL    H8532049   0.530   3.052   7.731  1.2675 -1.0504  0.9635
  123MOL    H8632050   0.690   3.115   7.670 -1.0142  0.7026 -0.0861
  123MOL    H8732051   0.604   3.250   7.513  0.4040  1.3459  1.0622
  123MOL    H8832052   0.297   3.111   7.697 -1.0064 -1.0958 -0.6763
  123MOL    H8932053   0.251   3.076   7.536 -0.0734  0.8486 -1.7046
  123MOL    H9032054   0.209   3.234   7.604  1.8289  1.4470 -1.4567
  123MOL    H9132055   0.458   3.344   7.353  0.1943  0.6576  1.0439
  123MOL    H9232056   0.290   3.338   7.403 -1.3257 -0.9625 -1.3187
  123MOL    C9332057   0.347   3.165   7.295  0.2209  0.2885 -0.8362
  123MOL    C9432058   0.303   3.237   7.163  0.3025 -0.1289  0.4224
  123MOL    C9532059   0.371   3.231   7.049  0.2827  0.1579  0.0807
  123MOL    C9632060   0.324   3.303   6.930 -0.1013 -0.2961 -0.4048
  123MOL    C9732061   0.500   3.153   7.015 -0.8013  0.5323  0.2924
  123MOL    H9832062   0.259   3.114   7.333  0.9966 -1.1645 -0.9732
  123MOL    H9932063   0.429   3.095   7.278  1.0732  0.7645  1.1499
  123MOL   H10032064   0.215   3.297   7.179  0.1719 -0.1615 -0.1878
  123MOL   H10132065   0.225   3.348   6.942  0.0730 -0.4223  1.6584
  123MOL   H10232066   0.392   3.385   6.908  0.1403 -0.1718  0.7810
  123MOL   H10332067   0.323   3.235   6.845  1.7951  0.3282 -0.9649
  123MOL   H10432068   0.496   3.118   6.912  0.0135 -0.2357  0.5142
  123MOL   H10532069   0.514   3.061   7.072 -0.2098 -0.2068 -1.0337
  123MOL   C10632070   0.620   3.247   7.050  0.0432  0.0761  0.6074
  123MOL   C10732071   0.755   3.180   7.080 -0.1406  0.5757  0.1586
  123MOL   C10832072   0.851   3.198   7.170 -0.1849 -0.8368  0.0910
  123MOL   C10932073   0.845   3.308   7.277 -0.3288 -0.2733  0.0515
  123MOL   C11032074   0.964   3.093   7.170  1.0424  0.1808  0.5836
  123MOL   H11132075   0.605   3.316   7.133  2.0844  2.0380 -0.6122
  123MOL   H11232076   0.620   3.310   6.961  1.4772 -1.0974 -0.2347
  123MOL   H11332077   0.768   3.101   7.008  0.5277  0.7166  0.1224
  123MOL   H11432078   0.753   3.363   7.258 -0.6129 -0.6933  0.1913
  123MOL   H11532079   0.830   3.272   7.379 -1.5384  0.8333  0.2797
  123MOL   H11632080   0.922   3.385   7.274 -1.1328  0.4823 -1.3319
  123MOL   H11732081   0.933   3.002   7.119  0.6770  0.6382 -0.0206
  123MOL   H11832082   0.986   3.065   7.273  0.8352 -0.5772  0.4249
  123MOL   C11932083   1.084   3.154   7.094  0.3528 -0.3788  0.1470
  123MOL   C12032084   1.215   3.098   7.150 -0.0664  0.5650 -0.4442
  123MOL   C12132085   1.293   3.005   7.095  0.0061  0.1062  0.4179
  123MOL   C12232086   1.414   2.955   7.175  0.4699  0.5960  0.1109
  123MOL   C12332087   1.258   2.941   6.958  0.0760 -0.4040  0.3131
  123MOL   H12432088   1.078   3.262   7.111 -1.4697 -0.6834  1.7286
  123MOL   H12532089   1.075   3.133   6.988 -1.1714 -1.4587  0.4776
  123MOL   H12632090   1.249   3.134   7.246  0.0579 -1.0602  0.1314
  123MOL   H12732091   1.384   2.863   7.225  0.3667  0.8684  0.5552
  123MOL   H12832092   1.447   3.018   7.257 -0.1817 -0.8686  1.5285
  123MOL   H12932093   1.503   2.929   7.118 -1.1115 -1.1754 -1.6246
  123MOL   H13032094   1.151   2.928   6.946  0.1692 -1.1235  0.2402
  123MOL   H13132095   1.306   2.844   6.970  1.7668  0.3327 -0.2992
  123MOL   C13232096   1.330   3.011   6.840  0.1070 -0.1183 -0.0223
  123MOL   C13332097   1.311   2.928   6.718 -0.4402  0.6829  0.0294
  123MOL   C13432098   1.401   2.923   6.616 -0.0540  0.7116 -0.5584
  123MOL   C13532099   1.388   2.814   6.503  0.2391 -0.6244 -0.5960
  123MOL   C13632100   1.530   3.009   6.599  0.1130 -0.6036 -0.1509
  123MOL   H13732101   1.438   3.021   6.855 -0.1459 -0.5508  2.2522
  123MOL   H13832102   1.296   3.114   6.826 -0.5526 -0.3545 -0.1568
  123MOL   H13932103   1.216   2.878   6.711  0.0703 -0.0854 -1.4098
  123MOL   H14032104   1.470   2.743   6.511 -0.1265 -0.8761  1.2156
  123MOL   H14132105   1.376   2.857   6.404 -0.5798 -0.7385 -0.5535
  123MOL   H14232106   1.292   2.763   6.502  0.3602 -0.8421 -1.0587
  123MOL   H14332107   1.524   3.107   6.645  3.5693  0.2021 -1.2326
  123MOL   H14432108   1.538   3.022   6.491 -1.9644  2.2764 -0.0106
  123MOL   C14532109   1.653   2.931   6.652  0.3994 -0.1294  0.0944
  123MOL   C14632110   1.785   2.985   6.599 -0.1557  0.1054  0.3243
  123MOL   C14732111   1.858   2.936   6.497 -0.8153 -0.6445 -0.2652
  123MOL   C14832112   1.988   3.001   6.460 -0.5456  0.0654  0.0228
  123MOL   C14932113   1.824   2.812   6.422 -0.8580 -0.1897  0.4926
  123MOL   H15032114   1.661   2.823   6.639  1.6986  0.0091 -0.3834
  123MOL   H15132115   1.655   2.950   6.759  2.1372  0.9819 -0.1158
  123MOL   H15232116   1.816   3.079   6.642  2.8214 -0.3663 -0.6472
  123MOL   H15332117   1.997   3.034   6.357  2.1337 -1.3741 -0.2532
  123MOL   H15432118   2.071   2.930   6.458 -0.9723 -0.4741  1.1500
  123MOL   H15532119   2.010   3.079   6.533  0.5862 -1.2545  1.1235
  123MOL   H15632120   1.829   2.845   6.318 -1.7419  0.9602  0.8105
  123MOL   H15732121   1.720   2.783   6.437 -0.7087  0.1637  2.3294
  123MOL   C15832122   1.909   2.683   6.457 -0.0449 -0.1512 -0.2718
  123MOL   C15932123   1.917   2.637   6.600  0.2678  0.1212  0.1837
  123MOL   C16032124   1.911   2.514   6.654  0.0324  0.3583 -1.0408
  123MOL   C16132125   1.883   2.390   6.580  0.3390  1.1260  0.5415
  123MOL   C16232126   1.947   2.502   6.804 -0.5933 -0.4498 -0.1365
  123MOL   H16332127   2.011   2.690   6.419  0.0001 -4.3385 -1.1216
  123MOL   H16432128   1.860   2.613   6.389  0.0320 -1.0416  0.5956
  123MOL   H16532129   1.938   2.723   6.661  0.8852  1.7745 -2.3179
  123MOL   H16632130   1.807   2.391   6.502  1.3506 -1.6630 -0.5428
  123MOL   H16732131   1.852   2.319   6.657 -2.7970  1.8236  0.0186
  123MOL   H16832132   1.977   2.357   6.537 -0.8074 -1.5399 -0.0598
  123MOL   H16932133   1.864   2.454   6.856 -1.9691  0.2688 -1.6617
  123MOL   H17032134   1.969   2.600   6.846  3.3442 -0.5297 -1.7228
  123MOL   C17132135   2.069   2.417   6.828  0.1229  0.2573 -0.1912
  123MOL   C17232136   2.189   2.469   6.753 -0.1147  0.8503  0.0321
  123MOL   C17332137   2.287   2.551   6.801  0.3083 -0.8524 -0.6683
  123MOL   C17432138   2.280   2.609   6.941  0.3922  0.0889 -0.5243
  123MOL   C17532139   2.404   2.599   6.712 -0.3691 -0.5534 -0.2941
  123MOL   H17632140   2.056   2.310   6.816  2.5820 -0.0038 -0.9594
  123MOL   H17732141   2.095   2.417   6.934  0.4045 -2.6522 -0.2245
  123MOL   H17832142   2.191   2.434   6.651 -0.8795 -0.7701  0.5541
  123MOL   H17932143   2.298   2.716   6.928  0.9845  0.1722  0.8589
  123MOL   H18032144   2.357   2.571   7.008  0.6901  1.2465 -0.1936
  123MOL   H18132145   2.184   2.604   6.992  0.9523 -2.9986  0.2850
  123MOL   H18232146   2.425   2.516   6.643 -1.3025 -0.4882 -0.6546
  123MOL   H18332147   2.499   2.599   6.766 -0.1273  0.2191 -0.7291
  123MOL   C18432148   2.403   2.732   6.645 -0.1208 -0.5520 -0.1953
  123MOL   C18532149   2.526   2.761   6.556 -0.0645  0.2401 -0.3854
  123MOL   C18632150   2.596   2.873   6.545 -0.3131  0.4924 -0.0969
  123MOL   C18732151   2.721   2.876   6.451  0.1280 -0.0349 -0.0435
  123MOL   C18832152   2.557   3.002   6.609 -0.2188 -0.2302  0.1972
  123MOL   H18932153   2.398   2.805   6.726 -1.8787 -1.7886  0.8468
  123MOL   H19032154   2.316   2.725   6.580 -0.9654  1.0479  0.7227
  123MOL   H19132155   2.573   2.679   6.503  3.2447  0.9722  1.2836
  123MOL   H19232156   2.698   2.933   6.361 -0.1923 -0.1768 -0.0529
  123MOL   H19332157   2.754   2.781   6.410 -2.7321 -0.9630 -0.2925
  123MOL   H19432158   2.814   2.916   6.493 -1.3634  1.7581  1.7135
  123MOL   H19532159   2.451   2.998   6.636 -0.6337  0.1136 -1.3409
  123MOL   H19632160   2.564   3.083   6.536  0.4748 -0.3222  0.1635
  123MOL   C19732161   2.633   3.028   6.740  0.4544 -0.2533  0.6887
  123MOL   C19832162   2.570   2.964   6.862 -0.2306 -0.2288 -0.1700
  123MOL   C19932163   2.618   2.868   6.943 -0.5811 -0.1631 -0.4067
  123MOL   C20032164   2.550   2.823   7.069  0.7116  0.3199 -0.8000
  123MOL   C20132165   2.744   2.782   6.905  0.2253  0.0992  0.5068
  123MOL   H20232166   2.635   3.134   6.766 -1.8515  0.1881 -0.8257
  123MOL   H20332167   2.739   3.003   6.732  0.5856  1.0521 -2.0745
  123MOL   H20432168   2.471   3.001   6.886 -0.3228  0.2443 -1.2393
  123MOL   H20532169   2.497   2.730   7.048 -2.1749  1.8581 -0.6401
  123MOL   H20632170   2.479   2.900   7.100  0.8465  0.3943 -0.6743
  123MOL   H20732171   2.624   2.810   7.147 -0.7240 -0.0962  0.5210
  123MOL   H20832172   2.776   2.791   6.801  0.5836 -0.5474  0.5616
  123MOL   H20932173   2.715   2.680   6.929 -0.5537  0.0737 -0.5192
  123MOL   C21032174   2.857   2.854   6.981  0.5409  0.6076  0.4171
  123MOL   C21132175   2.981   2.771   6.984 -0.6046 -0.5062 -0.2979
  123MOL   C21232176   3.014   2.678   7.073  0.2797  0.6347 -0.2941
  123MOL   C21332177   3.144   2.608   7.047 -1.0070 -0.6379 -0.2512
  123MOL   C21432178   2.937   2.633   7.189 -0.2512  0.5102 -0.1727
  123MOL   H21532179   2.815   2.874   7.079 -1.4556 -1.2457 -0.0099
  123MOL   H21632180   2.886   2.947   6.933 -0.2857  0.8239  0.3405
  123MOL   H21732181   3.047   2.800   6.904 -0.9691 -1.9074 -1.1197
  123MOL   H21832182   3.116   2.519   6.990  1.4074 -1.4926 -0.1396
  123MOL   H21932183   3.190   2.572   7.139 -0.9740  1.0113  0.3838
  123MOL   H22032184   3.221   2.666   6.997 -1.2352  0.0720  0.2232
  123MOL   H22132185   2.883   2.716   7.235 -0.3260  0.7515 -0.6953
  123MOL   H22232186   3.012   2.598   7.260 -1.1323 -2.3227 -0.5847
  123MOL   C22332187   2.852   2.512   7.140  0.0565  0.4312 -0.4659
  123MOL   C22432188   2.750   2.478   7.238 -0.7531  0.4562  0.0347
  123MOL   C22532189   2.630   2.425   7.212  0.2333  0.1893  0.2733
  123MOL   C22632190   2.527   2.391   7.321 -0.3015  0.1917  0.9614
  123MOL   C22732191   2.577   2.414   7.067  0.8274 -0.0170 -0.3564
  123MOL   H22832192   2.914   2.422   7.142  0.1598  0.4683 -1.5813
  123MOL   H22932193   2.829   2.510   7.033  1.9104 -0.9273 -0.8555
  123MOL   H23032194   2.783   2.492   7.339  1.1374 -1.2493 -0.2977
  123MOL   H23132195   2.574   2.384   7.419  0.9383  1.3910  0.4799
  123MOL   H23232196   2.500   2.288   7.297  0.9669  0.3488 -1.2832
  123MOL   H23332197   2.438   2.454   7.315 -0.7744 -0.3672  2.0487
  123MOL   H23432198   2.585   2.502   7.002 -0.7068 -0.5546 -1.3042
  123MOL   H23532199   2.469   2.404   7.081  0.7093  0.4086 -0.9298
  123MOL   C23632200   2.630   2.297   6.992  0.9944 -0.5506 -0.3014
  123MOL   C23732201   2.580   2.292   6.849 -0.5544 -0.3671 -0.5069
  123MOL   C23832202   2.502   2.195   6.799  0.0143 -0.0764  0.9473
  123MOL   C23932203   2.442   2.211   6.660  0.4593  0.5369 -0.1911
  123MOL   C24032204   2.445   2.070   6.874  0.0852 -0.4570  0.4345
  123MOL   H24132205   2.613   2.206   7.051  2.1850 -1.9778 -2.0887
  123MOL   H24232206   2.739   2.292   6.988  1.1022  0.8312  0.6514
  123MOL   H24332207   2.601   2.371   6.779  0.7261 -0.0370  0.2303
  123MOL   H24432208   2.492   2.286   6.599  0.8596  1.4230  1.2105
  123MOL   H24532209   2.344   2.258   6.671 -0.9854 -2.3842 -0.0383
  123MOL   H24632210   2.431   2.121   6.599 -0.5763  0.4423  0.1249
  123MOL   H24732211   2.462   2.092   6.979  0.2386  1.0578  0.0922
  123MOL   H24832212   2.509   1.989   6.840 -0.6043  0.0446 -2.1443
  123MOL   C24932213   2.306   2.025   6.836 -0.3008 -0.0920 -0.1019
  123MOL   C25032214   2.285   1.895   6.912 -0.4542  0.2252 -0.5396
  123MOL   C25132215   2.190   1.873   7.009 -0.4886  0.3359 -0.0155
  123MOL   C25232216   2.172   1.729   7.054  0.6831 -0.2569 -0.5234
  123MOL   C25332217   2.102   1.974   7.068  0.9856 -0.5904 -0.7119
  123MOL   H25432218   2.290   2.022   6.728  2.3133  2.6336 -0.6432
  123MOL   H25532219   2.237   2.103   6.870 -0.3500  0.0173 -0.4500
  123MOL   H25632220   2.349   1.815   6.880 -0.3717  1.1561 -2.8110
  123MOL   H25732221   2.252   1.668   7.014 -0.1756 -1.5403 -0.3485
  123MOL   H25832222   2.075   1.694   7.017 -0.1919  1.3599  0.2025
  123MOL   H25932223   2.169   1.721   7.163  0.6076  0.2946 -0.4861
  123MOL   H26032224   2.051   1.950   7.162 -1.6776 -2.3236 -2.5487
  123MOL   H26132225   2.026   2.001   6.996 -1.7209 -0.7713  1.9511
  123MOL   H26232226   2.160   2.060   7.101 -0.0039 -0.8689  1.9084
  124MOL     C132227   2.173   6.704   0.977 -0.0020 -0.1698 -0.0998
  124MOL     C232228   2.122   6.725   1.115  0.4268  0.2042 -0.1662
  124MOL     C332229   2.177   6.787   1.221 -0.1280 -0.9377  0.4868
  124MOL     C432230   2.103   6.818   1.348 -1.0717  0.2840  0.0456
  124MOL     C532231   2.317   6.847   1.216  0.2937  0.2858  0.0786
  124MOL     H632232   2.252   6.768   0.937 -0.5961 -1.0081 -2.6773
  124MOL     H732233   2.205   6.600   0.969 -0.8530 -0.2996 -1.9522
  124MOL     H832234   2.022   6.688   1.127  0.5054 -0.3735 -1.1781
  124MOL     H932235   2.098   6.925   1.369 -0.8695  0.7723 -2.3164
  124MOL    H1032236   2.175   6.786   1.424 -0.0586  0.5546 -0.7806
  124MOL    H1132237   2.006   6.769   1.356 -1.4431  0.4421 -3.1730
  124MOL    H1232238   2.366   6.796   1.133  3.4286  1.9710  0.7965
  124MOL    H1332239   2.363   6.828   1.313 -1.6216 -2.0790  0.5781
  124MOL    H1432240   2.083   6.714   0.917 -0.1734  1.3589  0.3828
  124MOL    C1532241   2.321   6.997   1.185  0.0982  0.2490  0.1267
  124MOL    C1632242   2.452   7.065   1.188 -0.7867 -0.0697  0.0816
  124MOL    C1732243   2.503   7.153   1.275 -0.1929  0.0618  0.8672
  124MOL    C1832244   2.645   7.195   1.259 -0.3936  0.1939  0.5704
  124MOL    C1932245   2.434   7.206   1.396 -0.1326 -0.4514  0.9587
  124MOL    H2032246   2.263   7.047   1.263  0.1004  1.1364 -0.4269
  124MOL    H2132247   2.285   7.002   1.082 -0.1723  0.2335  0.2183
  124MOL    H2232248   2.513   7.040   1.102 -1.5107  1.9087 -1.0642
  124MOL    H2332249   2.706   7.150   1.180  0.8727 -0.3246  1.8132
  124MOL    H2432250   2.704   7.191   1.351  1.0396 -1.4481 -0.3759
  124MOL    H2532251   2.643   7.302   1.241 -0.9970 -0.0749 -1.0849
  124MOL    H2632252   2.331   7.234   1.376  0.1879  1.0458  1.3098
  124MOL    H2732253   2.479   7.295   1.441 -2.3849  1.1302  0.1523
  124MOL    C2832254   2.430   7.104   1.513  0.4405 -0.2244  0.5312
  124MOL    C2932255   2.311   7.127   1.608 -0.1663 -0.2105 -0.1687
  124MOL    C3032256   2.321   7.191   1.725  0.5647  0.4765  0.1847
  124MOL    C3132257   2.198   7.189   1.826  0.2318 -0.0823 -0.3998
  124MOL    C3232258   2.450   7.243   1.786  0.4454 -0.4504 -0.9704
  124MOL    H3332259   2.526   7.095   1.563  0.0550 -1.3420  1.0785
  124MOL    H3432260   2.414   7.005   1.470  0.9425  0.4137 -1.1757
  124MOL    H3532261   2.216   7.080   1.586  0.2208 -0.2268 -1.9348
  124MOL    H3632262   2.227   7.123   1.907 -1.2521 -1.8577 -1.2738
  124MOL    H3732263   2.114   7.134   1.784  2.2928 -2.6683 -1.2881
  124MOL    H3832264   2.165   7.291   1.848 -1.7972 -0.2115 -2.5993
  124MOL    H3932265   2.442   7.352   1.786 -0.7487 -0.5248 -0.5331
  124MOL    H4032266   2.537   7.237   1.721  1.4302  1.9114  0.0727
  124MOL    C4132267   2.490   7.197   1.927  0.1218 -0.7535  0.2215
  124MOL    C4232268   2.538   7.051   1.933  0.2462  0.2087 -0.0588
  124MOL    C4332269   2.630   6.995   2.018  0.3649 -0.4716  0.1480
  124MOL    C4432270   2.676   6.856   2.019  0.2359  0.4005 -0.1869
  124MOL    C4532271   2.683   7.071   2.137 -0.6729 -0.5903 -0.4638
  124MOL    H4632272   2.401   7.208   1.990  1.3270 -0.5170  1.9216
  124MOL    H4732273   2.565   7.265   1.967  0.2885 -1.7577  1.6437
  124MOL    H4832274   2.506   6.986   1.853  0.5722 -0.4190  0.3163
  124MOL    H4932275   2.656   6.818   2.120 -2.4818  0.4506 -0.6755
  124MOL    H5032276   2.781   6.834   1.995  0.3626 -0.1158  0.7756
  124MOL    H5132277   2.613   6.798   1.952 -0.9513 -0.9805  2.0560
  124MOL    H5232278   2.699   7.011   2.226  1.4003 -0.8781 -1.0064
  124MOL    H5332279   2.610   7.145   2.170  1.2057  0.4998  1.3382
  124MOL    C5432280   2.812   7.136   2.081 -0.0757 -0.7874 -0.5094
  124MOL    C5532281   2.895   7.213   2.186  0.2497 -0.2188  0.1204
  124MOL    C5632282   3.024   7.178   2.220  0.2255  0.7609  0.2537
  124MOL    C5732283   3.099   7.239   2.341  0.4040  0.2847  0.5188
  124MOL    C5832284   3.118   7.087   2.137  0.0622 -0.0884  0.1840
  124MOL    H5932285   2.786   7.205   2.000  1.6818  1.6279  0.8855
  124MOL    H6032286   2.880   7.067   2.031  0.2526 -1.0742  0.3231
  124MOL    H6132287   2.843   7.285   2.247  0.5881 -0.7272  1.0218
  124MOL    H6232288   3.141   7.333   2.306  2.2692 -0.6958  0.0875
  124MOL    H6332289   3.171   7.168   2.382 -2.1436 -0.9227  3.0807
  124MOL    H6432290   3.021   7.249   2.417  0.0127  0.5066  0.0955
  124MOL    H6532291   3.224   7.101   2.160  0.0479 -1.1392  0.9275
  124MOL    H6632292   3.113   7.104   2.029  1.9713 -0.3744  0.0177
  124MOL    C6732293   3.097   6.933   2.163  0.4229  0.4925  0.4661
  124MOL    C6832294   3.137   6.848   2.048 -0.3235 -0.2555 -0.0788
  124MOL    C6932295   3.260   6.792   2.026 -0.0587 -0.3577  0.6168
  124MOL    C7032296   3.278   6.713   1.903 -0.4441  0.0897  0.4180
  124MOL    C7132297   3.373   6.810   2.122 -0.0051 -0.2114  0.0555
  124MOL    H7232298   2.988   6.930   2.165  0.4556 -1.7099 -0.1838
  124MOL    H7332299   3.134   6.897   2.259  1.6404 -0.7976 -0.4627
  124MOL    H7432300   3.063   6.837   1.970  1.0980  2.0010 -1.8383
  124MOL    H7532301   3.336   6.625   1.930  3.2125  1.5434 -2.3359
  124MOL    H7632302   3.340   6.766   1.830  0.7235 -0.5095  0.9785
  124MOL    H7732303   3.183   6.675   1.865  0.3760 -1.2093 -0.3815
  124MOL    H7832304   3.342   6.874   2.205 -3.0502  0.1106 -1.2789
  124MOL    H7932305   3.454   6.861   2.070 -2.0689  0.3016 -2.7465
  124MOL    C8032306   3.423   6.679   2.186  0.3520 -0.3361  0.6493
  124MOL    C8132307   3.320   6.584   2.246 -0.2835 -0.2454  0.5912
  124MOL    C8232308   3.314   6.531   2.368 -0.0386  0.0336  0.1436
  124MOL    C8332309   3.406   6.575   2.484  0.1730 -0.7126  0.9945
  124MOL    C8432310   3.224   6.420   2.404  0.0871 -0.9167  0.5633
  124MOL    H8532311   3.496   6.724   2.253  0.1478 -0.3855  0.9080
  124MOL    H8632312   3.493   6.630   2.119 -0.6260 -0.7626 -0.0712
  124MOL    H8732313   3.246   6.557   2.172  0.8649 -0.3107 -0.5623
  124MOL    H8832314   3.439   6.484   2.534  1.9758  0.5422  2.1197
  124MOL    H8932315   3.347   6.643   2.545 -2.1949 -2.9427  1.2895
  124MOL    H9032316   3.498   6.618   2.444  0.1626  0.8060  2.5683
  124MOL    H9132317   3.287   6.333   2.422  1.0691  0.2601  3.0880
  124MOL    H9232318   3.172   6.381   2.316  0.7786 -0.5020 -0.0272
  124MOL    C9332319   3.126   6.457   2.511  0.6513  0.1178  0.4261
  124MOL    C9432320   3.039   6.337   2.551 -0.5771  0.1446 -0.1546
  124MOL    C9532321   3.035   6.286   2.674  0.1960 -0.2706 -0.2243
  124MOL    C9632322   2.958   6.156   2.688 -0.2889 -0.5855  0.3617
  124MOL    C9732323   3.120   6.332   2.795  0.3080 -0.1087 -0.6391
  124MOL    H9832324   3.053   6.529   2.477 -1.6776 -3.0401 -1.5086
  124MOL    H9932325   3.178   6.495   2.600  2.6437  2.0601 -1.5200
  124MOL   H10032326   2.977   6.296   2.472 -3.0404  0.0717  1.7561
  124MOL   H10132327   2.918   6.121   2.592 -1.2331 -1.1606  0.9637
  124MOL   H10232328   3.021   6.079   2.731  1.4183 -0.6741 -2.1948
  124MOL   H10332329   2.867   6.163   2.748  1.0248 -0.1521  2.3411
  124MOL   H10432330   3.078   6.308   2.893  0.1065  0.6051 -0.5462
  124MOL   H10532331   3.128   6.440   2.787  0.5614 -0.1752 -1.2538
  124MOL   C10632332   3.255   6.271   2.784 -0.7283 -0.0240 -0.0604
  124MOL   C10732333   3.356   6.310   2.892 -0.1414  0.5362 -0.2060
  124MOL   C10832334   3.426   6.222   2.965 -0.5494 -0.2778  0.3653
  124MOL   C10932335   3.406   6.074   2.953 -0.0464  0.3408  0.6314
  124MOL   C11032336   3.533   6.267   3.065  0.0045  0.3783 -0.3987
  124MOL   H11132337   3.311   6.303   2.696  0.6572  0.0674  0.8387
  124MOL   H11232338   3.266   6.163   2.779 -0.2464  0.0064  0.2875
  124MOL   H11332339   3.377   6.415   2.897  0.6230  0.3618  0.3404
  124MOL   H11432340   3.464   6.027   2.874  0.5762 -1.0209  1.8746
  124MOL   H11532341   3.423   6.027   3.050  0.3081  1.3339  1.0636
  124MOL   H11632342   3.299   6.051   2.948  0.1515 -0.3899 -0.1900
  124MOL   H11732343   3.554   6.194   3.143  1.1067 -0.0576 -1.0889
  124MOL   H11832344   3.483   6.349   3.117 -0.8320  0.4400 -1.2805
  124MOL   C11932345   3.668   6.308   3.012  0.2074 -0.4399  0.0668
  124MOL   C12032346   3.775   6.345   3.118  0.8198  0.2951 -0.7145
  124MOL   C12132347   3.900   6.309   3.132 -0.3369 -0.5676 -0.2084
  124MOL   C12232348   3.989   6.378   3.231  0.1561  0.0368 -0.0635
  124MOL   C12332349   3.976   6.205   3.046  0.1880 -0.4975 -0.4293
  124MOL   H12432350   3.661   6.395   2.946  1.2958  0.5145  1.1994
  124MOL   H12532351   3.709   6.219   2.966  1.5955 -0.5693  1.5355
  124MOL   H12632352   3.746   6.431   3.178  0.7234  0.3634 -0.8577
  124MOL   H12732353   4.042   6.310   3.297  0.1214  0.5533  0.5048
  124MOL   H12832354   3.944   6.446   3.303  0.4425  0.9469 -0.7206
  124MOL   H12932355   4.065   6.436   3.178 -0.9909  0.4564 -1.2830
  124MOL   H13032356   3.907   6.156   2.977 -1.2755  1.0361 -0.1012
  124MOL   H13132357   4.016   6.124   3.107 -0.9998 -0.7508  0.0067
  124MOL   C13232358   4.091   6.270   2.959 -0.1146 -0.1524  0.7206
  124MOL   C13332359   4.167   6.177   2.871 -0.3143 -0.4285 -0.6448
  124MOL   C13432360   4.289   6.206   2.824 -0.2997  0.1791 -0.0029
  124MOL   C13532361   4.361   6.101   2.740 -0.5468  0.1175  0.2437
  124MOL   C13632362   4.358   6.345   2.847  0.2169 -0.8732  0.0114
  124MOL   H13732363   4.154   6.325   3.028  1.1513 -2.7865  1.7299
  124MOL   H13832364   4.051   6.352   2.898  1.1840  0.3951  0.5903
  124MOL   H13932365   4.124   6.081   2.844  1.1685 -1.8656  1.9198
  124MOL   H14032366   4.466   6.092   2.767 -0.4823  0.2963  0.0612
  124MOL   H14132367   4.356   6.136   2.637  0.4983  0.5556  0.3372
  124MOL   H14232368   4.312   6.004   2.742 -0.1124 -0.0846  1.3891
  124MOL   H14332369   4.294   6.428   2.878 -1.2175 -0.9273 -2.6091
  124MOL   H14432370   4.398   6.376   2.750 -1.9012  0.1501 -0.5537
  124MOL   C14532371   4.477   6.340   2.953  0.1193 -0.0403  0.4973
  124MOL   C14632372   4.552   6.475   2.971  0.3341  0.0457  0.0626
  124MOL   C14732373   4.666   6.519   2.911  0.4028  0.0935  0.4515
  124MOL   C14832374   4.717   6.655   2.943 -0.0703 -0.2128  0.1471
  124MOL   C14932375   4.750   6.434   2.812 -0.3120  0.3375  0.3237
  124MOL   H15032376   4.541   6.259   2.919 -0.9478 -0.2804 -1.0041
  124MOL   H15132377   4.426   6.313   3.045  2.2857 -0.1030  1.7050
  124MOL   H15232378   4.499   6.548   3.031  0.7344  1.1900 -0.9522
  124MOL   H15332379   4.643   6.717   2.994  0.8720  0.2958  0.9037
  124MOL   H15432380   4.734   6.711   2.851 -0.4832 -2.3102 -1.2217
  124MOL   H15532381   4.807   6.661   3.005 -1.1613 -1.3154  1.8959
  124MOL   H15632382   4.768   6.490   2.721  1.1840  1.1818  1.1296
  124MOL   H15732383   4.689   6.348   2.783 -0.3930  0.3167  0.5575
  124MOL   C15832384   4.885   6.390   2.867 -0.2536 -0.4066  0.0649
  124MOL   C15932385   4.959   6.309   2.770  0.8130  0.0175  0.1416
  124MOL   C16032386   5.019   6.194   2.803 -0.0498 -0.6037  0.4552
  124MOL   C16132387   5.025   6.129   2.937 -0.1243  0.0958  0.3323
  124MOL   C16232388   5.084   6.116   2.689  0.8272 -0.4467 -0.1375
  124MOL   H16332389   4.880   6.340   2.963  0.1144 -0.9643 -0.2016
  124MOL   H16432390   4.946   6.480   2.880 -0.4126 -0.2511 -0.2580
  124MOL   H16532391   4.965   6.334   2.665  1.0084 -0.1986  0.1019
  124MOL   H16632392   4.991   6.026   2.936 -1.1065  0.4164 -0.1455
  124MOL   H16732393   4.968   6.176   3.017 -0.6323 -1.8518  1.1443
  124MOL   H16832394   5.130   6.130   2.966  0.2710  0.8054 -1.0650
  124MOL   H16932395   5.085   6.183   2.603  0.1060  1.4624  1.3269
  124MOL   H17032396   5.018   6.031   2.669 -1.3673  1.4776 -1.2589
  124MOL   C17132397   5.226   6.073   2.717  0.6218  0.7377  0.0567
  124MOL   C17232398   5.293   6.018   2.590  0.0327 -0.9453 -0.4769
  124MOL   C17332399   5.423   6.033   2.558 -0.4948  0.9477 -0.2142
  124MOL   C17432400   5.526   6.107   2.643 -0.1621 -0.1503 -0.0258
  124MOL   C17532401   5.477   5.978   2.432  0.0145 -0.0643  0.2917
  124MOL   H17632402   5.227   5.997   2.796  0.7696  0.3993 -0.2717
  124MOL   H17732403   5.288   6.151   2.761  0.3685 -0.2491  2.2788
  124MOL   H17832404   5.236   5.958   2.520  1.0110 -0.5853 -1.6127
  124MOL   H17932405   5.491   6.196   2.696 -3.5347 -1.1604 -0.4558
  124MOL   H18032406   5.623   6.131   2.601  0.9325 -0.9139  1.9882
  124MOL   H18132407   5.555   6.042   2.726  1.0018  1.4254  0.8456
  124MOL   H18232408   5.539   6.048   2.376  1.2429  0.3524  2.1593
  124MOL   H18332409   5.386   5.963   2.373 -1.2746  0.3608  2.1486
  124MOL   C18432410   5.560   5.851   2.462 -0.4003 -0.2255  1.1219
  124MOL   C18532411   5.640   5.787   2.345 -0.2787 -0.5649  0.4239
  124MOL   C18632412   5.775   5.779   2.328  0.0004 -0.1408  0.5438
  124MOL   C18732413   5.842   5.717   2.204 -0.0401  0.1812 -0.1443
  124MOL   C18832414   5.877   5.850   2.421 -0.4981 -0.5775  0.8314
  124MOL   H18932415   5.502   5.776   2.516  0.9340  0.2607  3.2496
  124MOL   H19032416   5.634   5.884   2.533 -1.0071  1.4305  1.0017
  124MOL   H19132417   5.581   5.733   2.271 -1.2983 -0.4216  1.1289
  124MOL   H19232418   5.772   5.658   2.144 -0.1496  1.0454 -0.8804
  124MOL   H19332419   5.935   5.661   2.217 -0.5839 -0.9255 -0.9052
  124MOL   H19432420   5.878   5.798   2.141 -1.7319  0.5042 -0.7368
  124MOL   H19532421   5.841   5.930   2.486 -1.0855 -0.5009  0.4224
  124MOL   H19632422   5.960   5.888   2.360 -1.5652 -1.3884 -1.1698
  124MOL   C19732423   5.932   5.744   2.513 -0.5705 -0.5961 -0.1233
  124MOL   C19832424   5.834   5.721   2.627 -0.3485  0.4995 -0.3755
  124MOL   C19932425   5.795   5.605   2.681 -0.2010 -0.3768  0.2568
  124MOL   C20032426   5.686   5.602   2.795 -0.0767  0.2882  0.0268
  124MOL   C20132427   5.834   5.464   2.635 -0.2898  0.6789 -0.4721
  124MOL   H20232428   6.020   5.786   2.562  0.1746 -2.2076 -0.0579
  124MOL   H20332429   5.953   5.652   2.459  1.7248  0.8010 -1.6884
  124MOL   H20432430   5.802   5.807   2.683  0.1488 -1.5193  3.1518
  124MOL   H20532431   5.586   5.577   2.761  0.7308  0.0376 -2.2919
  124MOL   H20632432   5.689   5.700   2.841 -1.0749  0.7801 -0.9386
  124MOL   H20732433   5.709   5.540   2.882 -0.8908  0.0737  0.0840
  124MOL   H20832434   5.886   5.461   2.539  0.4431  0.6887 -0.0829
  124MOL   H20932435   5.738   5.414   2.631  0.4003 -0.7619  0.6798
  124MOL   C21032436   5.920   5.387   2.745 -0.0227 -0.0937  0.3294
  124MOL   C21132437   5.930   5.235   2.716  0.8322 -0.3436 -0.0814
  124MOL   C21232438   6.003   5.142   2.782  0.3418 -0.6540 -0.0524
  124MOL   C21332439   5.980   4.994   2.768 -0.0896 -0.1671  0.0514
  124MOL   C21432440   6.107   5.187   2.889 -1.1790  0.4552  0.1094
  124MOL   H21532441   5.891   5.399   2.849 -1.3790 -1.4948  0.1235
  124MOL   H21632442   6.016   5.437   2.757  0.2073 -0.7236  1.0945
  124MOL   H21732443   5.864   5.198   2.639  0.0391 -0.3113  0.5898
  124MOL   H21832444   6.074   4.948   2.739 -0.2051 -0.3381 -0.0517
  124MOL   H21932445   5.912   4.971   2.686  1.1633  0.8801 -1.3194
  124MOL   H22032446   5.934   4.957   2.859  0.0614 -0.9632 -0.1969
  124MOL   H22132447   6.106   5.114   2.970 -1.1524  0.8447  0.4569
  124MOL   H22232448   6.077   5.274   2.946  0.6812  0.1666  1.6107
  124MOL   C22332449   6.248   5.207   2.823 -0.0663  0.4636 -0.3745
  124MOL   C22432450   6.283   5.092   2.734  0.0229  1.0249  0.7581
  124MOL   C22532451   6.335   4.976   2.774 -0.8600  0.0448 -0.0504
  124MOL   C22632452   6.354   4.861   2.672  0.2189 -0.1861 -0.6117
  124MOL   C22732453   6.386   4.946   2.917  0.7245  0.0474  0.5095
  124MOL   H22832454   6.324   5.220   2.900 -0.6970 -1.9292  0.7205
  124MOL   H22932455   6.240   5.302   2.770 -1.3060  1.6455  1.8844
  124MOL   H23032456   6.233   5.107   2.639  0.2235  1.2768  0.6908
  124MOL   H23132457   6.276   4.789   2.698 -0.4306 -0.4344 -3.0900
  124MOL   H23232458   6.448   4.810   2.691 -1.0404 -2.6717 -0.8238
  124MOL   H23332459   6.347   4.880   2.565 -0.2064  0.5287 -0.4615
  124MOL   H23432460   6.359   4.850   2.960  2.4394 -1.5869 -1.9547
  124MOL   H23532461   6.342   5.019   2.985 -0.6293 -0.6959  0.4530
  124MOL   C23632462   6.539   4.954   2.932  0.2635  0.8602  0.8715
  124MOL   C23732463   6.582   4.925   3.068 -0.3789  0.7065 -0.1694
  124MOL   C23832464   6.709   4.943   3.124  0.3023 -0.1969  0.0042
  124MOL   C23932465   6.743   4.899   3.263  0.2737 -0.4773 -0.8419
  124MOL   C24032466   6.819   5.022   3.055 -0.2341  0.4488  0.1351
  124MOL   H24132467   6.565   5.056   2.903 -0.4265  1.1548  1.2715
  124MOL   H24232468   6.595   4.893   2.861 -1.1489  0.2910  0.2463
  124MOL   H24332469   6.512   4.878   3.136 -0.1336 -0.5098 -0.7425
  124MOL   H24432470   6.667   4.829   3.298  2.7378 -3.0744 -0.4448
  124MOL   H24532471   6.753   4.989   3.324 -0.2698 -3.9165  4.6532
  124MOL   H24632472   6.840   4.849   3.271  1.2167  1.4183 -0.0758
  124MOL   H24732473   6.808   5.029   2.946  1.7232 -0.3290 -0.1228
  124MOL   H24832474   6.904   4.954   3.060 -1.5819 -1.2606  0.6407
  124MOL   C24932475   6.847   5.157   3.122 -0.3975  0.0929  0.3762
  124MOL   C25032476   6.984   5.203   3.072 -0.2814 -0.1539  0.4153
  124MOL   C25132477   7.037   5.332   3.068  0.1732  0.8525  0.8672
  124MOL   C25232478   7.184   5.351   3.030  0.1137  0.0384  0.6856
  124MOL   C25332479   6.959   5.453   3.117  0.1739  0.7135  0.6134
  124MOL   H25432480   6.852   5.148   3.230 -0.2104 -1.3409  0.2583
  124MOL   H25532481   6.772   5.233   3.098 -0.9962 -1.1085 -1.6591
  124MOL   H25632482   7.050   5.119   3.058  1.1141  1.1330 -0.9431
  124MOL   H25732483   7.222   5.257   2.990  0.0908  0.4549 -0.3381
  124MOL   H25832484   7.248   5.372   3.115  1.5536 -0.2193 -0.3196
  124MOL   H25932485   7.184   5.428   2.952  0.3016 -0.3472  0.3054
  124MOL   H26032486   6.991   5.477   3.218 -0.6998 -0.3760  1.1700
  124MOL   H26132487   6.852   5.431   3.107  0.1456 -0.2141  2.6792
  124MOL   H26232488   6.976   5.530   3.043 -0.8679  0.3058 -0.0578
  125MOL     C132489   1.058   0.311   4.256 -0.4912 -0.3858  0.0310
  125MOL     C232490   1.074   0.159   4.244 -0.3687  0.2449  0.6362
  125MOL     C332491   1.036   0.060   4.329 -0.7907 -0.2011 -0.7546
  125MOL     C432492   1.063   7.791   4.291 -0.6355 -0.4666  0.5575
  125MOL     C532493   0.965   0.088   4.461 -0.0893  0.1938  0.8138
  125MOL     H632494   0.973   0.342   4.316  0.1927 -0.8248  1.2371
  125MOL     H732495   1.150   0.353   4.296 -0.1727  0.5040 -1.6028
  125MOL     H832496   1.126   0.127   4.155  1.8883 -0.0187  2.0303
  125MOL     H932497   1.103   7.785   4.190  0.4254  0.1152  0.9311
  125MOL    H1032498   0.978   7.729   4.318 -0.4904 -0.9070 -0.0167
  125MOL    H1132499   1.133   7.743   4.359 -1.2236 -1.8086  0.2163
  125MOL    H1232500   0.863   0.050   4.459  0.1537 -0.4291 -1.2842
  125MOL    H1332501   0.953   0.193   4.484  0.1502  0.1099  1.3179
  125MOL    H1432502   1.045   0.355   4.157  1.3206 -0.5480 -0.3051
  125MOL    C1532503   1.027   0.023   4.584  0.3349  0.3633  0.2108
  125MOL    C1632504   0.962   0.056   4.714  0.4868 -0.4036  0.7059
  125MOL    C1732505   0.858   7.878   4.771  0.5720  0.2166  0.5115
  125MOL    C1832506   0.804   0.050   4.907  0.5340 -0.0558 -0.0399
  125MOL    C1932507   0.774   7.776   4.697 -0.1333 -0.0615  0.2190
  125MOL    H2032508   1.134   0.043   4.588  0.1910  2.0045 -2.6381
  125MOL    H2132509   1.029   7.794   4.570  0.4825  0.3767  0.1257
  125MOL    H2232510   1.010   0.142   4.759 -1.1524  0.4081  0.9741
  125MOL    H2332511   0.785   7.855   4.985 -0.7340  1.4176  1.0889
  125MOL    H2432512   0.703   0.086   4.886  0.3518 -0.5525 -0.0210
  125MOL    H2532513   0.859   0.135   4.948  0.3947 -0.1188  0.2834
  125MOL    H2632514   0.743   7.708   4.776 -0.0715  1.0387  1.1913
  125MOL    H2732515   0.838   7.717   4.632  1.3489 -1.2615  2.7049
  125MOL    C2832516   0.653   7.828   4.622  0.4114  0.0591 -0.2879
  125MOL    C2932517   0.567   7.709   4.566  0.5236 -0.4738 -0.4302
  125MOL    C3032518   0.445   7.670   4.608 -0.0828  0.7022 -0.3817
  125MOL    C3132519   0.374   7.557   4.543 -0.4914 -0.6570  0.2149
  125MOL    C3232520   0.367   7.731   4.732 -0.2725  0.3902  0.0586
  125MOL    H3332521   0.678   0.017   4.541 -2.3368 -0.2344 -1.4298
  125MOL    H3432522   0.602   0.014   4.692  1.5182  0.5572  0.0654
  125MOL    H3532523   0.620   7.657   4.487  0.9659  0.1874 -0.5764
  125MOL    H3632524   0.438   7.528   4.460  0.5171  1.1762  0.3363
  125MOL    H3732525   0.275   7.586   4.507  0.2526 -0.3229 -1.6181
  125MOL    H3832526   0.362   7.474   4.613 -1.0811 -0.9949 -0.2793
  125MOL    H3932527   0.441   7.773   4.800  0.2534  1.0329 -0.8996
  125MOL    H4032528   0.325   7.654   4.797  1.1313  0.7189  1.3677
  125MOL    C4132529   0.256   7.831   4.706 -0.2299 -0.1891  0.1954
  125MOL    C4232530   0.299   0.045   4.597  0.1112 -0.0745  0.8487
  125MOL    C4332531   0.320   0.174   4.621  0.4254  0.1235  0.0455
  125MOL    C4432532   0.361   0.281   4.518  1.1475  0.3741  0.2996
  125MOL    C4532533   0.323   0.238   4.758  0.1412 -0.1211  0.0844
  125MOL    H4632534   0.234   0.008   4.797 -1.8316  0.4581 -0.5740
  125MOL    H4732535   0.169   7.775   4.671  0.4250  1.4457 -4.2886
  125MOL    H4832536   0.309   7.878   4.500  1.5335 -2.5551  2.1184
  125MOL    H4932537   0.371   0.234   4.420 -0.7359 -0.0328  0.2829
  125MOL    H5032538   0.459   0.322   4.543  1.4360 -0.8162  1.1682
  125MOL    H5132539   0.296   0.368   4.515  1.7745  0.8202 -0.6900
  125MOL    H5232540   0.228   0.212   4.805  0.4675 -0.9228  0.3071
  125MOL    H5332541   0.329   0.346   4.742 -0.2277 -0.0213  0.6218
  125MOL    C5432542   0.436   0.204   4.845 -0.4150  0.4519 -0.6547
  125MOL    C5532543   0.415   0.258   4.981 -0.0878 -0.1559 -0.6015
  125MOL    C5632544   0.442   0.193   5.097  0.1291 -0.0812  0.3660
  125MOL    C5732545   0.431   0.270   5.227  0.1460  0.0333  0.5796
  125MOL    C5832546   0.483   0.050   5.110  0.3756  0.2828  0.4019
  125MOL    H5932547   0.530   0.245   4.807  0.9672 -0.2195  1.9107
  125MOL    H6032548   0.452   0.096   4.844  1.0606  0.6555 -3.1758
  125MOL    H6132549   0.395   0.363   4.997  0.1957 -0.3745  1.2432
  125MOL    H6232550   0.400   0.375   5.218  1.3311  0.2047 -2.0802
  125MOL    H6332551   0.527   0.290   5.273  0.6418 -0.8257 -0.0757
  125MOL    H6432552   0.372   0.220   5.304 -2.2829  0.4918 -0.8948
  125MOL    H6532553   0.564   0.042   5.183 -0.9284 -0.4523  1.8009
  125MOL    H6632554   0.523   0.006   5.019  0.9345 -1.6947  1.5804
  125MOL    C6732555   0.365   7.839   5.160  0.3650 -0.5561  0.1290
  125MOL    C6832556   0.252   7.823   5.064  0.2114 -0.1179 -0.4565
  125MOL    C6932557   0.128   7.877   5.077 -0.6589  0.3381  0.4392
  125MOL    C7032558   0.012   7.838   4.984  0.2214  0.3015  0.6464
  125MOL    C7132559   0.097   0.113   5.177  0.0176  0.1985 -0.1871
  125MOL    H7232560   0.335   7.856   5.263 -0.2053 -2.4966  0.3115
  125MOL    H7332561   0.399   7.736   5.174 -3.0587 -1.5058  2.0351
  125MOL    H7432562   0.269   7.742   4.995  0.6586  0.5721 -1.1512
  125MOL    H7532563   7.875   0.035   4.908 -1.6125 -0.3146  0.3658
  125MOL    H7632564   7.796   7.820   5.034  0.0786  0.7015  0.5207
  125MOL    H7732565   0.036   7.745   4.931  0.4916  0.4237  0.5561
  125MOL    H7832566   0.095   0.208   5.123 -0.9725  0.9348  1.1365
  125MOL    H7932567   0.178   0.128   5.248 -1.9701  1.3242  1.8875
  125MOL    C8032568   7.849   0.102   5.262  0.7042  0.1331  0.4502
  125MOL    C8132569   7.842   7.855   5.346 -0.0842 -0.2773  0.1764
  125MOL    C8232570   7.736   7.779   5.379 -0.0330 -0.8502 -0.1415
  125MOL    C8332571   7.596   7.807   5.337  0.2934  1.2125  0.5344
  125MOL    C8432572   7.750   7.658   5.465 -0.3410  0.4260 -0.6959
  125MOL    H8532573   7.756   0.127   5.210 -0.2995  2.5397  3.2421
  125MOL    H8632574   7.850   0.185   5.333 -0.3726  1.2569 -0.8395
  125MOL    H8732575   0.062   7.844   5.387 -0.6810  1.3236  2.1137
  125MOL    H8832576   7.536   7.717   5.324 -0.2582  1.8081 -1.2953
  125MOL    H8932577   7.597   7.860   5.241  1.0487 -1.6855 -1.1106
  125MOL    H9032578   7.544   7.870   5.409 -0.5768  0.0096  0.9771
  125MOL    H9132579   7.853   7.622   5.478 -0.3805  0.3157 -0.6930
  125MOL    H9232580   7.688   7.582   5.418  1.9990 -1.8052 -0.2881
  125MOL    C9332581   7.682   7.667   5.603  0.3060 -0.1424  0.5068
  125MOL    C9432582   7.774   7.715   5.716  0.0669  0.2438  0.3477
  125MOL    C9532583   7.812   7.661   5.833  0.7146 -0.2448 -0.2591
  125MOL    C9632584   0.011   7.757   5.918  0.0390 -0.4745 -0.5979
  125MOL    C9732585   7.762   7.533   5.883 -0.0278  0.2617 -0.2842
  125MOL    H9832586   7.656   7.564   5.626 -1.0144  0.6495  2.7764
  125MOL    H9932587   7.591   7.726   5.594  2.0657  2.5500 -0.2021
  125MOL   H10032588   7.809   7.813   5.689  1.0223 -0.4916 -1.1524
  125MOL   H10132589   0.040   7.849   5.868  0.3886 -0.4087 -0.2715
  125MOL   H10232590   7.825   7.792   5.999  2.4507  2.9328 -0.0132
  125MOL   H10332591   0.102   7.707   5.949 -0.2749 -0.8905 -0.3361
  125MOL   H10432592   7.674   7.505   5.826  0.4158  2.0191 -1.8562
  125MOL   H10532593   7.736   7.549   5.988 -1.4034  0.0457 -0.5787
  125MOL   C10632594   7.872   7.427   5.869  0.0457 -0.4922  0.1797
  125MOL   C10732595   7.839   7.305   5.964  0.9262 -0.3987 -0.2619
  125MOL   C10832596   0.023   7.273   6.077 -0.4097 -0.1363  0.3611
  125MOL   C10932597   0.139   7.356   6.140 -0.2427 -0.2539  0.9117
  125MOL   C11032598   7.867   7.146   6.150  0.8072  0.2230 -0.3331
  125MOL   H11132599   0.085   7.474   5.904  0.1775 -0.5114 -0.1367
  125MOL   H11232600   7.871   7.396   5.764 -1.9622 -0.7455  0.2663
  125MOL   H11332601   7.767   7.235   5.923  0.5327  0.0890 -0.4138
  125MOL   H11432602   0.231   7.343   6.082 -1.6017 -0.6652 -1.2063
  125MOL   H11532603   0.118   7.462   6.129 -0.4551 -0.5484 -1.8575
  125MOL   H11632604   0.159   7.353   6.247 -0.3799 -0.6115  0.9276
  125MOL   H11732605   7.822   7.170   6.247 -1.1374 -1.7763 -0.6931
  125MOL   H11832606   0.085   7.102   6.169 -0.1911 -2.3155 -0.9654
  125MOL   C11932607   7.779   7.037   6.084  0.2032  0.1175  0.1038
  125MOL   C12032608   7.734   6.934   6.197 -0.2976 -0.0982  0.1767
  125MOL   C12132609   7.726   6.800   6.190  0.4838 -0.0258  0.5188
  125MOL   C12232610   7.693   6.716   6.309  0.9297 -0.2431  1.0271
  125MOL   C12332611   7.755   6.724   6.065  0.0623  0.1408 -0.6237
  125MOL   H12432612   7.843   6.984   6.013 -0.8319  0.0914 -0.8137
  125MOL   H12532613   7.689   7.069   6.030 -0.1223 -0.5184  0.2710
  125MOL   H12632614   7.713   6.982   6.292  1.2595 -2.9484  2.0387
  125MOL   H12732615   7.602   6.660   6.289  0.5522  0.3489  1.0493
  125MOL   H12832616   7.664   6.786   6.387 -1.7697  1.4933 -1.4106
  125MOL   H12932617   7.767   6.643   6.341  1.0842  0.4099  2.1636
  125MOL   H13032618   7.728   6.785   5.978  1.4661  2.1361  0.3076
  125MOL   H13132619   7.677   6.648   6.074  1.1978 -0.8543  0.8904
  125MOL   C13232620   0.028   6.689   6.061 -0.4778  0.5165 -0.5894
  125MOL   C13332621   0.068   6.597   5.951  0.6912  0.0489  0.7008
  125MOL   C13432622   0.177   6.520   5.953  0.3225  0.1282 -0.4776
  125MOL   C13532623   0.203   6.412   5.845  0.3458  0.4483  0.1564
  125MOL   C13632624   0.275   6.505   6.070  1.0948 -0.2280 -0.1842
  125MOL   H13732625   0.046   6.630   6.151  0.0930  0.1940 -0.9127
  125MOL   H13832626   0.090   6.777   6.052  0.1705 -0.0687 -2.0811
  125MOL   H13932627   7.876   6.607   5.870  1.2152  0.9865  0.3524
  125MOL   H14032628   0.307   6.426   5.818 -0.0490 -1.7540 -2.7968
  125MOL   H14132629   0.154   6.434   5.750  1.2593 -1.7206 -0.8380
  125MOL   H14232630   0.201   6.310   5.882 -1.6578  0.3452 -0.1705
  125MOL   H14332631   0.265   6.589   6.138  4.3511 -0.7192  1.0113
  125MOL   H14432632   0.381   6.510   6.045  1.1114 -3.0620 -0.8210
  125MOL   C14532633   0.264   6.382   6.157 -0.3685  0.1021 -0.1537
  125MOL   C14632634   0.365   6.385   6.270 -0.0515  0.5097 -0.3693
  125MOL   C14732635   0.337   6.430   6.392  0.2424  0.1206 -0.0928
  125MOL   C14832636   0.455   6.468   6.479  0.0171  0.2471  0.6935
  125MOL   C14932637   0.209   6.494   6.443 -0.1546 -0.0331 -0.4920
  125MOL   H15032638   0.285   6.294   6.096 -1.2490  0.2113 -0.6313
  125MOL   H15132639   0.164   6.362   6.196 -0.5610  1.4522  0.0565
  125MOL   H15232640   0.470   6.368   6.250  0.3553  0.4702  1.7244
  125MOL   H15332641   0.493   6.565   6.445  0.5424  0.3241  1.4750
  125MOL   H15432642   0.542   6.410   6.447 -0.9823 -1.4547  1.0206
  125MOL   H15532643   0.436   6.464   6.586 -0.9910  0.2502  0.5214
  125MOL   H15632644   0.147   6.523   6.358 -0.6675 -2.1851 -0.8800
  125MOL   H15732645   0.236   6.592   6.482  1.3223  0.0321 -1.6640
  125MOL   C15832646   0.129   6.413   6.546  0.1497  0.2737  0.3747
  125MOL   C15932647   0.185   6.415   6.685  0.4120 -0.1420  0.2018
  125MOL   C16032648   0.164   6.510   6.778  0.4924  0.4212  0.2267
  125MOL   C16132649   0.090   6.642   6.749 -0.1659 -0.1095  0.3920
  125MOL   C16232650   0.232   6.502   6.909 -0.2482  0.2871 -0.2552
  125MOL   H16332651   0.119   6.309   6.514 -1.3272  0.1114  1.3062
  125MOL   H16432652   0.027   6.451   6.553 -1.2986 -2.6056 -3.2676
  125MOL   H16532653   0.245   6.329   6.710  2.3547  1.3537  0.7438
  125MOL   H16632654   0.050   6.692   6.837 -0.1222 -0.6005  0.6966
  125MOL   H16732655   0.015   6.635   6.671  0.4554 -1.1793 -0.1323
  125MOL   H16832656   0.172   6.708   6.719 -1.1165  1.5528  1.3494
  125MOL   H16932657   0.278   6.403   6.915  1.4807  1.0938  0.1406
  125MOL   H17032658   0.154   6.491   6.984  0.0480 -0.7477 -0.0915
  125MOL   C17132659   0.333   6.623   6.931  0.2738  0.1967 -0.4421
  125MOL   C17232660   0.421   6.600   7.054 -0.1999  0.0290 -0.2402
  125MOL   C17332661   0.555   6.589   7.061  0.4491 -0.6875  0.1319
  125MOL   C17432662   0.652   6.606   6.956  0.1294  0.9680 -1.0216
  125MOL   C17532663   0.608   6.541   7.201 -1.1431  0.0855 -0.3357
  125MOL   H17632664   0.287   6.721   6.947  1.0779  0.7186 -1.2874
  125MOL   H17732665   0.397   6.634   6.843  0.7081  4.0071  0.2891
  125MOL   H17832666   0.375   6.559   7.142  2.7939  0.8818  1.8072
  125MOL   H17932667   0.749   6.633   6.998 -0.5299  1.5417  0.1360
  125MOL   H18032668   0.621   6.669   6.873 -1.9272 -0.2997 -1.2379
  125MOL   H18132669   0.663   6.504   6.917  0.9416 -1.1426  4.3174
  125MOL   H18232670   0.528   6.555   7.274 -0.8897  0.9593 -0.2160
  125MOL   H18332671   0.687   6.610   7.230 -2.1888  1.5656 -0.9214
  125MOL   C18432672   0.660   6.393   7.192 -0.5967  0.1121 -0.1598
  125MOL   C18532673   0.705   6.350   7.327 -0.3842  0.1147 -0.2040
  125MOL   C18632674   0.826   6.313   7.364 -1.0954 -0.2269 -0.0470
  125MOL   C18732675   0.858   6.267   7.507 -0.5886 -0.5461  0.5735
  125MOL   C18832676   0.948   6.307   7.273  0.8610  0.6650  0.5381
  125MOL   H18932677   0.736   6.365   7.120 -2.1546 -2.0653 -1.0340
  125MOL   H19032678   0.573   6.328   7.180  1.2494 -2.6031  0.5474
  125MOL   H19132679   0.627   6.342   7.402 -1.2342 -0.2965 -1.1251
  125MOL   H19232680   0.961   6.234   7.522 -0.5662 -2.2286 -2.7796
  125MOL   H19332681   0.782   6.197   7.543 -1.2196  1.1720  2.6777
  125MOL   H19432682   0.831   6.351   7.570 -0.7671  0.0029 -0.2242
  125MOL   H19532683   1.030   6.356   7.325  1.6940  1.9202 -1.8679
  125MOL   H19632684   0.928   6.366   7.183 -0.7127 -0.3500  0.2068
  125MOL   C19732685   0.987   6.166   7.230 -0.2287  0.1379  0.1226
  125MOL   C19832686   1.128   6.165   7.173 -0.4419  0.0575  0.7712
  125MOL   C19932687   1.230   6.093   7.226 -0.0284 -0.2991  0.3486
  125MOL   C20032688   1.375   6.120   7.186  0.0671 -0.2845  0.1087
  125MOL   C20132689   1.206   5.968   7.315  0.2926  0.2785  0.3265
  125MOL   H20232690   0.910   6.144   7.156 -1.3559 -0.3161  1.3893
  125MOL   H20332691   0.972   6.091   7.308 -0.6882 -1.8851 -1.8369
  125MOL   H20432692   1.153   6.253   7.115  0.8558  0.5159  1.9751
  125MOL   H20532693   1.382   6.182   7.097 -3.9966 -0.3333 -0.3149
  125MOL   H20632694   1.416   6.019   7.174 -1.9478 -1.0903 -0.1897
  125MOL   H20732695   1.427   6.178   7.262  1.2802 -0.3355 -0.6594
  125MOL   H20832696   1.267   5.883   7.284  0.8154 -0.3638  2.9996
  125MOL   H20932697   1.103   5.935   7.302  0.1893  0.0800  1.5844
  125MOL   C21032698   1.241   5.997   7.460  0.2580  0.1938 -0.9282
  125MOL   C21132699   1.207   5.869   7.541  0.2031  1.2305 -0.3520
  125MOL   C21232700   1.085   5.821   7.589 -0.0930  0.4531 -0.2853
  125MOL   C21332701   1.081   5.698   7.673 -0.1703 -0.0587  0.3988
  125MOL   C21432702   0.951   5.891   7.574  0.1703 -0.0405 -0.5791
  125MOL   H21532703   1.171   6.076   7.489  2.0474  0.7788  2.0908
  125MOL   H21632704   1.341   6.035   7.476  0.0813 -0.7276  2.8702
  125MOL   H21732705   1.293   5.804   7.546 -0.0902  0.9080  0.7032
  125MOL   H21832706   1.142   5.621   7.628  0.7139  1.7706 -1.6061
  125MOL   H21932707   0.980   5.661   7.691 -0.2816  0.6634  1.3624
  125MOL   H22032708   1.114   5.727   7.774 -1.6689 -1.0548  1.1863
  125MOL   H22132709   0.963   5.984   7.518 -0.9523 -0.2977 -1.2662
  125MOL   H22232710   0.911   5.922   7.670 -0.7225 -0.8054 -0.6859
  125MOL   C22332711   0.840   5.811   7.510  0.2982 -0.4154  0.0808
  125MOL   C22432712   0.726   5.909   7.464  0.0706  0.3215  0.0028
  125MOL   C22532713   0.605   5.929   7.513  0.1266 -0.8092 -0.5013
  125MOL   C22632714   0.512   6.034   7.455  0.4739 -0.5756  0.1428
  125MOL   C22732715   0.542   5.842   7.613  0.1322  0.0099 -0.2923
  125MOL   H22832716   0.806   5.738   7.583  1.8033 -4.0972 -2.7313
  125MOL   H22932717   0.889   5.761   7.426  0.8378 -1.8086  1.2122
  125MOL   H23032718   0.755   5.985   7.392  1.0629  0.0825  0.1391
  125MOL   H23132719   0.521   6.123   7.517 -0.8194  0.8632 -1.6765
  125MOL   H23232720   0.412   5.993   7.441 -0.0364  1.5255 -2.8333
  125MOL   H23332721   0.542   6.063   7.354  1.3564  1.0330  0.8463
  125MOL   H23432722   0.482   5.893   7.688 -0.1803  0.9129 -1.1502
  125MOL   H23532723   0.616   5.802   7.683 -3.9462 -2.1805  3.0249
  125MOL   C23632724   0.471   5.721   7.550 -0.3410 -0.2442  0.6280
  125MOL   C23732725   0.403   5.622   7.642  0.5726 -0.7963 -0.5049
  125MOL   C23832726   0.408   5.487   7.645  0.3441 -0.2480 -0.4249
  125MOL   C23932727   0.331   5.417   7.749  0.1707 -0.0579 -0.5752
  125MOL   C24032728   0.510   5.407   7.565 -0.0956  0.1132  0.6428
  125MOL   H24132729   0.545   5.683   7.480 -0.9802 -1.2239  0.4618
  125MOL   H24232730   0.392   5.754   7.482 -0.3092  0.6903  1.0431
  125MOL   H24332731   0.336   5.668   7.713 -0.4225  1.6912 -2.9427
  125MOL   H24432732   0.390   5.386   7.835  0.8894 -1.8655 -1.6897
  125MOL   H24532733   0.291   5.329   7.700 -1.3341  2.1532 -3.4515
  125MOL   H24632734   0.240   5.471   7.774  0.2679 -1.1037  2.2845
  125MOL   H24732735   0.571   5.334   7.618 -1.8139 -1.9095 -0.1163
  125MOL   H24832736   0.576   5.480   7.517  0.8780 -0.6439  0.8180
  125MOL   C24932737   0.439   5.324   7.453  1.5023 -0.5085 -0.2149
  125MOL   C25032738   0.518   5.298   7.332 -0.0346 -0.5693  0.0314
  125MOL   C25132739   0.542   5.174   7.284  0.2616  0.4823  0.7050
  125MOL   C25232740   0.598   5.151   7.144  0.0151 -0.8123  0.0018
  125MOL   C25332741   0.519   5.044   7.364  0.5696  0.2695  0.1444
  125MOL   H25432742   0.351   5.382   7.426  3.0516  1.1521 -1.7846
  125MOL   H25532743   0.404   5.236   7.507 -1.0916  0.5561 -0.0643
  125MOL   H25632744   0.550   5.380   7.270  0.2574  0.7427  1.8828
  125MOL   H25732745   0.703   5.125   7.127  0.4421 -0.9445  2.6009
  125MOL   H25832746   0.580   5.236   7.079  0.1612 -0.3267  0.5934
  125MOL   H25932747   0.540   5.072   7.097 -2.3717  1.4090 -0.8399
  125MOL   H26032748   0.567   4.958   7.317 -1.3744 -0.3849 -0.6704
  125MOL   H26132749   0.415   5.015   7.372 -0.0430  2.0609 -1.0305
  125MOL   H26232750   0.560   5.059   7.464  0.9410  0.5863 -0.0541
  126MOL     C132751   5.615   5.739   7.218  0.1714  0.3225  0.2235
  126MOL     C232752   5.737   5.723   7.127  0.0557  0.4797  0.0792
  126MOL     C332753   5.750   5.755   6.998  0.0387  0.5026 -0.3634
  126MOL     C432754   5.877   5.720   6.931 -0.2074 -0.6914 -0.1794
  126MOL     C532755   5.643   5.831   6.921 -0.6646  0.0654  0.4482
  126MOL     H632756   5.637   5.683   7.308  3.9697  0.9171 -0.2452
  126MOL     H732757   5.608   5.844   7.249 -2.6864 -0.3290  1.9928
  126MOL     H832758   5.822   5.679   7.176 -0.0142  0.2587  0.0036
  126MOL     H932759   5.854   5.668   6.839  1.0636 -1.6140  0.0134
  126MOL    H1032760   5.940   5.647   6.981 -1.2831 -0.4578  1.5715
  126MOL    H1132761   5.932   5.808   6.896 -1.1460 -0.7109 -1.7169
  126MOL    H1232762   5.549   5.805   6.971  0.0696 -1.1190  1.2634
  126MOL    H1332763   5.631   5.782   6.825  0.2839 -0.9442  0.8337
  126MOL    H1432764   5.527   5.708   7.162  1.3670  1.2679 -2.2397
  126MOL    C1532765   5.682   5.975   6.904  0.2168 -0.4198  0.9265
  126MOL    C1632766   5.574   6.058   6.848 -0.1867 -0.6492  0.5802
  126MOL    C1732767   5.556   6.185   6.885 -0.4703 -0.0568 -0.3046
  126MOL    C1832768   5.454   6.270   6.817 -0.1817 -0.8453 -0.4335
  126MOL    C1932769   5.653   6.260   6.973  0.4615 -0.4972  0.3964
  126MOL    H2032770   5.775   5.974   6.848  0.8976  0.6548  1.9960
  126MOL    H2132771   5.714   6.013   7.001 -2.3003  0.6353  1.3948
  126MOL    H2232772   5.507   6.014   6.776  2.0916 -1.5075 -1.0677
  126MOL    H2332773   5.503   6.321   6.734 -2.2183  1.0179 -0.5452
  126MOL    H2432774   5.425   6.355   6.879 -2.4054 -2.0085  0.1663
  126MOL    H2532775   5.371   6.214   6.773 -0.8661  1.0661 -1.6984
  126MOL    H2632776   5.671   6.358   6.929 -3.4142 -0.2391 -0.7762
  126MOL    H2732777   5.752   6.216   6.963 -0.3533 -1.8497 -2.4609
  126MOL    C2832778   5.616   6.278   7.117  0.6883 -0.0271 -0.4562
  126MOL    C2932779   5.727   6.337   7.198 -0.3181 -0.4120 -0.6783
  126MOL    C3032780   5.723   6.442   7.285  0.0596 -0.3408 -0.0359
  126MOL    C3132781   5.842   6.485   7.369  0.0670  0.2366  0.9086
  126MOL    C3232782   5.597   6.515   7.324  0.6239 -0.3062 -0.1633
  126MOL    H3332783   5.581   6.178   7.144  1.0500 -0.6928 -2.3685
  126MOL    H3432784   5.532   6.348   7.128  1.7419  1.0431  0.9938
  126MOL    H3532785   5.819   6.281   7.189  0.7840  0.7813  2.6795
  126MOL    H3632786   5.930   6.426   7.345 -1.1641 -1.6291  0.8722
  126MOL    H3732787   5.827   6.471   7.476 -0.7134  0.0188  0.7718
  126MOL    H3832788   5.864   6.591   7.355  0.9733  0.2007  2.0160
  126MOL    H3932789   5.599   6.555   7.426 -1.4278  0.2818 -0.3195
  126MOL    H4032790   5.514   6.444   7.326  0.3136  0.0774  1.2779
  126MOL    C4132791   5.554   6.631   7.238 -0.7290  0.1116 -0.7100
  126MOL    C4232792   5.420   6.691   7.269  0.1446 -0.5378 -0.2942
  126MOL    C4332793   5.307   6.657   7.210 -0.4859  0.4479 -0.1500
  126MOL    C4432794   5.175   6.721   7.249  0.0105 -0.5773  0.0009
  126MOL    C4532795   5.294   6.536   7.113  0.0387 -0.0754  0.1454
  126MOL    H4632796   5.559   6.613   7.130  1.4674 -0.4547 -0.5321
  126MOL    H4732797   5.634   6.703   7.254  1.6784 -2.0666 -2.5832
  126MOL    H4832798   5.415   6.775   7.336  0.8396 -0.5298 -0.2488
  126MOL    H4932799   5.120   6.639   7.294  1.8387 -1.3631  0.8861
  126MOL    H5032800   5.123   6.749   7.158  0.5571  1.7358  0.3602
  126MOL    H5132801   5.179   6.805   7.319 -0.9025 -1.6113  1.3106
  126MOL    H5232802   5.395   6.512   7.081  0.8829 -0.7415  3.1251
  126MOL    H5332803   5.231   6.566   7.029  0.4701 -2.4327 -1.0552
  126MOL    C5432804   5.232   6.416   7.183 -0.2071  0.2903  0.0372
  126MOL    C5532805   5.237   6.283   7.113  0.4658  0.0440 -0.3760
  126MOL    C5632806   5.242   6.163   7.166  0.4490 -0.4378 -0.5416
  126MOL    C5732807   5.249   6.044   7.081 -0.0440 -0.1181 -0.2596
  126MOL    C5832808   5.238   6.133   7.312 -0.5798 -0.2181  0.3628
  126MOL    H5932809   5.126   6.441   7.187  0.1182  1.4889  2.2733
  126MOL    H6032810   5.273   6.403   7.283 -1.1283  0.8542  0.5016
  126MOL    H6132811   5.238   6.292   7.005  0.9918  1.2764 -0.2822
  126MOL    H6232812   5.235   6.068   6.975 -1.9857 -1.4371 -0.3207
  126MOL    H6332813   5.170   5.976   7.112  1.4006 -0.5327  2.6258
  126MOL    H6432814   5.343   5.991   7.097  0.7268  0.6063 -2.1251
  126MOL    H6532815   5.183   6.039   7.322 -1.8042  0.5974  1.4497
  126MOL    H6632816   5.176   6.213   7.353  1.0077  1.2829 -0.1187
  126MOL    C6732817   5.370   6.117   7.387  0.2490  0.5458 -0.0648
  126MOL    C6832818   5.347   6.120   7.540 -0.3364  0.2411 -0.2088
  126MOL    C6932819   5.366   6.018   7.625  0.2347 -0.2297 -0.5500
  126MOL    C7032820   5.348   6.023   7.771 -0.6429  0.1971  0.1508
  126MOL    C7132821   5.405   5.881   7.578  0.8146  0.4769 -0.7974
  126MOL    H7232822   5.442   6.195   7.362  3.1661 -1.8821  0.4487
  126MOL    H7332823   5.413   6.024   7.351 -0.5283 -0.4739  1.5896
  126MOL    H7432824   5.326   6.208   7.600 -0.0163 -1.0892  1.8810
  126MOL    H7532825   5.309   6.122   7.793 -1.2952 -0.0398  0.0566
  126MOL    H7632826   5.445   6.025   7.821 -0.1858 -1.5013 -0.6442
  126MOL    H7732827   5.276   5.957   7.818 -1.3709  0.6420 -0.3339
  126MOL    H7832828   5.479   5.836   7.645  1.1187 -0.7463 -1.9394
  126MOL    H7932829   5.456   5.880   7.482 -2.4338  0.0870 -2.5887
  126MOL    C8032830   5.283   5.786   7.576  0.2981 -0.5593  0.4232
  126MOL    C8132831   5.326   5.636   7.548  0.5019 -0.1611  0.1447
  126MOL    C8232832   5.311   5.567   7.432  0.2516  0.0188 -0.2397
  126MOL    C8332833   5.250   5.617   7.301 -0.4208  0.1843 -0.2676
  126MOL    C8432834   5.364   5.428   7.437 -0.4406  0.4391  0.1976
  126MOL    H8532835   5.204   5.807   7.504 -0.3012 -1.3520  0.8323
  126MOL    H8632836   5.227   5.801   7.669  0.0729  0.6664  0.0980
  126MOL    H8732837   5.380   5.582   7.624  0.0391 -1.0241 -0.1293
  126MOL    H8832838   5.188   5.704   7.321 -0.1748  0.7255 -1.8166
  126MOL    H8932839   5.189   5.547   7.243 -2.5107  1.2866  0.5299
  126MOL    H9032840   5.329   5.653   7.236 -0.0640  1.0147  0.6294
  126MOL    H9132841   5.309   5.366   7.366  1.7426 -2.1965  0.7322
  126MOL    H9232842   5.339   5.390   7.536 -0.7589  0.2977  0.0649
  126MOL    C9332843   5.509   5.410   7.382 -0.4312 -0.4637  0.3666
  126MOL    C9432844   5.541   5.260   7.367  0.4655 -0.7631 -0.0939
  126MOL    C9532845   5.656   5.194   7.380  0.3448  0.3911  0.4261
  126MOL    C9632846   5.660   5.047   7.341  0.4025 -0.2332 -1.0459
  126MOL    C9732847   5.783   5.256   7.435 -1.3741  0.5482  0.0721
  126MOL    H9832848   5.574   5.462   7.453  2.4565 -1.3425 -1.5425
  126MOL    H9932849   5.511   5.441   7.277  0.4426 -2.3671 -0.2128
  126MOL   H10032850   5.454   5.210   7.328 -0.2997  1.9636 -2.0104
  126MOL   H10132851   5.577   5.013   7.279  1.6678  0.1671 -3.0041
  126MOL   H10232852   5.755   5.047   7.288  0.9869  0.2214 -0.0096
  126MOL   H10332853   5.680   4.989   7.431  1.4932  1.8014  0.0339
  126MOL   H10432854   5.783   5.357   7.393 -4.2761  0.9809  0.9698
  126MOL   H10532855   5.876   5.218   7.394 -0.4120  0.3501  2.3351
  126MOL   C10632856   5.791   5.257   7.593  0.1777  1.4320  0.1295
  126MOL   C10732857   5.826   5.119   7.652  0.0065 -0.2343 -0.0189
  126MOL   C10832858   5.742   5.024   7.694  0.2288 -0.8000 -0.5579
  126MOL   C10932859   5.585   5.045   7.694 -0.7137 -0.2790  0.9381
  126MOL   C11032860   5.787   4.892   7.756 -0.2841 -0.1298  0.2941
  126MOL   H11132861   5.707   5.307   7.640 -0.9077  0.6861 -0.9987
  126MOL   H11232862   5.871   5.320   7.633  1.7012 -1.1107  1.1840
  126MOL   H11332863   5.932   5.105   7.667  0.2350  0.1388 -1.2044
  126MOL   H11432864   5.564   5.141   7.648  0.7775 -0.7795 -0.8359
  126MOL   H11532865   5.528   4.981   7.626  1.4023 -0.6716 -0.5196
  126MOL   H11632866   5.539   5.050   7.793  0.0159 -1.9370  1.3796
  126MOL   H11732867   5.891   4.879   7.730 -0.6380 -1.2251 -0.6308
  126MOL   H11832868   5.744   4.813   7.694  0.9064 -0.7169  0.2011
  126MOL   C11932869   5.779   4.878   0.030 -0.2370  0.5390  0.3486
  126MOL   C12032870   5.867   4.771   0.086 -0.3416 -0.2753 -0.1686
  126MOL   C12132871   5.958   4.777   0.187  0.3341 -0.2393 -0.6224
  126MOL   C12232872   6.036   4.654   0.237  0.9757 -0.0146  0.1094
  126MOL   C12332873   5.979   4.899   0.278  0.8473 -0.4487 -0.4477
  126MOL   H12432874   5.676   4.847   0.047 -0.2169  0.3252  0.0961
  126MOL   H12532875   5.788   4.979   0.069 -0.0835  0.7321 -0.1726
  126MOL   H12632876   5.854   4.676   0.036 -0.3730 -0.4222  0.1176
  126MOL   H12732877   6.043   4.583   0.155 -0.7131 -0.1338  0.0566
  126MOL   H12832878   5.969   4.594   0.299 -2.6232  3.5364 -0.1729
  126MOL   H12932879   6.133   4.666   0.285  0.6238 -0.1342  0.8673
  126MOL   H13032880   5.974   4.854   0.377  0.2944 -1.0284 -0.7349
  126MOL   H13132881   5.903   4.976   0.265  1.2776  0.4046  1.9159
  126MOL   C13232882   6.120   4.957   0.254 -0.3286 -0.3052  0.2653
  126MOL   C13332883   6.155   5.070   0.347 -0.1591  0.6246 -0.1006
  126MOL   C13432884   6.228   5.180   0.317  0.0669 -0.3008 -0.3137
  126MOL   C13532885   6.271   5.284   0.418  0.3328 -0.6819 -0.4740
  126MOL   C13632886   6.297   5.210   0.184 -0.1700  0.0753 -0.0420
  126MOL   H13732887   6.143   4.982   0.150  0.4897  1.2555  0.8191
  126MOL   H13832888   6.190   4.877   0.279 -1.2847 -0.4168  2.7293
  126MOL   H13932889   6.124   5.066   0.451  2.0937  3.7291  0.7559
  126MOL   H14032890   6.226   5.249   0.511  1.1741  0.6141  0.4492
  126MOL   H14132891   6.251   5.389   0.400  0.5492 -0.4073  0.8096
  126MOL   H14232892   6.379   5.276   0.431  0.1439  1.2653  2.9139
  126MOL   H14332893   6.296   5.319   0.177 -0.2118  0.0218 -0.9960
  126MOL   H14432894   6.246   5.158   0.102 -0.2307  0.1770 -0.0688
  126MOL   C14532895   6.442   5.156   0.187 -0.6170 -0.2632 -0.2381
  126MOL   C14632896   6.511   5.150   0.045  0.5300  0.3152  0.6493
  126MOL   C14732897   6.619   5.073   0.016 -0.1519 -0.0541  0.0642
  126MOL   C14832898   6.678   5.070   7.759  0.7618 -0.1954 -0.7646
  126MOL   C14932899   6.696   4.985   0.120 -0.6066  0.2413  0.0338
  126MOL   H15032900   6.429   5.054   0.221 -0.1631  0.6745  2.8836
  126MOL   H15132901   6.509   5.207   0.256 -2.6911  1.4216  0.5725
  126MOL   H15232902   6.459   5.204   7.845 -0.6340 -3.5305 -1.3240
  126MOL   H15332903   6.781   5.103   7.764  0.9503 -0.3517 -2.8497
  126MOL   H15432904   6.628   5.131   7.683  2.2083  0.9657 -0.8124
  126MOL   H15532905   6.684   4.973   7.710  0.4251 -0.4609 -0.2767
  126MOL   H15632906   6.669   5.012   0.222 -0.1746 -0.5089  0.3493
  126MOL   H15732907   6.804   5.000   0.117 -0.4375 -0.9221  0.1658
  126MOL   C15832908   6.658   4.832   0.112  0.3107  0.1756 -0.9065
  126MOL   C15932909   6.695   4.759   0.239  0.5399 -0.2351  0.4933
  126MOL   C16032910   6.613   4.679   0.312  0.3755 -0.0112  0.6008
  126MOL   C16132911   6.471   4.644   0.272 -0.3961 -0.7225  0.1471
  126MOL   C16232912   6.669   4.583   0.416  0.0988 -1.1243  0.3839
  126MOL   H16332913   6.696   4.781   0.023 -1.6744 -0.3824 -1.4511
  126MOL   H16432914   6.550   4.836   0.094  0.0283 -0.4095  0.6201
  126MOL   H16532915   6.799   4.775   0.267  0.7435  1.7316 -1.2262
  126MOL   H16632916   6.417   4.610   0.360  3.4546 -2.5729  1.9522
  126MOL   H16732917   6.466   4.552   0.214 -0.0603 -1.1820  0.8299
  126MOL   H16832918   6.431   4.739   0.236  1.3936  0.4832  1.2515
  126MOL   H16932919   6.775   4.559   0.400 -0.1803 -0.4446 -2.9378
  126MOL   H17032920   6.623   4.487   0.394  0.9903 -1.4056 -0.3023
  126MOL   C17132921   6.639   4.636   0.555 -0.1062  0.2970  0.1256
  126MOL   C17232922   6.725   4.564   0.652 -0.2064  0.4202 -0.1656
  126MOL   C17332923   6.697   4.533   0.781  0.3853 -0.3420  0.3377
  126MOL   C17432924   6.558   4.559   0.844 -0.3436  0.4150 -0.2356
  126MOL   C17532925   6.800   4.465   0.867  0.0372 -0.2909  0.7019
  126MOL   H17632926   6.533   4.619   0.574  0.1601  0.0159  1.3565
  126MOL   H17732927   6.675   4.738   0.561 -1.0622  0.8791 -2.9701
  126MOL   H17832928   6.828   4.537   0.634 -0.4471 -0.7810  0.1938
  126MOL   H17932929   6.547   4.507   0.939  3.8839  1.8265  1.1087
  126MOL   H18032930   6.484   4.525   0.771  2.6980  1.2382 -3.8573
  126MOL   H18132931   6.542   4.665   0.864 -1.7615 -0.4223  3.4887
  126MOL   H18232932   6.898   4.453   0.820 -0.3805  0.9355 -0.5329
  126MOL   H18332933   6.774   4.360   0.873 -2.2212  0.1131 -1.2314
  126MOL   C18432934   6.822   4.527   1.008  0.1729  0.5100  0.1513
  126MOL   C18532935   6.958   4.485   1.063  0.0363  0.0744  0.3391
  126MOL   C18632936   6.992   4.378   1.136  0.2016 -0.3909  0.3916
  126MOL   C18732937   7.139   4.355   1.160 -0.2079  0.3751 -0.0454
  126MOL   C18832938   6.896   4.285   1.202  0.3775 -0.3052  0.4902
  126MOL   H18932939   6.754   4.506   1.091  0.1506  1.3833  0.3633
  126MOL   H19032940   6.815   4.636   1.003  2.4872  0.7098  0.7896
  126MOL   H19132941   7.040   4.546   1.028 -1.0790  0.4104 -1.7820
  126MOL   H19232942   7.171   4.352   1.264 -2.0192  0.6612  0.5496
  126MOL   H19332943   7.194   4.427   1.099  1.8570 -1.3332 -0.2396
  126MOL   H19432944   7.169   4.257   1.121  0.1788  1.3679 -2.3561
  126MOL   H19532945   6.791   4.313   1.215 -0.0301 -2.2594  1.6112
  126MOL   H19632946   6.929   4.281   1.306 -0.7875  1.0414  0.9431
  126MOL   C19732947   6.887   4.151   1.124  0.5563  0.2418 -0.1480
  126MOL   C19832948   6.981   4.047   1.191 -0.0297 -0.3664 -0.3583
  126MOL   C19932949   7.074   3.967   1.138  0.4108  0.1230  0.1862
  126MOL   C20032950   7.143   3.868   1.228  0.0971  0.7291  0.1721
  126MOL   C20132951   7.116   3.981   0.993 -0.1937 -0.6996  0.1759
  126MOL   H20232952   6.920   4.175   1.023 -0.9441 -2.8461 -1.4336
  126MOL   H20332953   6.785   4.113   1.119  0.5654  0.1050  0.6896
  126MOL   H20432954   6.967   4.045   1.298  2.9708  1.3958  0.1173
  126MOL   H20532955   7.114   3.876   1.333 -1.0589  0.0667 -0.0794
  126MOL   H20632956   7.251   3.874   1.222  0.1840 -1.1352 -0.4174
  126MOL   H20732957   7.114   3.766   1.203  2.9293 -0.2626  0.7150
  126MOL   H20832958   7.225   3.987   0.987  0.0940 -1.9242  3.2207
  126MOL   H20932959   7.100   4.079   0.948  0.7625 -0.9088 -0.6373
  126MOL   C21032960   7.074   3.874   0.898  0.2791 -0.5034  0.4477
  126MOL   C21132961   7.185   3.775   0.872 -0.1387 -0.2199 -0.1224
  126MOL   C21232962   7.243   3.760   0.751  0.0103 -0.4238 -0.9718
  126MOL   C21332963   7.365   3.673   0.735  0.1517  0.3444 -0.4694
  126MOL   C21432964   7.210   3.846   0.626  0.2401  0.0990  0.2519
  126MOL   H21532965   7.032   3.907   0.803 -1.3602  0.2009  1.4134
  126MOL   H21632966   6.994   3.816   0.944  0.1978 -1.7109 -1.1502
  126MOL   H21732967   7.228   3.719   0.953 -0.8612  0.1119  0.5021
  126MOL   H21832968   7.425   3.663   0.825 -1.6114  2.8320  1.0389
  126MOL   H21932969   7.428   3.713   0.656  0.9091  2.1048  1.0065
  126MOL   H22032970   7.328   3.572   0.717 -0.6742 -0.0422  2.9891
  126MOL   H22132971   7.297   3.854   0.561 -1.3157 -0.5120 -1.9723
  126MOL   H22232972   7.186   3.949   0.655 -1.6570  0.3026 -1.8830
  126MOL   C22332973   7.088   3.806   0.552 -0.5516  0.1919  0.0203
  126MOL   C22432974   7.115   3.673   0.478 -0.0080  0.4211 -0.4536
  126MOL   C22532975   7.028   3.575   0.455 -0.7699 -0.2937 -0.0346
  126MOL   C22632976   7.072   3.458   0.376 -0.9140  0.3563 -0.3914
  126MOL   C22732977   6.877   3.582   0.482  0.5771 -0.4399 -0.1783
  126MOL   H22832978   7.063   3.869   0.466 -1.3898  1.1849  0.9737
  126MOL   H22932979   6.998   3.810   0.613 -1.4783 -1.7705 -1.1631
  126MOL   H23032980   7.208   3.660   0.426 -1.1403 -2.4879 -1.9055
  126MOL   H23132981   7.072   3.371   0.441  2.0169  0.7634  0.2506
  126MOL   H23232982   7.171   3.477   0.334 -0.8261  1.9433  0.5194
  126MOL   H23332983   7.000   3.437   0.296 -1.0642  2.0896 -0.7213
  126MOL   H23432984   6.815   3.587   0.392  0.1518  1.6490  0.1997
  126MOL   H23532985   6.851   3.680   0.521  1.2155 -0.9392  1.5166
  126MOL   C23632986   6.831   3.476   0.586 -0.9277  0.5409  0.7119
  126MOL   C23732987   6.897   3.501   0.725 -0.1703  0.6315  0.0710
  126MOL   C23832988   6.972   3.415   0.797 -0.8977 -0.3365  0.2396
  126MOL   C23932989   7.027   3.447   0.927  0.0646  0.0481 -0.6475
  126MOL   C24032990   7.007   3.274   0.753  0.2521 -0.2204 -0.2330
  126MOL   H24132991   6.853   3.378   0.542 -0.5975  0.7433  0.4263
  126MOL   H24232992   6.726   3.481   0.616 -0.9552 -3.1735  1.4852
  126MOL   H24332993   6.874   3.603   0.750 -1.4081  0.4636 -0.3424
  126MOL   H24432994   7.014   3.552   0.954 -0.3476  0.0513 -0.8489
  126MOL   H24532995   7.134   3.431   0.925  0.0189 -0.5340  0.7873
  126MOL   H24632996   6.975   3.380   0.996  1.8224 -1.7898 -1.0614
  126MOL   H24732997   6.941   3.233   0.676  0.0863 -2.1877  0.9098
  126MOL   H24832998   6.985   3.205   0.835 -0.9392  0.0014 -0.3565
  126MOL   C24932999   7.150   3.250   0.709  0.1099  0.3752 -0.7973
  126MOL   C25033000   7.172   3.118   0.640 -0.5248 -0.3416  0.2150
  126MOL   C25133001   7.224   3.004   0.691 -0.4566 -0.6559 -0.3623
  126MOL   C25233002   7.255   2.879   0.606  0.0096 -0.2794  0.2424
  126MOL   C25333003   7.255   2.988   0.832  0.6772 -0.5305  0.4446
  126MOL   H25433004   7.227   3.272   0.783 -0.5334 -0.2877  0.0803
  126MOL   H25533005   7.172   3.320   0.629 -1.2051  1.1339 -0.5038
  126MOL   H25633006   7.162   3.127   0.533 -2.7041 -0.8338  0.3554
  126MOL   H25733007   7.191   2.794   0.629  0.8968 -1.3270 -1.0987
  126MOL   H25833008   7.354   2.843   0.630  0.2628  1.5803  2.0556
  126MOL   H25933009   7.234   2.890   0.499  0.7328 -2.2313 -0.1189
  126MOL   H26033010   7.193   3.048   0.898  1.4244 -0.4249  1.0602
  126MOL   H26133011   7.345   3.039   0.865  0.7337 -0.3782  0.0484
  126MOL   H26233012   7.257   2.884   0.864 -1.9668 -0.9739 -0.7004
  127MOL     C133013   2.580   0.924   5.938  0.5129  0.3242 -0.1528
  127MOL     C233014   2.624   1.057   5.994  0.2153  0.2232 -0.9639
  127MOL     C333015   2.747   1.108   5.979  0.2539  0.0740  0.1389
  127MOL     C433016   2.781   1.247   6.030 -0.4372 -0.4422  0.2921
  127MOL     C533017   2.859   1.041   5.899  0.4661  1.3967  0.3033
  127MOL     H633018   2.608   0.922   5.833 -0.5810  0.0051 -0.4451
  127MOL     H733019   2.629   0.853   6.003 -1.3766 -1.0684 -0.2184
  127MOL     H833020   2.552   1.111   6.053  0.1344  0.9463 -1.7313
  127MOL     H933021   2.871   1.242   6.092 -0.0869  1.2069 -0.0695
  127MOL    H1033022   2.706   1.292   6.094 -1.4574 -0.9303 -0.5425
  127MOL    H1133023   2.814   1.318   5.955 -0.5567 -0.7934 -0.0941
  127MOL    H1233024   2.868   1.095   5.805  0.4330  0.6594 -0.1325
  127MOL    H1333025   2.824   0.945   5.862  1.1660  1.0201  0.6052
  127MOL    H1433026   2.472   0.912   5.945  0.5848 -0.0807  0.2482
  127MOL    C1533027   2.994   1.016   5.981 -0.7881  0.5178 -0.6224
  127MOL    C1633028   3.101   0.946   5.897 -0.0449  0.9424  0.1070
  127MOL    C1733029   3.210   0.994   5.830  0.0473 -0.0742  0.0905
  127MOL    C1833030   3.302   0.900   5.752  0.8162  0.0971  0.2819
  127MOL    C1933031   3.234   1.144   5.822  0.7991  0.4020  0.3228
  127MOL    H2033032   2.964   0.958   6.067 -0.5686  0.1023 -0.8270
  127MOL    H2133033   3.032   1.110   6.023  0.4356 -0.6535  0.9166
  127MOL    H2233034   3.089   0.842   5.868  0.9524  1.0366 -0.6572
  127MOL    H2333035   3.402   0.933   5.779  0.8503  1.2399 -1.1744
  127MOL    H2433036   3.285   0.920   5.646 -0.1468 -1.8748  0.0449
  127MOL    H2533037   3.298   0.796   5.781  1.2726  0.3046  1.1079
  127MOL    H2633038   3.340   1.159   5.841  0.4638  2.2825  0.8473
  127MOL    H2733039   3.183   1.201   5.900 -2.3459 -0.7956 -0.7833
  127MOL    C2833040   3.206   1.202   5.679 -0.3138  0.7831  0.2259
  127MOL    C2933041   3.227   1.350   5.679  0.8021  0.4953 -0.6793
  127MOL    C3033042   3.125   1.445   5.660 -0.5194  0.5382  0.0476
  127MOL    C3133043   3.161   1.592   5.635 -0.5654 -0.6610 -0.9214
  127MOL    C3233044   2.983   1.417   5.654  0.0117  0.7612 -0.3127
  127MOL    H3333045   3.107   1.166   5.654  0.3559 -0.6914 -0.3242
  127MOL    H3433046   3.279   1.174   5.603  0.5304  0.3737  1.1759
  127MOL    H3533047   3.330   1.382   5.683  0.9456 -0.1274  1.4352
  127MOL    H3633048   3.142   1.624   5.533  1.5248 -0.6033 -1.3045
  127MOL    H3733049   3.264   1.619   5.659 -0.4682 -1.2397 -0.6638
  127MOL    H3833050   3.097   1.649   5.702  0.7485 -1.9481  1.4994
  127MOL    H3933051   2.928   1.494   5.708 -3.1304 -1.1995 -0.5733
  127MOL    H4033052   2.959   1.324   5.706  0.1392 -0.2303 -1.9773
  127MOL    C4133053   2.934   1.417   5.515 -0.2079  0.6045 -0.2599
  127MOL    C4233054   2.790   1.389   5.501  0.2860 -0.2336  0.4308
  127MOL    C4333055   2.686   1.471   5.514  0.4704 -0.1830  0.5961
  127MOL    C4433056   2.545   1.429   5.484 -0.6291  0.6483 -0.2876
  127MOL    C4533057   2.692   1.613   5.550  0.3704 -0.1897 -0.1695
  127MOL    H4633058   3.007   1.356   5.462  0.8006  1.6676 -0.1240
  127MOL    H4733059   2.945   1.519   5.478 -1.6315  0.7687 -0.2672
  127MOL    H4833060   2.767   1.288   5.471 -3.0012  0.0095  1.8728
  127MOL    H4933061   2.534   1.324   5.457 -1.6604  0.8475 -0.6668
  127MOL    H5033062   2.505   1.496   5.407 -0.1769  3.2201  1.6549
  127MOL    H5133063   2.485   1.438   5.574  0.5720  0.5257  0.5329
  127MOL    H5233064   2.627   1.667   5.481 -0.9925 -0.8214  0.6002
  127MOL    H5333065   2.789   1.662   5.542  0.0057  0.8586  1.4604
  127MOL    C5433066   2.647   1.644   5.700 -0.1117 -0.1650  0.3628
  127MOL    C5533067   2.648   1.791   5.730  0.3584 -0.5291  0.0363
  127MOL    C5633068   2.680   1.845   5.851  0.3588 -0.4081 -0.7893
  127MOL    C5733069   2.684   1.999   5.871  0.4204 -0.1185 -0.3094
  127MOL    C5833070   2.702   1.766   5.982  1.0712 -0.5642 -0.0939
  127MOL    H5933071   2.718   1.596   5.767  2.0062  0.4146 -1.4035
  127MOL    H6033072   2.545   1.608   5.718 -0.5723  1.7342  1.7683
  127MOL    H6133073   2.640   1.857   5.645  1.2208  0.1332  0.4632
  127MOL    H6233074   2.787   2.031   5.891  0.7004 -1.1209 -0.1038
  127MOL    H6333075   2.613   2.031   5.947  0.1198 -0.9743 -0.2196
  127MOL    H6433076   2.660   2.052   5.779  0.7043  0.8897  0.1983
  127MOL    H6533077   2.636   1.680   5.994 -0.3376  0.2839 -1.6716
  127MOL    H6633078   2.689   1.825   6.073  0.7743  1.7901 -1.6219
  127MOL    C6733079   2.847   1.709   5.990 -0.9362  0.2001  0.1885
  127MOL    C6833080   2.857   1.604   6.110 -0.2318 -0.3972  0.7283
  127MOL    C6933081   2.861   1.630   6.238 -0.0648  0.1938 -0.1370
  127MOL    C7033082   2.856   1.515   6.337 -0.2791  0.1850 -0.2339
  127MOL    C7133083   2.885   1.772   6.296  0.1949  0.4438  0.5018
  127MOL    H7233084   2.922   1.785   6.010 -0.5955 -0.0363 -0.1954
  127MOL    H7333085   2.877   1.654   5.901 -0.6911 -0.2975  0.5745
  127MOL    H7433086   2.842   1.504   6.072  0.0846  0.0140 -0.4996
  127MOL    H7533087   2.952   1.464   6.343 -0.7354 -0.7979 -1.1138
  127MOL    H7633088   2.785   1.441   6.302 -0.4845  0.8353 -1.1976
  127MOL    H7733089   2.819   1.543   6.436 -0.8976  0.6941 -0.6068
  127MOL    H7833090   2.801   1.784   6.365  0.0574 -0.3411  0.4790
  127MOL    H7933091   2.882   1.838   6.210 -0.4649 -0.7393 -0.3960
  127MOL    C8033092   3.020   1.784   6.365  0.3443 -0.2244  0.0746
  127MOL    C8133093   3.014   1.913   6.442 -0.1136 -0.0173 -0.1877
  127MOL    C8233094   2.998   1.938   6.573  0.3598 -0.9448 -1.0135
  127MOL    C8333095   2.986   1.827   6.682 -0.3970 -0.3148  0.4373
  127MOL    C8433096   3.004   2.083   6.618  0.1336 -0.2396 -0.1769
  127MOL    H8533097   3.096   1.787   6.287  1.9365 -2.0466  1.5053
  127MOL    H8633098   3.052   1.702   6.430 -0.3876  0.2051  0.9971
  127MOL    H8733099   3.018   2.003   6.381  1.1251  0.8882  1.1805
  127MOL    H8833100   2.912   1.836   6.762  1.0540 -0.8834  1.8697
  127MOL    H8933101   3.086   1.800   6.716  0.9140  1.7289 -1.6246
  127MOL    H9033102   2.939   1.745   6.628  1.3225 -0.5372 -0.7619
  127MOL    H9133103   3.052   2.148   6.545  1.6133 -0.1276  0.8724
  127MOL    H9233104   3.074   2.073   6.701  0.6765  1.0209 -0.4783
  127MOL    C9333105   2.866   2.133   6.659  0.0012 -0.3037 -0.1213
  127MOL    C9433106   2.869   2.283   6.700  0.1649  0.9256 -0.4447
  127MOL    C9533107   2.831   2.395   6.633 -0.0351 -0.3506 -0.2401
  127MOL    C9633108   2.848   2.536   6.700  0.5023  0.2914  0.4382
  127MOL    C9733109   2.790   2.392   6.481 -0.0500  0.0135 -0.4880
  127MOL    H9833110   2.822   2.081   6.743 -2.6437  1.9428 -0.0465
  127MOL    H9933111   2.814   2.118   6.564  0.9950 -1.0122 -0.5682
  127MOL   H10033112   2.904   2.301   6.800  0.2929  0.7058 -0.4482
  127MOL   H10133113   2.928   2.602   6.667  0.4646 -0.4069 -1.1169
  127MOL   H10233114   2.756   2.588   6.674 -0.3412 -0.5088  1.7553
  127MOL   H10333115   2.841   2.519   6.807 -1.8043  1.8238  0.5597
  127MOL   H10433116   2.704   2.459   6.472  0.0841  0.1469 -0.7594
  127MOL   H10533117   2.758   2.291   6.458  1.5844 -0.8006  0.7462
  127MOL   C10633118   2.900   2.417   6.383  0.0225  0.3708  0.2951
  127MOL   C10733119   2.838   2.442   6.240  0.8586  0.3348 -0.1074
  127MOL   C10833120   2.808   2.354   6.145 -0.2750 -0.2074 -0.2253
  127MOL   C10933121   2.843   2.206   6.144 -0.2495 -0.7687 -0.0155
  127MOL   C11033122   2.727   2.404   6.025  0.0657 -0.4223 -0.5897
  127MOL   H11133123   2.978   2.341   6.390  1.9791  2.1320 -1.5515
  127MOL   H11233124   2.945   2.512   6.411 -1.4954  0.9789  0.6902
  127MOL   H11333125   2.801   2.541   6.219  1.5626  0.3765 -1.1979
  127MOL   H11433126   2.911   2.186   6.228  0.5322 -0.5742 -0.5967
  127MOL   H11533127   2.747   2.154   6.143 -0.5990 -0.2022  1.6605
  127MOL   H11633128   2.890   2.190   6.047 -1.2661  2.0794 -1.0359
  127MOL   H11733129   2.773   2.365   5.935 -2.2017  0.8724 -2.3735
  127MOL   H11833130   2.723   2.513   6.014  2.6762 -0.3684 -1.1096
  127MOL   C11933131   2.579   2.356   6.031  0.1912  0.3117  0.7485
  127MOL   C12033132   2.503   2.425   6.145  0.6019  0.6618  0.0817
  127MOL   C12133133   2.429   2.365   6.241 -0.3502  0.2974 -0.1879
  127MOL   C12233134   2.364   2.449   6.344  0.9085 -0.1987  0.2677
  127MOL   C12333135   2.408   2.220   6.260 -0.4067  0.2702 -0.2376
  127MOL   H12433136   2.573   2.247   6.033 -0.2733  0.3452  1.7083
  127MOL   H12533137   2.548   2.372   5.928  1.8522  0.7326  0.2995
  127MOL   H12633138   2.520   2.532   6.150  0.2240  0.7555 -0.5106
  127MOL   H12733139   2.412   2.431   6.441 -0.3587  3.6712  1.6868
  127MOL   H12833140   2.264   2.409   6.358  1.0052 -0.2810  0.7497
  127MOL   H12933141   2.371   2.556   6.323 -0.7222 -0.2331 -0.4595
  127MOL   H13033142   2.420   2.186   6.363  0.2126 -0.8464 -0.6798
  127MOL   H13133143   2.488   2.173   6.203  0.1483 -1.3141  1.7932
  127MOL   C13233144   2.270   2.176   6.200 -0.6276  0.3177 -0.3849
  127MOL   C13333145   2.297   2.130   6.058  0.5641  0.0246 -0.1895
  127MOL   C13433146   2.274   2.212   5.951 -0.0764  0.4092  0.3137
  127MOL   C13533147   2.323   2.170   5.814 -0.1967  0.5820 -0.4017
  127MOL   C13633148   2.213   2.357   5.962  0.0144 -0.5547 -0.6389
  127MOL   H13733149   2.197   2.253   6.224  3.4241  3.9267  0.9005
  127MOL   H13833150   2.234   2.085   6.248  2.3852 -1.1979 -0.9109
  127MOL   H13933151   2.348   2.038   6.038 -0.7072 -0.3946 -1.6553
  127MOL   H14033152   2.243   2.193   5.743 -1.2259  2.2758  1.2359
  127MOL   H14133153   2.346   2.064   5.808 -0.7366  0.3618  1.0606
  127MOL   H14233154   2.408   2.233   5.789 -0.2944  1.5810  1.6298
  127MOL   H14333155   2.263   2.423   5.891  0.3892 -0.6526 -0.4656
  127MOL   H14433156   2.225   2.388   6.065  0.2223 -2.2754 -0.1208
  127MOL   C14533157   2.064   2.360   5.922 -0.5677  0.3074 -0.6750
  127MOL   C14633158   2.011   2.498   5.920  0.3119 -0.9687  0.6521
  127MOL   C14733159   1.902   2.546   5.987  0.4354  0.0107  0.0748
  127MOL   C14833160   1.874   2.700   5.970  0.2126  0.0039  0.4727
  127MOL   C14933161   1.811   2.464   6.081 -0.3779 -0.2090 -0.4019
  127MOL   H15033162   1.997   2.295   5.980 -0.2149  0.9837  0.4982
  127MOL   H15133163   2.059   2.313   5.824  2.3776 -0.4422 -0.5069
  127MOL   H15233164   2.050   2.574   5.854  0.2330 -0.8784  0.7096
  127MOL   H15333165   1.808   2.707   5.884  1.4404 -2.0978 -0.6795
  127MOL   H15433166   1.956   2.767   5.946 -1.0870  1.8444  1.0502
  127MOL   H15533167   1.822   2.744   6.055 -0.4574  0.6273 -0.2614
  127MOL   H15633168   1.816   2.509   6.180  1.2833  2.5541 -1.6592
  127MOL   H15733169   1.833   2.357   6.079 -0.6872 -0.3923  3.0372
  127MOL   C15833170   1.663   2.479   6.039  0.5488 -0.1992 -0.0216
  127MOL   C15933171   1.570   2.383   6.116  0.0965  0.5628 -0.6652
  127MOL   C16033172   1.503   2.393   6.232 -1.2106 -0.5201  0.0260
  127MOL   C16133173   1.522   2.510   6.330 -0.3140 -0.2563  0.1701
  127MOL   C16233174   1.399   2.303   6.283  0.2978  0.2118  0.4264
  127MOL   H16333175   1.655   2.470   5.931  1.6947  3.9619 -0.5535
  127MOL   H16433176   1.634   2.581   6.065 -1.9556 -1.3902  2.0853
  127MOL   H16533177   1.558   2.288   6.068  1.6473  0.1151 -0.1820
  127MOL   H16633178   1.620   2.553   6.311 -0.1453 -1.0545 -0.8110
  127MOL   H16733179   1.507   2.490   6.436  1.3200  0.5082  0.5574
  127MOL   H16833180   1.457   2.592   6.299  0.1915 -0.4148 -1.3734
  127MOL   H16933181   1.315   2.362   6.320  0.6546 -0.0208  1.6390
  127MOL   H17033182   1.440   2.257   6.373  0.8521  0.6259  0.3896
  127MOL   C17133183   1.360   2.182   6.199 -0.5612 -0.3253  0.4319
  127MOL   C17233184   1.459   2.063   6.202  0.2925  0.5941 -0.3940
  127MOL   C17333185   1.469   1.964   6.113  1.0015  0.1485 -0.3426
  127MOL   C17433186   1.403   1.972   5.973  0.2780 -0.4656  0.2798
  127MOL   C17533187   1.566   1.840   6.123 -0.0825 -0.4847 -0.0088
  127MOL   H17633188   1.336   2.209   6.096 -0.1554 -0.2358  0.3594
  127MOL   H17733189   1.263   2.156   6.240 -0.8609  0.0238 -0.0522
  127MOL   H17833190   1.520   2.058   6.291  1.4952  2.7123 -1.0334
  127MOL   H17933191   1.476   2.011   5.902 -1.0576  0.0679 -0.8246
  127MOL   H18033192   1.323   2.045   5.974  3.4271  3.1258  0.0690
  127MOL   H18133193   1.355   1.877   5.949 -1.9033  0.6912 -0.0194
  127MOL   H18233194   1.645   1.856   6.049 -1.1428 -0.9631 -1.2732
  127MOL   H18333195   1.516   1.748   6.092  4.7861 -2.3218 -3.0345
  127MOL   C18433196   1.627   1.818   6.256 -0.6066 -0.0406  0.0108
  127MOL   C18533197   1.722   1.697   6.244 -0.1088 -0.3704  0.4605
  127MOL   C18633198   1.688   1.569   6.258 -0.5240  0.5651  0.4734
  127MOL   C18733199   1.796   1.466   6.230  0.5961 -0.3533 -0.0446
  127MOL   C18833200   1.548   1.527   6.301  0.6596 -0.1883 -0.1177
  127MOL   H18933201   1.553   1.808   6.335 -1.2267  3.0366 -0.1425
  127MOL   H19033202   1.706   1.889   6.279 -0.5210  0.0844 -0.6403
  127MOL   H19133203   1.818   1.717   6.199  0.4262  0.9972  2.1559
  127MOL   H19233204   1.893   1.508   6.207  1.5080 -1.8563  0.9636
  127MOL   H19333205   1.771   1.400   6.147 -2.0294 -0.7980  1.0413
  127MOL   H19433206   1.807   1.413   6.325 -0.3480 -2.1280 -0.9052
  127MOL   H19533207   1.481   1.610   6.328  1.9045  0.9219 -0.3903
  127MOL   H19633208   1.566   1.485   6.400  2.0840 -0.0274 -0.3087
  127MOL   C19733209   1.467   1.435   6.200  0.1111 -0.0929  0.0566
  127MOL   C19833210   1.518   1.293   6.204  0.1979 -0.4083 -0.2881
  127MOL   C19933211   1.514   1.196   6.111 -0.6417  0.2130 -0.9539
  127MOL   C20033212   1.568   1.063   6.138 -0.2661 -0.7640 -0.5023
  127MOL   C20133213   1.448   1.214   5.974 -0.5658  0.6450 -0.2878
  127MOL   H20233214   1.465   1.478   6.100  0.8513 -0.8139 -0.2709
  127MOL   H20333215   1.364   1.426   6.235 -0.2729 -0.9385 -1.2631
  127MOL   H20433216   1.565   1.258   6.295  0.6949  2.4085  0.5959
  127MOL   H20533217   1.615   1.051   6.235 -1.5519  0.4390  0.2914
  127MOL   H20633218   1.646   1.034   6.068  0.3191 -2.2972  0.7802
  127MOL   H20733219   1.484   0.994   6.129 -0.5785 -0.2466 -1.7176
  127MOL   H20833220   1.380   1.299   5.979 -0.3214  0.7941  0.7862
  127MOL   H20933221   1.384   1.126   5.969 -0.4764  0.6564 -1.8619
  127MOL   C21033222   1.535   1.215   5.854  0.1733 -0.1489 -0.1619
  127MOL   C21133223   1.615   1.346   5.853 -0.2503 -0.1508  0.3940
  127MOL   C21233224   1.749   1.376   5.838 -0.1052  0.5946 -0.1217
  127MOL   C21333225   1.807   1.510   5.844  0.0509 -0.3187 -0.4646
  127MOL   C21433226   1.850   1.271   5.822 -0.5730 -0.1622 -0.4369
  127MOL   H21533227   1.481   1.200   5.761  0.4419 -0.9001 -0.2003
  127MOL   H21633228   1.607   1.135   5.869  1.8097  1.3660  0.3168
  127MOL   H21733229   1.562   1.440   5.858 -0.6991 -0.3481 -0.5350
  127MOL   H21833230   1.856   1.536   5.750  0.6028 -2.1317 -0.6993
  127MOL   H21933231   1.894   1.523   5.908  0.8369 -0.9367 -1.3866
  127MOL   H22033232   1.747   1.596   5.876  1.0484  0.1395  0.1799
  127MOL   H22133233   1.923   1.288   5.743 -0.7377 -1.3355 -0.8505
  127MOL   H22233234   1.797   1.186   5.778  1.0450  0.5141 -3.8870
  127MOL   C22333235   1.916   1.223   5.953  0.2381 -0.0721  0.0279
  127MOL   C22433236   2.041   1.141   5.926 -0.5099 -0.0871 -0.5196
  127MOL   C22533237   2.165   1.185   5.890 -0.5091  0.0512  0.1702
  127MOL   C22633238   2.276   1.080   5.853  0.2098  0.1154 -0.5882
  127MOL   C22733239   2.204   1.333   5.883  0.8941  0.0619 -0.4221
  127MOL   H22833240   1.847   1.178   6.024 -1.7112 -0.3580 -2.0036
  127MOL   H22933241   1.948   1.315   6.003  3.3440 -1.0832  0.0528
  127MOL   H23033242   2.027   1.035   5.908 -1.8957  0.2474 -1.5194
  127MOL   H23133243   2.290   1.078   5.745 -2.0615  3.8099 -1.0605
  127MOL   H23233244   2.240   0.981   5.879 -1.9915  0.9067 -0.4827
  127MOL   H23333245   2.370   1.106   5.901  0.0250 -1.9616  0.9509
  127MOL   H23433246   2.120   1.398   5.857  0.3269 -0.1828  0.7728
  127MOL   H23533247   2.271   1.352   5.800  1.3598  3.3488  0.6415
  127MOL   C23633248   2.268   1.393   6.011  0.4854 -0.2186 -0.3536
  127MOL   C23733249   2.283   1.544   6.003  0.3591 -0.0246  0.3832
  127MOL   C23833250   2.312   1.626   6.105  1.0836  0.3895 -0.0032
  127MOL   C23933251   2.330   1.773   6.083 -0.5349 -0.4826  0.3809
  127MOL   C24033252   2.330   1.575   6.244  0.1078 -0.0142  0.5751
  127MOL   H24133253   2.367   1.353   6.031  0.2320 -1.7180 -1.9511
  127MOL   H24233254   2.200   1.361   6.090  0.7367  0.3925  0.1128
  127MOL   H24333255   2.265   1.588   5.906  2.8639 -0.3120 -0.2324
  127MOL   H24433256   2.282   1.808   5.993  2.0451 -2.0596 -1.6891
  127MOL   H24533257   2.435   1.804   6.085 -0.1479 -1.7829  2.2412
  127MOL   H24633258   2.287   1.838   6.159 -0.3979 -0.2148  0.2283
  127MOL   H24733259   2.312   1.467   6.248 -1.8719  0.3619  2.5093
  127MOL   H24833260   2.247   1.612   6.303 -0.9854 -1.8081  0.2032
  127MOL   C24933261   2.469   1.601   6.299 -0.3331  0.3379  0.2101
  127MOL   C25033262   2.473   1.535   6.441  0.7106 -0.1525 -0.0801
  127MOL   C25133263   2.484   1.595   6.560 -0.0721  0.0861  0.2891
  127MOL   C25233264   2.487   1.496   6.679 -0.0620 -0.4397  0.3462
  127MOL   C25333265   2.498   1.741   6.571 -0.0972  0.5715  0.1843
  127MOL   H25433266   2.491   1.707   6.306 -0.9811  0.6411 -1.8520
  127MOL   H25533267   2.550   1.558   6.240  0.0471  0.5047  0.6095
  127MOL   H25633268   2.465   1.428   6.429  2.4616 -0.3943  0.8391
  127MOL   H25733269   2.424   1.537   6.759  0.2730  2.6809 -0.9050
  127MOL   H25833270   2.585   1.490   6.727  0.6748  1.6921 -0.8078
  127MOL   H25933271   2.458   1.394   6.652 -2.9076 -0.0602  1.7663
  127MOL   H26033272   2.600   1.767   6.542  0.9552  1.8194  4.6417
  127MOL   H26133273   2.469   1.774   6.671 -1.0436  0.8950 -0.1995
  127MOL   H26233274   2.435   1.786   6.495 -0.3168  0.3894  0.2591
  128MOL     C133275   5.820   2.173   0.123  0.1936 -0.6177  0.0317
  128MOL     C233276   5.912   2.158   0.002  0.1386 -0.1725 -0.0693
  128MOL     C333277   5.870   2.095   7.766 -0.5192  0.7678  0.3056
  128MOL     C433278   5.965   2.078   7.648 -1.1433  0.7333 -0.3967
  128MOL     C533279   5.736   2.035   7.745 -0.3633 -0.1296 -0.0851
  128MOL     H633280   5.830   2.274   0.164  3.1048 -0.6011 -0.6731
  128MOL     H733281   5.711   2.172   0.115  0.3888 -0.9039 -3.1540
  128MOL     H833282   6.014   2.190   0.015  0.8273 -1.1552 -2.7181
  128MOL     H933283   5.931   2.147   7.571 -2.8311  1.0111  0.5662
  128MOL    H1033284   5.964   1.977   7.606  2.1168  1.1717 -1.7101
  128MOL    H1133285   6.064   2.117   7.673 -0.8333  0.2612 -0.8782
  128MOL    H1233286   5.677   2.028   7.836  0.6713 -0.0268  0.5972
  128MOL    H1333287   5.747   1.930   7.714 -0.4296 -0.5665  1.3483
  128MOL    H1433288   5.849   2.103   0.201  0.9175  1.8176  1.9967
  128MOL    C1533289   5.660   2.107   7.630  0.6257  0.0342  0.6856
  128MOL    C1633290   5.522   2.049   7.600 -0.3661 -0.1722  0.1469
  128MOL    C1733291   5.407   2.121   7.592 -0.1846  0.4037  0.8219
  128MOL    C1833292   5.273   2.052   7.569  0.6027  0.1393  0.2670
  128MOL    C1933293   5.404   2.277   7.615 -0.2280 -0.3580 -0.3704
  128MOL    H2033294   5.711   2.101   7.534 -1.1732  0.4211 -0.3021
  128MOL    H2133295   5.659   2.214   7.652 -0.6649 -0.0040  0.8191
  128MOL    H2233296   5.518   1.941   7.593  2.6176 -0.3059 -0.0882
  128MOL    H2333297   5.210   2.063   7.657  2.8501  0.4845  1.8832
  128MOL    H2433298   5.285   1.944   7.564 -1.8927 -0.1657  0.6190
  128MOL    H2533299   5.215   2.074   7.480  1.6131  2.5985  0.1796
  128MOL    H2633300   5.312   2.309   7.566  0.9185  1.3407 -1.4221
  128MOL    H2733301   5.480   2.338   7.567 -0.0912 -1.0381 -1.0242
  128MOL    C2833302   5.398   2.317   7.763 -0.2501 -0.8575  0.3576
  128MOL    C2933303   5.378   2.464   7.782  0.5273 -0.7169 -0.0557
  128MOL    C3033304   5.435   2.542   7.869 -0.1615  1.3616  0.2076
  128MOL    C3133305   5.384   2.682   7.876 -0.5779 -0.1357  0.5213
  128MOL    C3233306   5.540   2.496   0.092 -0.0706 -0.5422 -0.3141
  128MOL    H3333307   5.486   2.275   7.811  1.4090  0.2769 -1.6008
  128MOL    H3433308   5.309   2.266   7.800 -0.4959 -1.2181 -0.6990
  128MOL    H3533309   5.314   2.507   7.707 -0.2926 -0.8359  0.5697
  128MOL    H3633310   5.459   2.754   0.032 -0.9518  0.0202  1.0110
  128MOL    H3733311   5.299   2.678   0.065 -1.1828  1.9197 -0.0664
  128MOL    H3833312   5.346   2.711   7.778  3.3003  0.2750 -0.9494
  128MOL    H3933313   5.612   2.578   0.084  1.3873 -1.8802 -1.0339
  128MOL    H4033314   5.597   2.412   0.053  0.0144 -0.1704 -1.0144
  128MOL    C4133315   5.490   2.482   0.237 -0.1638  0.0875 -0.0690
  128MOL    C4233316   5.602   2.436   0.335 -1.1416  0.0065 -0.0669
  128MOL    C4333317   5.677   2.514   0.413 -0.0581 -0.1768  0.4608
  128MOL    C4433318   5.791   2.463   0.502 -0.2124  0.1415 -0.0983
  128MOL    C4533319   5.639   2.663   0.434 -0.3343  0.4671  0.8438
  128MOL    H4633320   5.421   2.398   0.226 -0.9118  1.0605 -3.2534
  128MOL    H4733321   5.435   2.570   0.272  1.5259  0.3260  2.0749
  128MOL    H4833322   5.636   2.336   0.310  1.2958  1.0946 -1.2602
  128MOL    H4933323   5.885   2.518   0.492  0.9349 -1.4237  1.5213
  128MOL    H5033324   5.806   2.357   0.478 -0.2013 -0.2544  1.6098
  128MOL    H5133325   5.772   2.463   0.609  0.8994 -2.7735  0.1728
  128MOL    H5233326   5.536   2.687   0.408 -0.2579  0.1190  0.2344
  128MOL    H5333327   5.706   2.736   0.390  0.0194  0.5196  1.4543
  128MOL    C5433328   5.629   2.692   0.588 -0.2108  0.9242  0.5975
  128MOL    C5533329   5.549   2.809   0.646  0.1189  0.2721  0.2499
  128MOL    C5633330   5.601   2.902   0.720  0.2927  0.1232 -0.0111
  128MOL    C5733331   5.517   3.013   0.776  0.5163  0.7337  0.1612
  128MOL    C5833332   5.741   2.922   0.747 -0.3204  0.0569  0.2357
  128MOL    H5933333   5.730   2.686   0.627  0.8091  1.6135 -1.8145
  128MOL    H6033334   5.582   2.608   0.641  0.1834  0.9049  0.9146
  128MOL    H6133335   5.442   2.801   0.634  0.0922  0.2069  0.5189
  128MOL    H6233336   5.515   3.005   0.884 -0.9413 -1.1509  0.0237
  128MOL    H6333337   5.414   2.991   0.746  0.4464  0.5168  0.5654
  128MOL    H6433338   5.548   3.110   0.736  3.2420 -0.3098 -0.3596
  128MOL    H6533339   5.796   2.828   0.761 -2.6363 -1.5451 -1.1052
  128MOL    H6633340   5.739   2.965   0.847 -1.5604 -0.0627  0.2656
  128MOL    C6733341   5.820   3.014   0.646 -0.2043 -0.7873  0.0994
  128MOL    C6833342   5.921   3.112   0.710 -0.0493  0.6246 -0.5415
  128MOL    C6933343   5.925   3.247   0.708 -0.8530 -0.4560  1.2151
  128MOL    C7033344   6.035   3.311   0.790  0.4892  0.7335  0.4983
  128MOL    C7133345   5.830   3.334   0.624 -0.3283 -0.2143  0.0799
  128MOL    H7233346   5.752   3.078   0.589 -0.4764  0.0517  1.3445
  128MOL    H7333347   5.858   2.949   0.567  0.1329 -1.6043  0.9283
  128MOL    H7433348   5.999   3.063   0.766 -1.3183 -1.5918 -0.6789
  128MOL    H7533349   6.102   3.230   0.818 -0.0214  0.0626 -0.2025
  128MOL    H7633350   5.997   3.367   0.876  0.8705  2.1977 -0.2662
  128MOL    H7733351   6.079   3.384   0.721  1.3915 -0.7600 -0.5290
  128MOL    H7833352   5.773   3.282   0.548  1.1657 -0.9625 -0.5418
  128MOL    H7933353   5.897   3.395   0.563 -0.4539 -0.8348 -0.6888
  128MOL    C8033354   5.741   3.421   0.723  1.2570 -0.1253  0.2385
  128MOL    C8133355   5.657   3.518   0.649 -0.0265 -0.4449 -0.2887
  128MOL    C8233356   5.587   3.620   0.700  0.6747  0.2415 -0.1410
  128MOL    C8333357   5.571   3.646   0.855 -0.0162  0.1015  0.5371
  128MOL    C8433358   5.521   3.720   0.604  0.4029 -0.7726 -0.3428
  128MOL    H8533359   5.802   3.476   0.794  2.9564 -1.9043  0.1867
  128MOL    H8633360   5.675   3.355   0.778  1.2015 -0.0149  0.3045
  128MOL    H8733361   5.645   3.500   0.543  1.1223 -2.1918 -0.1341
  128MOL    H8833362   5.591   3.550   0.902  0.1828  0.4743  1.2210
  128MOL    H8933363   5.467   3.671   0.878 -0.2436 -1.1623  0.9056
  128MOL    H9033364   5.641   3.723   0.888  1.5458 -0.9253 -0.3065
  128MOL    H9133365   5.565   3.714   0.505 -1.6920 -0.0484 -1.3637
  128MOL    H9233366   5.540   3.823   0.636  0.8653 -0.3782 -1.8928
  128MOL    C9333367   5.369   3.701   0.598 -0.3176 -0.1626 -0.4868
  128MOL    C9433368   5.316   3.797   0.495  0.2796  0.4570  0.5664
  128MOL    C9533369   5.245   3.911   0.513 -0.0920  0.3330  0.1001
  128MOL    C9633370   5.186   3.989   0.399  0.2129  0.1031 -0.0982
  128MOL    C9733371   5.217   3.967   0.650  0.3282  0.4673  0.0199
  128MOL    H9833372   5.323   3.718   0.695  0.2180 -1.0103 -0.0699
  128MOL    H9933373   5.336   3.600   0.571 -1.5296 -0.2810  1.4167
  128MOL   H10033374   5.337   3.777   0.391 -3.2788 -1.5141  0.1671
  128MOL   H10133375   5.080   4.011   0.417 -0.6004 -1.7846 -2.3247
  128MOL   H10233376   5.240   4.082   0.384  1.1531 -0.4395 -0.0846
  128MOL   H10333377   5.186   3.934   0.305  0.6278 -0.2142  0.0843
  128MOL   H10433378   5.215   3.895   0.731  0.2507 -0.0765 -0.4657
  128MOL   H10533379   5.115   4.007   0.650  0.1272 -0.0504  0.4022
  128MOL   C10633380   5.313   4.075   0.686  0.2993  0.8615 -0.0060
  128MOL   C10733381   5.300   4.133   0.829  0.3347 -0.6017  0.0277
  128MOL   C10833382   5.380   4.116   0.933 -1.1531  0.6543 -0.2334
  128MOL   C10933383   5.508   4.038   0.933 -0.3019  0.4296  0.1148
  128MOL   C11033384   5.352   4.192   1.067 -0.6052  0.0873  0.6637
  128MOL   H11133385   5.311   4.167   0.628 -1.3837 -0.4418 -2.1029
  128MOL   H11233386   5.416   4.040   0.680  0.2482  0.8553 -0.8680
  128MOL   H11333387   5.209   4.187   0.848  1.3085  0.0501  3.0240
  128MOL   H11433388   5.506   3.929   0.934  0.4360  0.4129  0.4688
  128MOL   H11533389   5.574   4.056   0.849 -0.9623 -0.3253 -0.5758
  128MOL   H11633390   5.562   4.048   1.028  1.9198  0.7885 -1.1526
  128MOL   H11733391   5.278   4.268   1.043 -0.6071 -0.2135 -0.3308
  128MOL   H11833392   5.447   4.230   1.104 -0.4041 -0.2271  0.4734
  128MOL   C11933393   5.291   4.095   1.172 -0.3230 -0.5907  0.6327
  128MOL   C12033394   5.259   4.159   1.299 -0.3956  0.5049  0.1955
  128MOL   C12133395   5.316   4.134   1.415  0.5927 -0.8361 -0.4112
  128MOL   C12233396   5.270   4.206   1.541  0.1068  0.6054  0.5089
  128MOL   C12333397   5.423   4.031   1.446  0.8753 -0.3071  0.2346
  128MOL   H12433398   5.355   4.008   1.187  0.3552 -0.4967 -1.6545
  128MOL   H12533399   5.200   4.046   1.136  0.5450 -1.5824 -0.2271
  128MOL   H12633400   5.196   4.247   1.296 -1.4183 -0.2475 -0.9628
  128MOL   H12733401   5.363   4.237   1.588  1.3531 -0.6301 -1.0560
  128MOL   H12833402   5.214   4.143   1.611 -0.5489 -0.9987 -1.3909
  128MOL   H12933403   5.221   4.298   1.509 -0.8840  0.6984  2.2496
  128MOL   H13033404   5.417   3.952   1.371 -1.7918  0.0591  0.0125
  128MOL   H13133405   5.389   3.983   1.538  0.2918  3.4908  2.0608
  128MOL   C13233406   5.563   4.086   1.464  0.3498 -0.8480  0.4236
  128MOL   C13333407   5.668   3.992   1.509 -0.4825 -0.2223 -0.0493
  128MOL   C13433408   5.707   3.957   1.631  0.5046  1.2679 -0.1674
  128MOL   C13533409   5.810   3.845   1.661 -1.1489 -0.4733 -0.1962
  128MOL   C13633410   5.646   4.009   1.763 -0.4607 -0.3899 -0.3012
  128MOL   H13733411   5.552   4.161   1.541  0.2136 -0.7226  0.2838
  128MOL   H13833412   5.583   4.139   1.371  0.5377 -0.8937  0.4380
  128MOL   H13933413   5.709   3.939   1.424  0.1592 -1.9036  1.2982
  128MOL   H14033414   5.911   3.886   1.660 -0.5168 -1.7683  3.3040
  128MOL   H14133415   5.808   3.772   1.580 -0.6343 -0.8816  0.1595
  128MOL   H14233416   5.788   3.798   1.756 -2.3654  0.2197 -0.1244
  128MOL   H14333417   5.613   3.917   1.813 -1.5878 -0.1637 -0.6101
  128MOL   H14433418   5.555   4.064   1.740  1.0602  2.3779  0.0899
  128MOL   C14533419   5.760   4.080   1.844  0.3003 -0.5927 -0.3742
  128MOL   C14633420   5.707   4.147   1.967 -0.0130  0.3107  0.2956
  128MOL   C14733421   5.697   4.280   1.988  0.5037 -0.2420 -0.1185
  128MOL   C14833422   5.659   4.336   2.125 -0.5796  0.4890 -0.5373
  128MOL   C14933423   5.720   4.385   1.877  0.4734  0.7538  0.3475
  128MOL   H15033424   5.824   4.155   1.797  2.5004 -2.4299 -0.3990
  128MOL   H15133425   5.835   4.006   1.874 -1.0369 -1.6792  0.3171
  128MOL   H15233426   5.682   4.076   2.045 -1.1495  0.6930  0.2863
  128MOL   H15333427   5.605   4.429   2.107 -1.3181  0.0273 -0.7042
  128MOL   H15433428   5.745   4.354   2.190 -0.0388 -1.6304 -0.6257
  128MOL   H15533429   5.603   4.263   2.183 -0.1707 -0.4073 -1.2560
  128MOL   H15633430   5.823   4.376   1.842  0.1636 -3.3373  0.3328
  128MOL   H15733431   5.712   4.485   1.919 -0.8932 -0.1434  2.2644
  128MOL   C15833432   5.611   4.374   1.776 -0.4207 -0.6626  0.0988
  128MOL   C15933433   5.553   4.510   1.738  1.1472 -0.6345 -1.0797
  128MOL   C16033434   5.556   4.571   1.614  0.1504  0.2765 -0.0504
  128MOL   C16133435   5.628   4.511   1.492  0.3233  0.3911  0.3175
  128MOL   C16233436   5.497   4.712   1.588  0.3696 -0.8124 -0.6134
  128MOL   H16333437   5.526   4.312   1.806  1.0457 -0.6641  4.6032
  128MOL   H16433438   5.644   4.316   1.690  0.6804  3.2226 -2.1868
  128MOL   H16533439   5.509   4.569   1.817  0.7997  0.7557 -2.2897
  128MOL   H16633440   5.623   4.402   1.494  0.0746  0.3964 -0.0471
  128MOL   H16733441   5.733   4.541   1.489  0.2388  0.7633  0.9887
  128MOL   H16833442   5.573   4.535   1.401  3.1517 -2.8058 -2.3433
  128MOL   H16933443   5.568   4.767   1.526 -0.9126  1.7190  0.0781
  128MOL   H17033444   5.484   4.763   1.684 -0.7770 -1.8135 -0.2192
  128MOL   C17133445   5.359   4.697   1.521  0.7656  0.5179  0.1377
  128MOL   C17233446   5.265   4.613   1.608  0.2614  0.3042 -0.1604
  128MOL   C17333447   5.142   4.647   1.652 -0.1993  0.9953 -0.3992
  128MOL   C17433448   5.077   4.779   1.627  0.4127 -0.3490  0.3631
  128MOL   C17533449   5.065   4.546   1.734  0.0484  0.3334 -0.4520
  128MOL   H17633450   5.380   4.639   1.431  1.5737 -0.0625  0.6960
  128MOL   H17733451   5.315   4.789   1.481  0.1580  0.0302 -0.3253
  128MOL   H17833452   5.303   4.513   1.619  1.5751  0.5032 -2.6319
  128MOL   H17933453   5.015   4.789   1.538 -1.2853  1.5550  1.7179
  128MOL   H18033454   5.153   4.857   1.618 -3.1763  3.1016 -1.4931
  128MOL   H18133455   5.016   4.810   1.712 -1.6637 -0.8809 -0.8975
  128MOL   H18233456   5.050   4.580   1.837  1.4723  2.1184 -0.8251
  128MOL   H18333457   5.118   4.451   1.728  0.6911  0.5666  1.2407
  128MOL   C18433458   4.922   4.519   1.679  0.0087  0.4733 -0.0363
  128MOL   C18533459   4.913   4.439   1.551 -0.0057  0.0441 -0.3768
  128MOL   C18633460   4.882   4.309   1.524  0.7345 -0.9075 -0.0406
  128MOL   C18733461   4.865   4.261   1.382 -0.1642  0.3160 -0.0177
  128MOL   C18833462   4.870   4.202   1.637  0.6782  0.2962 -0.1798
  128MOL   H18933463   4.856   4.606   1.674 -0.9170 -0.2552 -0.6453
  128MOL   H19033464   4.870   4.462   1.756  0.2356  0.3922  0.0577
  128MOL   H19133465   4.912   4.499   1.462 -1.4172 -1.0807 -1.1515
  128MOL   H19233466   4.862   4.345   1.313 -0.2801  1.3833  1.2492
  128MOL   H19333467   4.775   4.200   1.378  0.1896 -0.4234  2.3366
  128MOL   H19433468   4.939   4.185   1.360 -2.6367 -1.6384 -1.9363
  128MOL   H19533469   4.919   4.236   1.728  1.6900  1.3927 -1.1094
  128MOL   H19633470   4.909   4.104   1.609  1.2306 -0.2011  2.2063
  128MOL   C19733471   4.725   4.171   1.666 -0.1847  0.5517 -0.2571
  128MOL   C19833472   4.699   4.068   1.774 -0.1711 -0.4353  0.1291
  128MOL   C19933473   4.588   4.062   1.854  0.4675  0.1246 -0.2321
  128MOL   C20033474   4.562   3.948   1.956 -0.6395  0.5483  0.5461
  128MOL   C20133475   4.469   4.167   1.851 -0.0496  0.8278  0.1263
  128MOL   H20233476   4.687   4.131   1.572  0.3767 -1.3042  0.2846
  128MOL   H20333477   4.665   4.261   1.680 -1.2547 -0.1916 -0.0286
  128MOL   H20433478   4.769   3.986   1.781 -0.4791 -0.7815 -0.7463
  128MOL   H20533479   4.575   3.985   2.057  0.0789  0.8834  0.3335
  128MOL   H20633480   4.630   3.865   1.935  0.4280  1.3498  0.8067
  128MOL   H20733481   4.461   3.919   1.926  0.4679 -2.0537 -0.8089
  128MOL   H20833482   4.376   4.109   1.848 -0.1279  0.9762 -0.2801
  128MOL   H20933483   4.462   4.224   1.759  0.9801 -3.2055 -2.5757
  128MOL   C21033484   4.478   4.267   1.965 -0.8559 -0.4279  0.1531
  128MOL   C21133485   4.356   4.363   1.982  1.3373  0.1416 -0.0423
  128MOL   C21233486   4.348   4.491   1.947 -0.4854  0.5486 -1.3318
  128MOL   C21333487   4.220   4.571   1.962 -0.1477 -0.1239  0.3379
  128MOL   C21433488   4.460   4.568   1.886  0.7701 -0.3789  0.9916
  128MOL   H21533489   4.571   4.323   1.966  0.8779 -3.1689 -1.2828
  128MOL   H21633490   4.468   4.210   2.056 -1.1285  1.3022  1.2331
  128MOL   H21733491   4.268   4.321   2.029  0.5927  1.9892  0.2553
  128MOL   H21833492   4.170   4.590   1.867 -0.4889  1.1155  0.7573
  128MOL   H21933493   4.236   4.666   2.012  2.1466  0.5139 -1.5218
  128MOL   H22033494   4.163   4.512   2.034  0.9564 -0.8892  0.5961
  128MOL   H22133495   4.423   4.624   1.800 -1.5757  1.2794  2.9928
  128MOL   H22233496   4.536   4.498   1.852 -0.3898 -1.9622  1.6010
  128MOL   C22333497   4.533   4.673   1.969 -0.1502  0.0483 -0.3391
  128MOL   C22433498   4.626   4.755   1.881  0.0303 -0.1802  0.1993
  128MOL   C22533499   4.668   4.881   1.903 -0.0966 -0.1939  0.3498
  128MOL   C22633500   4.772   4.934   1.816  0.8920 -0.0449 -0.4293
  128MOL   C22733501   4.626   4.969   2.015 -0.0430  0.2475 -0.0254
  128MOL   H22833502   4.586   4.622   2.049 -1.1196  0.2478  0.4339
  128MOL   H22933503   4.450   4.725   2.017  0.2155  0.8984 -0.6124
  128MOL   H23033504   4.673   4.698   1.802 -0.1337 -1.0365  0.7256
  128MOL   H23133505   4.748   5.039   1.807 -0.6847 -0.4355 -0.8527
  128MOL   H23233506   4.777   4.897   1.713  0.8201 -2.5313  0.4184
  128MOL   H23333507   4.869   4.933   1.866  0.5842 -0.8902  0.1712
  128MOL   H23433508   4.715   5.022   2.048  1.7290 -2.0451 -0.9673
  128MOL   H23533509   4.602   4.905   2.100 -0.0330 -0.0649 -0.2582
  128MOL   C23633510   4.508   5.064   1.984 -0.9436  0.5731  0.2592
  128MOL   C23733511   4.526   5.146   1.852 -0.7084 -0.0940 -0.1448
  128MOL   C23833512   4.444   5.127   1.737  0.1836  0.0883 -0.7183
  128MOL   C23933513   4.457   5.214   1.612  0.3345 -0.1818  0.4028
  128MOL   C24033514   4.335   5.020   1.718 -0.1001  0.3975  0.0101
  128MOL   H24133515   4.509   5.141   2.061  0.2985 -0.5468  1.3947
  128MOL   H24233516   4.412   5.012   1.984 -1.6305  1.8054  0.2268
  128MOL   H24333517   4.598   5.226   1.858 -0.4161 -0.4154  0.8907
  128MOL   H24433518   4.524   5.293   1.645  0.6421 -0.4884  0.5122
  128MOL   H24533519   4.360   5.260   1.594  0.6451  0.8867  1.4393
  128MOL   H24633520   4.500   5.175   1.519 -1.4011  0.6665 -0.7874
  128MOL   H24733521   4.346   4.954   1.805 -0.3833 -0.2144 -0.4175
  128MOL   H24833522   4.363   4.954   1.636  0.7108  0.1169  0.5044
  128MOL   C24933523   4.196   5.073   1.709 -0.0280  0.9400 -0.3184
  128MOL   C25033524   4.093   4.970   1.726 -0.3547  0.6967  0.2059
  128MOL   C25133525   4.058   4.920   1.852  0.1848  0.1538  0.4406
  128MOL   C25233526   3.955   4.819   1.858  0.0624  0.1027 -0.1857
  128MOL   C25333527   4.108   4.969   1.985  0.2688  0.0196  0.0191
  128MOL   H25433528   4.174   5.121   1.614 -4.2595  1.6158  0.9254
  128MOL   H25533529   4.193   5.158   1.777  2.8140 -0.5894  1.8442
  128MOL   H25633530   4.048   4.935   1.634  1.8814 -1.4693 -0.0963
  128MOL   H25733531   3.925   4.774   1.764 -1.6556  1.0938 -0.1290
  128MOL   H25833532   3.861   4.849   1.905  0.1944 -0.4665  0.4593
  128MOL   H25933533   3.990   4.731   1.912  0.1436  0.4112  0.2721
  128MOL   H26033534   4.029   5.025   2.035 -0.9870 -1.0640 -0.7051
  128MOL   H26133535   4.192   5.036   1.971  2.0491 -2.5380 -1.9911
  128MOL   H26233536   4.146   4.881   2.038  0.6917 -0.3093 -0.8332
  129MOL     C133537   6.846   5.667   0.343 -0.4142  0.7057  0.1088
  129MOL     C233538   6.742   5.775   0.358  0.1711  0.4182 -0.3616
  129MOL     C333539   6.669   5.802   0.469 -0.0936 -0.0122  0.3002
  129MOL     C433540   6.588   5.922   0.476  0.0208  0.1137 -0.3969
  129MOL     C533541   6.693   5.732   0.594 -0.0867  0.1931 -0.5394
  129MOL     H633542   6.857   5.628   0.242 -1.6481 -0.2158  0.3136
  129MOL     H733543   6.944   5.703   0.374  0.8252 -2.6585  0.3723
  129MOL     H833544   6.734   5.838   0.270  1.2099  0.6029 -0.3309
  129MOL     H933545   6.495   5.892   0.525 -1.0499 -0.1327 -2.5121
  129MOL    H1033546   6.578   5.950   0.371  0.9823  0.5930 -0.3595
  129MOL    H1133547   6.651   5.998   0.523  0.3067 -1.4646  1.8728
  129MOL    H1233548   6.699   5.800   0.679 -2.9705  0.8940 -0.8413
  129MOL    H1333549   6.791   5.683   0.592  0.0564  0.2821  1.9818
  129MOL    H1433550   6.828   5.586   0.414  2.6454 -0.4726 -0.3886
  129MOL    C1533551   6.581   5.627   0.634 -0.2168 -0.8075 -0.6702
  129MOL    C1633552   6.643   5.554   0.754  0.7678  0.0834  0.0622
  129MOL    C1733553   6.603   5.546   0.878  0.3963  0.1409 -0.0770
  129MOL    C1833554   6.678   5.455   0.976  0.7815 -0.1891 -1.2359
  129MOL    C1933555   6.465   5.613   0.917 -0.7727  0.5228 -0.8511
  129MOL    H2033556   6.567   5.556   0.552  0.2498 -3.7755  1.7337
  129MOL    H2133557   6.479   5.663   0.648  0.9117  2.1736  0.2919
  129MOL    H2233558   6.732   5.500   0.723  3.0519  2.5767  1.9992
  129MOL    H2333559   6.774   5.427   0.931  1.2441 -0.5279 -0.0439
  129MOL    H2433560   6.624   5.363   0.997 -0.0767  0.4268 -0.7360
  129MOL    H2533561   6.698   5.489   1.077  0.9982  0.8914 -1.6376
  129MOL    H2633562   6.373   5.565   0.884 -2.3511  3.4372 -0.8170
  129MOL    H2733563   6.468   5.707   0.862 -0.4823  0.8404 -0.2979
  129MOL    C2833564   6.453   5.650   1.072 -0.5100 -0.7520  0.3590
  129MOL    C2933565   6.344   5.759   1.100 -0.1248  0.2069 -0.2903
  129MOL    C3033566   6.239   5.738   1.185 -0.0880  0.0299 -1.0974
  129MOL    C3133567   6.135   5.847   1.199 -0.1294  0.7687 -0.1887
  129MOL    C3233568   6.213   5.612   1.268 -0.3936 -0.3158 -0.6463
  129MOL    H3333569   6.547   5.697   1.099 -0.3666 -0.9398  0.1932
  129MOL    H3433570   6.434   5.566   1.139 -0.1694  0.5274  2.0816
  129MOL    H3533571   6.356   5.855   1.052  1.8744  0.8363  1.4034
  129MOL    H3633572   6.121   5.896   1.102 -0.1855  0.3747 -0.3837
  129MOL    H3733573   6.182   5.918   1.267  3.3489 -2.5075  1.0038
  129MOL    H3833574   6.037   5.819   1.239  0.6903  0.0037  1.3267
  129MOL    H3933575   6.167   5.649   1.360 -0.7713 -0.2115 -0.8750
  129MOL    H4033576   6.297   5.552   1.302 -1.9396 -3.0016 -1.3675
  129MOL    C4133577   6.110   5.515   1.196 -0.4399  0.4676  0.4378
  129MOL    C4233578   6.154   5.473   1.054  0.0974 -0.2313 -0.1034
  129MOL    C4333579   6.208   5.354   1.021  0.3805  0.1362  0.2807
  129MOL    C4433580   6.237   5.317   0.876 -0.6279 -0.4050 -0.0383
  129MOL    C4533581   6.247   5.243   1.115  0.4423  0.2918  0.2095
  129MOL    H4633582   6.013   5.564   1.183 -1.1957 -1.1301 -0.1273
  129MOL    H4733583   6.086   5.422   1.248 -0.0533  0.6403  0.9215
  129MOL    H4833584   6.137   5.554   0.986  0.5688  0.3800  0.5035
  129MOL    H4933585   6.207   5.217   0.843  2.1177 -2.0538  2.2548
  129MOL    H5033586   6.342   5.330   0.853 -0.5184  0.5402  0.9412
  129MOL    H5133587   6.196   5.388   0.804 -0.3136  2.5878  2.6140
  129MOL    H5233588   6.309   5.176   1.054  1.5945 -0.3264  2.0335
  129MOL    H5333589   6.157   5.187   1.139  0.5432 -0.2985 -0.7409
  129MOL    C5433590   6.317   5.281   1.242  0.4034 -0.3743 -0.3051
  129MOL    C5533591   6.410   5.177   1.296 -0.1007 -0.3279 -0.7409
  129MOL    C5633592   6.427   5.151   1.430 -0.0866  0.4203  0.3296
  129MOL    C5733593   6.513   5.028   1.471 -0.0952 -0.8305  1.0564
  129MOL    C5833594   6.344   5.207   1.547 -0.2923  0.4221  0.0014
  129MOL    H5933595   6.243   5.326   1.308  0.0806 -0.3264 -0.6969
  129MOL    H6033596   6.394   5.357   1.229 -2.3348  2.7535  1.0554
  129MOL    H6133597   6.466   5.130   1.218 -0.3062 -1.5919 -0.1382
  129MOL    H6233598   6.588   5.000   1.397  0.6444  0.2308  1.3783
  129MOL    H6333599   6.451   4.940   1.486 -0.5612 -0.4795  1.1774
  129MOL    H6433600   6.573   5.040   1.561 -0.5084 -0.5801  1.2989
  129MOL    H6533601   6.295   5.302   1.524 -1.4352 -0.3602 -0.8275
  129MOL    H6633602   6.415   5.224   1.628 -0.6269 -4.2614  1.4048
  129MOL    C6733603   6.237   5.105   1.591  0.3809 -0.6679  0.3754
  129MOL    C6833604   6.124   5.093   1.488  0.5193 -0.0910 -0.1580
  129MOL    C6933605   6.002   5.155   1.477 -0.2336 -0.2851  0.2767
  129MOL    C7033606   5.911   5.134   1.362  0.1604  0.2005  0.0993
  129MOL    C7133607   5.954   5.260   1.574  0.0114 -0.7840  0.6286
  129MOL    H7233608   6.187   5.138   1.683 -1.0283 -1.0788 -0.2266
  129MOL    H7333609   6.284   5.010   1.614 -2.1513 -1.3530  3.0825
  129MOL    H7433610   6.155   5.028   1.408 -0.4905 -0.1252 -0.5242
  129MOL    H7533611   5.809   5.106   1.385  0.6066 -0.6184  1.1003
  129MOL    H7633612   5.954   5.059   1.296  0.6447  1.0267 -0.5417
  129MOL    H7733613   5.898   5.224   1.302  1.8394 -0.7326 -1.7339
  129MOL    H7833614   5.999   5.237   1.671  1.7123 -1.6382 -0.3353
  129MOL    H7933615   5.851   5.233   1.598 -0.0527 -1.9163 -0.8413
  129MOL    C8033616   5.978   5.404   1.526  0.8058  0.7129  0.3389
  129MOL    C8133617   5.941   5.517   1.626  0.4481 -0.6681 -0.1577
  129MOL    C8233618   5.914   5.643   1.602 -0.2908 -0.2484 -0.4621
  129MOL    C8333619   5.914   5.700   1.467  0.3433 -0.6029 -0.0616
  129MOL    C8433620   5.890   5.737   1.716 -0.0939  0.4393  0.0411
  129MOL    H8533621   5.919   5.429   1.437 -0.8510  0.9856  1.4891
  129MOL    H8633622   6.079   5.420   1.488 -0.5471  2.9897 -2.4879
  129MOL    H8733623   5.949   5.488   1.730  0.2494  2.7134  0.8496
  129MOL    H8833624   5.830   5.769   1.461  0.9467  0.2518  0.9431
  129MOL    H8933625   5.911   5.634   1.381 -2.5408  0.3468 -0.7213
  129MOL    H9033626   6.006   5.758   1.452  0.2078 -0.2340  0.5095
  129MOL    H9133627   5.975   5.804   1.713 -0.3728  0.8587  1.1298
  129MOL    H9233628   5.901   5.701   1.818 -0.8509 -0.4463 -0.1822
  129MOL    C9333629   5.762   5.819   1.700 -0.6414 -0.0687 -0.2900
  129MOL    C9433630   5.759   5.911   1.825 -0.6338  0.6671 -0.3611
  129MOL    C9533631   5.683   5.893   1.932 -0.3100 -0.0718  0.1715
  129MOL    C9633632   5.695   6.004   2.039 -0.3252  0.7177  0.5677
  129MOL    C9733633   5.570   5.792   1.942  0.3273 -0.2475  0.3142
  129MOL    H9833634   5.670   5.763   1.683  0.0178 -1.0223 -0.7661
  129MOL    H9933635   5.773   5.887   1.615 -3.1604 -2.5802 -2.7199
  129MOL   H10033636   5.835   5.988   1.825 -2.2852  2.3266  0.5584
  129MOL   H10133637   5.779   6.069   2.017 -0.8607  1.6378  1.2120
  129MOL   H10233638   5.596   6.050   2.038 -0.7088 -0.1143 -0.7267
  129MOL   H10333639   5.708   5.950   2.133  2.2459 -1.4003 -0.9199
  129MOL   H10433640   5.569   5.757   2.045 -0.6686 -1.6347 -0.1487
  129MOL   H10533641   5.607   5.703   1.891 -0.7073 -1.2000  1.1932
  129MOL   C10633642   5.430   5.837   1.888  0.0067  0.5119 -0.0972
  129MOL   C10733643   5.326   5.726   1.919 -0.4705  0.4090 -0.3249
  129MOL   C10833644   5.253   5.706   2.034  0.0307 -1.0239  0.1855
  129MOL   C10933645   5.277   5.805   2.152 -0.9589 -0.0103  0.0588
  129MOL   C11033646   5.167   5.585   2.055  0.5918  0.5121  0.3908
  129MOL   H11133647   5.434   5.853   1.781 -1.8258  0.5441 -0.1750
  129MOL   H11233648   5.412   5.933   1.937 -0.3262 -0.7561  2.3589
  129MOL   H11333649   5.319   5.647   1.847  2.2321 -0.3487  0.1945
  129MOL   H11433650   5.307   5.905   2.121 -0.6907  0.2922  1.2637
  129MOL   H11533651   5.187   5.822   2.210  0.5432  0.6073  2.2856
  129MOL   H11633652   5.351   5.772   2.225 -0.2001 -1.3920 -1.2888
  129MOL   H11733653   5.197   5.527   2.143  0.7886 -1.1756 -0.7683
  129MOL   H11833654   5.183   5.510   1.977 -0.7201 -0.7549  1.3026
  129MOL   C11933655   5.019   5.610   2.065  0.0460  0.2230 -0.0782
  129MOL   C12033656   4.929   5.486   2.068 -0.1991  0.9238  0.5460
  129MOL   C12133657   4.803   5.480   2.120 -0.1850  0.3373 -0.0309
  129MOL   C12233658   4.718   5.358   2.103  1.2238 -0.0618 -0.5413
  129MOL   C12333659   4.735   5.597   2.193 -0.0870  0.8619  0.0892
  129MOL   H12433660   4.997   5.661   1.972 -1.2351 -0.6700 -0.2844
  129MOL   H12533661   4.994   5.677   2.148 -0.9489 -1.0727  0.6904
  129MOL   H12633662   4.969   5.394   2.028 -1.2642  0.6844 -0.0032
  129MOL   H12733663   4.685   5.314   2.197  1.5534  1.4000  0.2636
  129MOL   H12833664   4.777   5.280   2.053 -0.3662 -1.1027 -0.8220
  129MOL   H12933665   4.634   5.389   2.041  0.6143 -1.5638 -0.5031
  129MOL   H13033666   4.642   5.627   2.145 -0.1459  0.7740  0.1490
  129MOL   H13133667   4.789   5.689   2.171  1.0391  0.3181  0.5316
  129MOL   C13233668   4.721   5.581   2.343 -0.1709 -0.4825  0.5189
  129MOL   C13333669   4.664   5.706   2.410 -0.7168  0.3905 -0.0795
  129MOL   C13433670   4.731   5.799   2.479  0.4493  0.1795 -0.5311
  129MOL   C13533671   4.653   5.898   2.558 -0.3819 -0.0816  0.0849
  129MOL   C13633672   4.876   5.793   2.496 -0.4973  0.0572 -0.1584
  129MOL   H13733673   4.806   5.544   2.400 -1.4669 -0.4671  2.4962
  129MOL   H13833674   4.655   5.498   2.367 -0.1153 -0.8681 -0.6137
  129MOL   H13933675   4.557   5.712   2.397 -0.6505  1.7435 -0.1018
  129MOL   H14033676   4.656   5.884   2.666  1.2544  2.0009  0.3334
  129MOL   H14133677   4.549   5.908   2.527  0.1693  1.5486 -1.2727
  129MOL   H14233678   4.693   5.998   2.543 -0.0788 -0.0053  1.3720
  129MOL   H14333679   4.907   5.897   2.501  0.9394 -0.3882  0.2494
  129MOL   H14433680   4.919   5.747   2.408  1.4859  1.6712 -0.0649
  129MOL   C14533681   4.912   5.721   2.622 -0.1755  0.7504  0.1269
  129MOL   C14633682   5.057   5.708   2.645 -0.3152  0.1966 -0.1870
  129MOL   C14733683   5.134   5.603   2.616  0.3425  0.8459  0.4559
  129MOL   C14833684   5.284   5.620   2.634  0.3004  0.0140 -0.8631
  129MOL   C14933685   5.086   5.469   2.552  0.1388  0.6888  0.4535
  129MOL   H15033686   4.870   5.620   2.628  0.2516  0.5677  0.0206
  129MOL   H15133687   4.869   5.776   2.706 -0.1371 -0.8929  1.2527
  129MOL   H15233688   5.088   5.806   2.677 -0.7426  1.1276 -2.4900
  129MOL   H15333689   5.322   5.636   2.533 -1.5093 -0.2131 -1.6006
  129MOL   H15433690   5.333   5.526   2.658  0.6805 -0.2537 -2.6418
  129MOL   H15533691   5.312   5.693   2.709  0.0882 -0.8348  0.0523
  129MOL   H15633692   4.979   5.449   2.559  0.6818 -1.9561  2.0664
  129MOL   H15733693   5.133   5.381   2.597  0.4028  0.8585  0.5139
  129MOL   C15833694   5.114   5.458   2.396 -0.4349  1.1731  0.0173
  129MOL   C15933695   5.066   5.329   2.330 -0.2999 -1.0016  0.1143
  129MOL   C16033696   5.136   5.223   2.287  0.3634 -0.2364  0.2310
  129MOL   C16133697   5.284   5.215   2.288 -0.2571  0.4992  0.2999
  129MOL   C16233698   5.063   5.104   2.235  0.4969 -0.7324  0.3294
  129MOL   H16333699   5.221   5.459   2.375 -0.8606 -0.3989 -2.3849
  129MOL   H16433700   5.079   5.544   2.340 -1.3484  0.7150 -0.1239
  129MOL   H16533701   4.959   5.321   2.339 -0.5619  1.3854 -0.5842
  129MOL   H16633702   5.336   5.243   2.380  0.0771  0.4727  0.1178
  129MOL   H16733703   5.320   5.286   2.214  0.9207 -0.4341 -0.0417
  129MOL   H16833704   5.318   5.112   2.282  0.7853  0.7687  1.3162
  129MOL   H16933705   4.957   5.108   2.259  0.7703  0.5484  1.4207
  129MOL   H17033706   5.104   5.020   2.291  1.6331  0.1527  0.8720
  129MOL   C17133707   5.049   5.094   2.081 -0.1783 -0.3783 -0.1937
  129MOL   C17233708   5.172   5.043   2.009  0.5664 -0.2411  0.1504
  129MOL   C17333709   5.205   4.915   1.994 -0.0608 -0.7317  0.8564
  129MOL   C17433710   5.136   4.802   2.055 -0.6132 -0.0174 -0.3617
  129MOL   C17533711   5.342   4.887   1.938  0.0067  0.4405 -0.6513
  129MOL   H17633712   5.022   5.191   2.039  0.7227  0.7799  1.8421
  129MOL   H17733713   4.964   5.030   2.056 -0.5733  0.1878 -0.2982
  129MOL   H17833714   5.234   5.126   1.980 -1.3264  1.2682  0.2696
  129MOL   H17933715   5.155   4.710   1.998  1.8497  0.4973 -0.4370
  129MOL   H18033716   5.028   4.808   2.064 -0.3314  2.1209  2.0722
  129MOL   H18133717   5.172   4.788   2.157 -2.0030 -0.5392  0.0777
  129MOL   H18233718   5.364   4.971   1.873  0.9446  1.0644  0.4473
  129MOL   H18333719   5.339   4.792   1.884  0.1718  0.8124 -1.3089
  129MOL   C18433720   5.454   4.904   2.048  0.1833 -0.7341 -0.6893
  129MOL   C18533721   5.587   4.875   1.979 -0.5243  0.1744  0.5652
  129MOL   C18633722   5.701   4.833   2.033 -0.3597 -1.1899  0.3437
  129MOL   C18733723   5.816   4.791   1.953 -0.1647  0.8552  0.0632
  129MOL   C18833724   5.723   4.821   2.183 -0.0189  0.1672 -0.1392
  129MOL   H18933725   5.440   4.847   2.141  0.1792  0.5491  0.1021
  129MOL   H19033726   5.465   5.005   2.086 -1.9631 -1.7726  3.0372
  129MOL   H19133727   5.589   4.891   1.872 -0.3928 -0.8807  0.4061
  129MOL   H19233728   5.804   4.817   1.848 -2.1365 -0.8551 -0.1761
  129MOL   H19333729   5.816   4.682   1.960  1.0947  0.8864  0.6282
  129MOL   H19433730   5.907   4.841   1.988  1.5420 -0.5437 -2.2848
  129MOL   H19533731   5.663   4.899   2.228 -0.5350  1.2061 -2.5573
  129MOL   H19633732   5.828   4.829   2.213  0.1091  0.3225 -0.6241
  129MOL   C19733733   5.676   4.685   2.237  0.7102 -0.1950  0.3816
  129MOL   C19833734   5.716   4.638   2.376 -0.1167  0.2319  0.7016
  129MOL   C19933735   5.654   4.663   2.488  0.3284 -0.2432 -0.2115
  129MOL   C20033736   5.702   4.617   2.625 -0.6036  0.6500  0.0475
  129MOL   C20133737   5.543   4.763   2.486  0.0910 -0.2151  0.0508
  129MOL   H20233738   5.717   4.609   2.171 -0.8538  0.5231 -1.4975
  129MOL   H20333739   5.570   4.668   2.216  0.4788  2.5880 -1.0035
  129MOL   H20433740   5.805   4.576   2.374  0.5815  1.1954  1.2727
  129MOL   H20533741   5.622   4.569   2.681  0.4619 -0.3304  0.7643
  129MOL   H20633742   5.751   4.698   2.679  1.7294  0.1197 -1.2027
  129MOL   H20733743   5.788   4.550   2.617  0.1799  1.6851 -0.3197
  129MOL   H20833744   5.465   4.711   2.541  0.4423 -1.5545 -0.6822
  129MOL   H20933745   5.497   4.781   2.389 -2.7494  0.3873  1.4730
  129MOL   C21033746   5.587   4.896   2.550  0.4168 -0.3262  0.0205
  129MOL   C21133747   5.475   5.003   2.556 -0.0748  0.1611 -0.1824
  129MOL   C21233748   5.466   5.108   2.642  0.2542  0.2826 -0.4699
  129MOL   C21333749   5.340   5.198   2.642  0.6675  0.2107 -0.0739
  129MOL   C21433750   5.572   5.138   2.750 -0.1173  0.8054  0.0819
  129MOL   H21533751   5.681   4.930   2.506 -0.5268  0.2155 -1.6063
  129MOL   H21633752   5.617   4.876   2.653 -0.6164 -0.4593  0.3028
  129MOL   H21733753   5.399   4.999   2.479  1.2318 -1.9086 -1.3942
  129MOL   H21833754   5.259   5.166   2.576 -1.8303  2.3177  1.8266
  129MOL   H21933755   5.358   5.304   2.622  1.6841 -0.1266 -1.0073
  129MOL   H22033756   5.293   5.192   2.740  0.8888  1.4003  0.1084
  129MOL   H22133757   5.576   5.245   2.771  0.4596  0.7898  0.0384
  129MOL   H22233758   5.675   5.124   2.719 -0.1543  0.1296  0.2462
  129MOL   C22333759   5.547   5.050   2.874 -0.0310  0.5413  0.5094
  129MOL   C22433760   5.654   5.073   2.972  0.0795  0.1313 -0.3603
  129MOL   C22533761   5.665   5.023   3.097 -0.3453 -0.2853 -0.3721
  129MOL   C22633762   5.775   5.065   3.194  0.0225  0.2023 -0.0936
  129MOL   C22733763   5.564   4.929   3.151  0.1799  0.0094  0.0603
  129MOL   H22833764   5.537   4.950   2.832 -0.5708  1.1550 -0.8504
  129MOL   H22933765   5.459   5.084   2.928 -0.7071  0.4898 -0.5553
  129MOL   H23033766   5.730   5.145   2.946 -0.3812  1.4227  1.6718
  129MOL   H23133767   5.733   5.141   3.261 -3.0652 -2.6767  1.3902
  129MOL   H23233768   5.853   5.113   3.136 -0.6829  0.8780 -0.5036
  129MOL   H23333769   5.822   4.983   3.247 -0.6403  0.0521  0.2583
  129MOL   H23433770   5.471   4.932   3.094 -0.2365 -1.0853  0.6748
  129MOL   H23533771   5.538   4.952   3.255  0.2073 -0.0880  0.0878
  129MOL   C23633772   5.608   4.780   3.135 -0.3367 -0.3523  0.2926
  129MOL   C23733773   5.496   4.679   3.125  0.0310 -0.0535 -0.2067
  129MOL   C23833774   5.500   4.562   3.058 -0.3168 -0.4482 -0.6786
  129MOL   C23933775   5.388   4.456   3.056 -0.3356 -0.2681  0.7228
  129MOL   C24033776   5.619   4.537   2.959  0.0066  0.0088 -0.1841
  129MOL   H24133777   5.672   4.753   3.219 -0.3162  0.3154  0.4934
  129MOL   H24233778   5.670   4.783   3.046 -0.2951 -2.5213  0.2288
  129MOL   H24333779   5.403   4.714   3.168  0.7687  0.6731  0.8282
  129MOL   H24433780   5.389   4.399   2.963  1.4095  1.5624 -0.4062
  129MOL   H24533781   5.284   4.488   3.064  0.0988  0.9545  1.5797
  129MOL   H24633782   5.407   4.387   3.139 -0.0454 -0.6169  0.3693
  129MOL   H24733783   5.636   4.632   2.909  1.3720  0.8718  1.8373
  129MOL   H24833784   5.582   4.478   2.875 -0.5694 -0.4347  0.3735
  129MOL   C24933785   5.756   4.478   3.011  0.0981 -0.1582 -0.8222
  129MOL   C25033786   5.856   4.491   2.908  0.2860 -0.3511 -0.7322
  129MOL   C25133787   5.946   4.404   2.862  0.9789  0.4046 -0.9261
  129MOL   C25233788   6.054   4.448   2.760  0.1097  0.1503 -0.4372
  129MOL   C25333789   5.965   4.265   2.926  0.6694  0.2791 -0.1484
  129MOL   H25433790   5.748   4.376   3.049  2.4669 -1.0940 -2.6904
  129MOL   H25533791   5.798   4.533   3.096 -3.7681 -0.4663  1.4235
  129MOL   H25633792   5.864   4.591   2.868 -0.5543 -0.7602 -1.9618
  129MOL   H25733793   6.140   4.385   2.783  1.0649  1.0485 -1.5253
  129MOL   H25833794   6.078   4.554   2.769  1.3840 -0.1456 -0.2510
  129MOL   H25933795   6.020   4.426   2.659  0.4471 -2.4684 -0.0353
  129MOL   H26033796   5.868   4.216   2.916  1.3058 -1.4587  1.9216
  129MOL   H26133797   5.992   4.271   3.031 -0.9470  0.8473  0.2504
  129MOL   H26233798   6.046   4.214   2.874 -1.0665 -0.3263 -2.3659
  130MOL     C133799   5.999   1.448   5.360  0.3283 -0.2550 -0.5621
  130MOL     C233800   5.890   1.551   5.344 -0.2243  0.1116  0.3574
  130MOL     C333801   5.908   1.676   5.318  0.6740  0.2664  0.1922
  130MOL     C433802   5.793   1.768   5.297  0.1107  0.2555 -0.2334
  130MOL     C533803   6.039   1.736   5.288 -0.3360  0.3005  0.4132
  130MOL     H633804   5.978   1.387   5.448 -0.5810  2.6623  1.3310
  130MOL     H733805   5.985   1.382   5.274 -0.8663 -1.2915  0.4055
  130MOL     H833806   5.798   1.497   5.362 -0.5777  0.4550 -0.4116
  130MOL     H933807   5.806   1.863   5.348  2.0510 -0.9436  1.6329
  130MOL    H1033808   5.696   1.725   5.323  0.9077 -2.1300 -1.0567
  130MOL    H1133809   5.800   1.789   5.190 -3.1462  1.5252 -0.2508
  130MOL    H1233810   6.126   1.696   5.340  0.4512 -1.0622 -1.8558
  130MOL    H1333811   6.039   1.832   5.339 -2.2040 -0.0076  1.0438
  130MOL    H1433812   6.101   1.485   5.367 -0.0075  0.3267  1.4818
  130MOL    C1533813   6.065   1.752   5.139 -0.3268  0.3959 -0.1261
  130MOL    C1633814   6.199   1.839   5.120  0.3631 -0.1137  0.3332
  130MOL    C1733815   6.305   1.796   5.049 -0.4954  0.1272  0.2292
  130MOL    C1833816   6.441   1.861   5.057 -0.3298 -0.3348  0.2422
  130MOL    C1933817   6.308   1.677   4.954 -0.6768  0.0750 -0.0640
  130MOL    H2033818   5.978   1.798   5.092 -2.6897  1.4777  5.0063
  130MOL    H2133819   6.075   1.652   5.096  0.1243  0.6913 -0.7079
  130MOL    H2233820   6.210   1.927   5.181  0.6935  0.3982 -0.4570
  130MOL    H2333821   6.454   1.918   5.149  1.4168  0.2141 -0.3234
  130MOL    H2433822   6.454   1.921   4.968  0.3815 -0.5664  0.1864
  130MOL    H2533823   6.526   1.795   5.044 -0.3711  0.2521 -3.4161
  130MOL    H2633824   6.364   1.694   4.863  0.3026 -0.3811  0.4457
  130MOL    H2733825   6.205   1.666   4.921 -0.1403 -3.0067 -0.8520
  130MOL    C2833826   6.355   1.547   5.023 -0.4651 -0.1348  0.3032
  130MOL    C2933827   6.311   1.419   4.949  0.1125  0.9188  0.2872
  130MOL    C3033828   6.272   1.302   5.009  0.6391 -0.7524  0.2705
  130MOL    C3133829   6.213   1.192   4.926  0.8841 -0.3573  0.1505
  130MOL    C3233830   6.273   1.279   5.157 -0.0433 -0.0909 -0.2898
  130MOL    H3333831   6.319   1.545   5.126  0.7254  1.5524  0.7733
  130MOL    H3433832   6.464   1.545   5.027 -0.4570  1.3134  1.0532
  130MOL    H3533833   6.326   1.416   4.842  0.2050  1.2301  0.2899
  130MOL    H3633834   6.126   1.147   4.975  0.1726  0.1942 -0.6020
  130MOL    H3733835   6.287   1.112   4.925  1.6542  0.3617 -1.0853
  130MOL    H3833836   6.180   1.212   4.824 -0.3163  2.5171  1.0575
  130MOL    H3933837   6.171   1.299   5.190  0.2416  0.6305  0.1631
  130MOL    H4033838   6.329   1.353   5.215  1.8331 -1.0565 -0.8052
  130MOL    C4133839   6.311   1.141   5.214  0.0070  0.5008  0.8909
  130MOL    C4233840   6.299   1.129   5.366 -0.1785  0.1555  0.5644
  130MOL    C4333841   6.391   1.110   5.463 -0.5043 -0.7470 -0.2043
  130MOL    C4433842   6.351   1.107   5.607  0.9869  0.3024 -0.1371
  130MOL    C4533843   6.540   1.099   5.448 -0.0810 -0.0095  0.1754
  130MOL    H4633844   6.417   1.127   5.190  0.0961  0.1015  1.5042
  130MOL    H4733845   6.251   1.065   5.164 -0.6892  1.0579  0.8799
  130MOL    H4833846   6.199   1.132   5.407  0.4843  1.7625  2.1188
  130MOL    H4933847   6.243   1.114   5.621  1.1867  0.1650  1.6072
  130MOL    H5033848   6.380   1.201   5.655  3.2426  0.3293 -1.4481
  130MOL    H5133849   6.399   1.024   5.659  0.8966  1.4161  1.7667
  130MOL    H5233850   6.555   1.051   5.352  1.7991  1.6771 -0.4008
  130MOL    H5333851   6.592   1.031   5.516 -1.3803 -3.2806 -1.9748
  130MOL    C5433852   6.603   1.232   5.453  0.4891 -0.0675 -0.1280
  130MOL    C5533853   6.756   1.227   5.456  0.5893  0.2942 -0.4732
  130MOL    C5633854   6.842   1.263   5.557  0.6315  0.1034  0.4071
  130MOL    C5733855   6.987   1.285   5.534 -0.6878 -0.9773  0.3378
  130MOL    C5833856   6.794   1.301   5.691 -0.5187  0.0293  0.3591
  130MOL    H5933857   6.568   1.284   5.543  1.4160  0.6279 -0.1685
  130MOL    H6033858   6.569   1.286   5.365  1.1298  1.7734  0.7211
  130MOL    H6133859   6.805   1.188   5.368 -1.0241 -3.0720  0.0441
  130MOL    H6233860   7.019   1.299   5.431 -0.3194  0.8468  0.6865
  130MOL    H6333861   7.042   1.194   5.562 -0.7824 -0.7692  1.2071
  130MOL    H6433862   7.027   1.366   5.595  1.1981 -0.9681 -0.8575
  130MOL    H6533863   6.687   1.286   5.705 -0.4736 -0.3717  0.2917
  130MOL    H6633864   6.804   1.409   5.698  3.2359 -0.2077 -0.4046
  130MOL    C6733865   6.873   1.225   5.797  0.4735 -0.4951  0.1122
  130MOL    C6833866   6.840   1.268   5.939 -0.0127 -0.0672  0.8155
  130MOL    C6933867   6.754   1.209   6.020 -0.1931 -0.9080 -0.2347
  130MOL    C7033868   6.742   1.258   6.165  0.7172 -0.2532 -0.4456
  130MOL    C7133869   6.660   1.092   5.986 -0.5236  0.4880  0.4520
  130MOL    H7233870   6.979   1.245   5.784  0.5195 -0.2623  0.8500
  130MOL    H7333871   6.859   1.119   5.776 -1.9688 -0.4759  1.4709
  130MOL    H7433872   6.886   1.361   5.969 -0.2606  0.1534  0.5166
  130MOL    H7533873   6.733   1.169   6.228 -0.9071  1.3077  1.5822
  130MOL    H7633874   6.652   1.318   6.180  2.0932  1.6910  0.1832
  130MOL    H7733875   6.834   1.310   6.192  1.2647 -0.0594 -2.6287
  130MOL    H7833876   6.690   1.015   6.058  1.9368 -1.3759 -2.4517
  130MOL    H7933877   6.681   1.052   5.887 -1.9393  2.4068 -0.6637
  130MOL    C8033878   6.511   1.127   5.997  0.5973 -0.6102 -0.2929
  130MOL    C8133879   6.418   1.018   5.945  0.8160  0.2654  0.3847
  130MOL    C8233880   6.289   1.020   5.912 -0.4814  0.0961 -0.3229
  130MOL    C8333881   6.198   1.138   5.919 -0.2376 -0.7477 -0.6481
  130MOL    C8433882   6.223   0.895   5.860  0.3432 -0.4033 -0.3065
  130MOL    H8533883   6.482   1.226   5.963 -0.7011 -0.7543  0.3907
  130MOL    H8633884   6.490   1.141   6.103  1.3554 -1.0279 -0.0821
  130MOL    H8733885   6.467   0.923   5.927  0.1529  0.0231 -0.1490
  130MOL    H8833886   6.125   1.140   5.838 -0.7398 -1.6487 -0.2214
  130MOL    H8933887   6.243   1.237   5.914 -0.7288 -0.5714 -1.6879
  130MOL    H9033888   6.140   1.136   6.011  0.3614  0.0108 -0.2501
  130MOL    H9133889   6.285   0.805   5.857  0.5476 -0.3622  2.0171
  130MOL    H9233890   6.195   0.910   5.756  0.4224  0.5497 -0.1908
  130MOL    C9333891   6.091   0.855   5.932 -0.0803 -0.1909  0.1824
  130MOL    C9433892   6.047   0.711   5.897 -0.5692 -0.2873  0.7628
  130MOL    C9533893   5.982   0.624   5.976  0.0490  0.1665 -0.1206
  130MOL    C9633894   5.938   0.490   5.921  0.3239 -0.2957  0.5564
  130MOL    C9733895   5.969   0.646   6.126 -0.1860 -0.3878 -0.1430
  130MOL    H9833896   6.010   0.923   5.905 -0.8059 -1.4764 -0.9469
  130MOL    H9933897   6.100   0.852   6.040 -1.2968 -1.9158  0.2649
  130MOL   H10033898   6.065   0.689   5.793 -3.0381 -0.5941  0.3703
  130MOL   H10133899   5.830   0.475   5.930  0.1356  0.2613 -0.7291
  130MOL   H10233900   5.969   0.478   5.818  0.7127 -1.5074  0.8131
  130MOL   H10333901   5.995   0.407   5.964  2.3320  1.4981  1.4790
  130MOL   H10433902   5.872   0.607   6.157  0.1953 -0.5963  0.8281
  130MOL   H10533903   5.953   0.751   6.151 -2.3920 -0.8474  0.5277
  130MOL   C10633904   6.082   0.582   6.195  0.6260 -0.3081  0.6961
  130MOL   C10733905   6.074   0.585   6.345 -0.3540  0.0997  0.6021
  130MOL   C10833906   6.061   0.479   6.426 -0.0044 -0.6024  1.6257
  130MOL   C10933907   6.077   0.330   6.392  0.1901 -0.5481  0.0869
  130MOL   C11033908   6.047   0.518   6.572 -0.8021  0.1752  0.6792
  130MOL   H11133909   6.173   0.636   6.168  0.3028  0.9307  1.9782
  130MOL   H11233910   6.101   0.484   6.153 -1.9856  0.5209 -2.6083
  130MOL   H11333911   6.080   0.689   6.373  1.1926  0.2213 -0.1202
  130MOL   H11433912   6.042   0.313   6.290  0.4510 -1.2153  0.1016
  130MOL   H11533913   6.177   0.287   6.382  0.3124 -0.1215 -0.5341
  130MOL   H11633914   6.022   0.262   6.457 -0.8687  0.4173  0.2065
  130MOL   H11733915   5.951   0.492   6.616 -0.5598 -0.0535  1.0742
  130MOL   H11833916   6.043   0.627   6.580 -0.4089  0.3876 -1.6360
  130MOL   C11933917   6.162   0.470   6.661  0.4830  0.7033  0.2878
  130MOL   C12033918   6.297   0.526   6.621  0.4100  0.3104  0.3621
  130MOL   C12133919   6.388   0.583   6.705 -0.4613 -0.0039  0.1670
  130MOL   C12233920   6.530   0.614   6.658  0.1008  0.7563  0.1463
  130MOL   C12333921   6.369   0.601   6.854 -0.1111  0.5947  0.2481
  130MOL   H12433922   6.162   0.361   6.654  0.2418  0.7728 -0.8195
  130MOL   H12533923   6.144   0.511   6.761 -1.3026 -0.6746  0.5589
  130MOL   H12633924   6.341   0.516   6.523 -0.2590  0.3014  0.0559
  130MOL   H12733925   6.541   0.722   6.655 -2.1537  1.0478  1.0750
  130MOL   H12833926   6.542   0.588   6.553 -1.4297 -0.7314  0.3098
  130MOL   H12933927   6.598   0.560   6.723  0.6357  2.2751  0.8785
  130MOL   H13033928   6.455   0.571   6.914  0.0878  0.3163 -0.1744
  130MOL   H13133929   6.290   0.539   6.897 -0.6729  0.3975 -1.0452
  130MOL   C13233930   6.328   0.741   6.896  0.1905 -0.4313 -0.1269
  130MOL   C13333931   6.314   0.756   7.053 -0.3751  0.8455  0.2690
  130MOL   C13433932   6.209   0.756   7.133 -0.1580  0.4909  1.1719
  130MOL   C13533933   6.237   0.781   7.276 -0.0194  0.3832  0.1066
  130MOL   C13633934   6.070   0.747   7.078  0.5108 -0.0857  0.2129
  130MOL   H13733935   6.235   0.784   6.858 -0.2258 -0.3194  0.9726
  130MOL   H13833936   6.405   0.816   6.878  1.2138 -1.0747  1.4710
  130MOL   H13933937   6.410   0.762   7.102 -0.0857 -2.1038  0.1646
  130MOL   H14033938   6.180   0.863   7.319  0.4959  0.6839  0.2173
  130MOL   H14133939   6.344   0.792   7.294  0.4620  0.1920 -2.4851
  130MOL   H14233940   6.208   0.688   7.325 -1.7153  0.6708 -0.3293
  130MOL   H14333941   6.016   0.670   7.133  3.0589 -2.5207 -0.5769
  130MOL   H14433942   6.069   0.728   6.971  2.8969 -0.5080  0.2324
  130MOL   C14533943   5.998   0.878   7.090  0.5159  0.4497 -0.1783
  130MOL   C14633944   5.848   0.844   7.045 -0.1832  0.2861 -0.3917
  130MOL   C14733945   5.735   0.831   7.114  0.5312 -0.4528  0.1507
  130MOL   C14833946   5.613   0.772   7.050  0.7175  0.2079  0.7078
  130MOL   C14933947   5.734   0.853   7.263 -0.1397  0.0496 -0.1451
  130MOL   H15033948   6.037   0.955   7.024 -2.8635  3.3471  1.0284
  130MOL   H15133949   5.999   0.915   7.193 -0.5539 -2.3130  0.8827
  130MOL   H15233950   5.846   0.816   6.941 -0.2365 -1.3383  0.0414
  130MOL   H15333951   5.524   0.825   7.086  0.0995 -0.2916 -0.0553
  130MOL   H15433952   5.593   0.666   7.070 -2.3686  0.7776  0.9540
  130MOL   H15533953   5.618   0.790   6.942 -1.3219 -0.5404  0.4485
  130MOL   H15633954   5.675   0.941   7.284 -0.7402 -0.1354 -1.0487
  130MOL   H15733955   5.827   0.876   7.315 -0.4600  1.2803 -0.1121
  130MOL   C15833956   5.669   0.731   7.332  0.7321  0.3958 -0.5599
  130MOL   C15933957   5.650   0.746   7.478 -1.0027  0.2124 -0.8467
  130MOL   C16033958   5.739   0.716   7.570 -0.0048 -0.0517 -0.0865
  130MOL   C16133959   5.881   0.667   7.539 -0.6402  0.3043  0.6351
  130MOL   C16233960   5.706   0.719   7.715  0.8699 -0.1980 -0.1990
  130MOL   H16333961   5.724   0.641   7.303 -0.8653 -0.7582 -0.0618
  130MOL   H16433962   5.568   0.719   7.293  0.0770 -4.6270  2.2382
  130MOL   H16533963   5.549   0.772   7.508  0.3788  1.4074  3.0465
  130MOL   H16633964   5.887   0.558   7.542 -1.8987  0.0681 -3.0275
  130MOL   H16733965   5.946   0.697   7.621 -1.0193  0.9109  0.7143
  130MOL   H16833966   5.909   0.706   7.441  0.6427  0.8336  1.2012
  130MOL   H16933967   5.604   0.751   7.737  1.4407  2.3917 -1.0874
  130MOL   H17033968   5.778   0.785   7.764  1.5543 -0.4996 -0.7820
  130MOL   C17133969   5.705   0.586   7.786 -0.3838  0.1600 -0.2304
  130MOL   C17233970   5.706   0.602   0.067  0.0317 -0.0896 -0.3642
  130MOL   C17333971   5.621   0.547   0.155  0.9193 -0.2189 -0.2663
  130MOL   C17433972   5.502   0.463   0.119 -0.0323 -0.1358  0.1660
  130MOL   C17533973   5.634   0.578   0.303  0.3612 -0.5173  0.1289
  130MOL   H17633974   5.791   0.529   7.752 -0.2168 -0.6174  1.4405
  130MOL   H17733975   5.612   0.535   7.760 -0.3536  0.1535 -0.3236
  130MOL   H17833976   5.786   0.668   0.099 -0.2069 -0.4422  0.9790
  130MOL   H17933977   5.465   0.402   0.201 -1.4372  0.7089  0.1789
  130MOL   H18033978   5.534   0.396   0.039 -1.2990 -0.0511 -0.4357
  130MOL   H18133979   5.415   0.520   0.086  1.0469  0.5288 -1.6104
  130MOL   H18233980   5.654   0.484   0.355  0.4829 -0.3342  0.4168
  130MOL   H18333981   5.537   0.603   0.347  0.2746 -0.5373 -0.0518
  130MOL   C18433982   5.740   0.684   0.335 -0.7073 -0.3066 -0.5883
  130MOL   C18533983   5.737   0.721   0.490 -0.5596 -0.5819 -0.2663
  130MOL   C18633984   5.796   0.653   0.591 -0.4767 -0.2124 -0.1299
  130MOL   C18733985   5.763   0.704   0.732  0.8179 -0.5106 -0.7442
  130MOL   C18833986   5.885   0.534   0.577 -0.3274  0.3384  0.1145
  130MOL   H18933987   5.705   0.775   0.286  0.1728  0.7792  0.7801
  130MOL   H19033988   5.843   0.663   0.306 -0.1188 -0.0493  1.2427
  130MOL   H19133989   5.679   0.806   0.520  1.1197  0.1990  0.8649
  130MOL   H19233990   5.722   0.620   0.789  0.5794  0.3071  0.3014
  130MOL   H19333991   5.679   0.774   0.740  0.9040 -0.6726  1.9077
  130MOL   H19433992   5.844   0.744   0.793  1.4092 -0.9156 -1.2621
  130MOL   H19533993   5.881   0.499   0.474 -0.4036 -1.4953  0.7261
  130MOL   H19633994   5.838   0.448   0.624 -0.3514 -0.7795 -1.8860
  130MOL   C19733995   6.030   0.564   0.614 -0.5183 -0.0375 -0.0177
  130MOL   C19833996   6.100   0.428   0.624 -0.1687 -0.0663 -0.1211
  130MOL   C19933997   6.189   0.374   0.535  0.6927  0.3160 -0.1357
  130MOL   C20033998   6.254   0.241   0.565  0.0592  0.1366 -0.3106
  130MOL   C20133999   6.237   0.442   0.411  0.0180 -0.4093  0.7295
  130MOL   H20234000   6.031   0.599   0.717  1.0919 -0.3449  0.0819
  130MOL   H20334001   6.083   0.637   0.553 -2.4399  1.6060  0.2345
  130MOL   H20434002   6.067   0.372   0.711  0.4150  0.7238  0.6076
  130MOL   H20534003   6.206   0.164   0.505  3.5916 -2.6685  0.3267
  130MOL   H20634004   6.244   0.200   0.665 -0.3786 -0.6218 -0.6607
  130MOL   H20734005   6.358   0.240   0.532  1.2271  2.1049  3.0678
  130MOL   H20834006   6.334   0.491   0.425  0.0500 -0.2021 -0.1587
  130MOL   H20934007   6.172   0.522   0.377  2.9173  1.4947 -0.5749
  130MOL   C21034008   6.241   0.348   0.293  0.2466  0.2728  0.7012
  130MOL   C21134009   6.291   0.424   0.167 -0.5677  0.7970  0.4108
  130MOL   C21234010   6.219   0.458   0.062 -0.7040 -0.0340  0.2567
  130MOL   C21334011   6.279   0.503   7.811  0.2280  0.0778  0.3119
  130MOL   C21434012   6.073   0.439   0.061  0.0051 -0.3232  0.0661
  130MOL   H21534013   6.141   0.309   0.276 -0.0880  0.6970  1.6793
  130MOL   H21634014   6.309   0.266   0.315  4.2413  3.6708  1.7737
  130MOL   H21734015   6.395   0.453   0.160 -0.1177 -0.6909  0.7716
  130MOL   H21834016   6.222   0.584   7.767  1.0862  0.5131 -0.0229
  130MOL   H21934017   6.280   0.419   7.742 -0.0456 -1.4040  2.0740
  130MOL   H22034018   6.379   0.546   7.819 -0.5513  1.6178  2.2158
  130MOL   H22134019   6.015   0.512   0.004 -4.3048 -1.5904  2.6139
  130MOL   H22234020   6.036   0.469   0.159 -2.0978 -1.7435 -0.2659
  130MOL   C22334021   6.021   0.293   0.032 -0.1736 -0.3132  0.1132
  130MOL   C22434022   5.879   0.271   0.068 -0.0300  0.5916 -0.0051
  130MOL   C22534023   5.800   0.162   0.035 -0.0039 -0.5650 -0.1880
  130MOL   C22634024   5.661   0.161   0.102 -0.1220  0.0020 -0.0439
  130MOL   C22734025   5.842   0.053   7.820 -0.0601  0.0547 -0.2198
  130MOL   H22834026   6.083   0.220   0.084  1.0421  0.2204 -0.5480
  130MOL   H22934027   6.022   0.277   7.803 -1.0628  0.2501  0.0149
  130MOL   H23034028   5.848   0.350   0.135 -0.8588  0.9264 -0.7688
  130MOL   H23134029   5.644   0.230   0.184 -0.3093 -0.1636  0.0555
  130MOL   H23234030   5.645   0.061   0.141 -2.2861  0.8402  1.2770
  130MOL   H23334031   5.587   0.183   0.025  1.2905  0.4117 -1.3265
  130MOL   H23434032   5.929   0.095   7.769  0.8366 -1.0484  0.3885
  130MOL   H23534033   5.760   0.037   7.750  0.6939 -1.3045 -0.7989
  130MOL   C23634034   5.887   7.807   0.018  0.0551  0.1322 -0.1575
  130MOL   C23734035   5.940   7.695   7.804  0.4882 -0.5762 -0.2158
  130MOL   C23834036   6.073   7.678   7.766  0.8480  0.0131 -0.4176
  130MOL   C23934037   6.113   7.573   7.668  1.2510  0.1635  0.1142
  130MOL   C24034038   6.187   7.765   7.821  0.0544  0.7514 -0.1275
  130MOL   H24134039   5.803   7.747   0.055  1.3455 -1.3502  0.3967
  130MOL   H24234040   5.954   7.838   0.098 -1.0617  4.9328 -0.9177
  130MOL   H24334041   5.876   7.624   7.754  0.0755 -0.0499 -0.4284
  130MOL   H24434042   6.072   7.472   7.675 -1.5368  1.1576 -0.9226
  130MOL   H24534043   6.221   7.560   7.672  1.2878 -0.4369 -1.9414
  130MOL   H24634044   6.088   7.617   7.571 -2.3935 -0.6145  0.6443
  130MOL   H24734045   6.263   7.702   7.867 -1.5650 -2.0954 -1.2408
  130MOL   H24834046   6.141   7.818   0.026 -2.2638 -1.2699 -0.0581
  130MOL   C24934047   6.251   7.845   7.712 -0.3364 -0.1568  0.2770
  130MOL   C25034048   6.359   0.067   7.761 -0.3734 -0.7648  0.8113
  130MOL   C25134049   6.486   0.078   7.720 -0.0549 -0.3084 -0.1113
  130MOL   C25234050   6.577   0.187   7.772 -0.6002  0.4630 -0.3084
  130MOL   C25334051   6.550   7.875   7.607  0.6303  0.3427 -0.0517
  130MOL   H25434052   6.174   0.032   7.671 -1.1505 -0.9376  0.5230
  130MOL   H25534053   6.287   7.783   7.630 -0.7956 -0.0960  0.0266
  130MOL   H25634054   6.320   0.147   7.822  1.0801  1.4973 -1.1419
  130MOL   H25734055   6.637   0.153   7.857  1.0599  2.3412 -0.6932
  130MOL   H25834056   6.519   0.269   7.815 -2.2918 -0.6610 -0.3996
  130MOL   H25934057   6.643   0.228   7.696  0.7528 -1.1517 -0.0244
  130MOL   H26034058   6.643   7.822   7.629  0.3033  0.1285  0.8364
  130MOL   H26134059   6.578   0.058   7.522 -0.5546 -0.0363 -0.7403
  130MOL   H26234060   6.487   7.791   7.577 -0.0439  0.8371 -0.0127
  131MOL     C134061   1.538   6.755   6.743 -0.3686 -0.5005 -0.2685
  131MOL     C234062   1.561   6.686   6.876  0.5345 -0.4884  0.2318
  131MOL     C334063   1.500   6.576   6.924 -0.5057  0.1014 -0.4264
  131MOL     C434064   1.523   6.533   7.068 -0.3725  0.4138 -0.6587
  131MOL     C534065   1.407   6.491   6.847 -0.2479 -0.0314  0.4070
  131MOL     H634066   1.587   6.851   6.734 -1.4893  0.1272  0.2350
  131MOL     H734067   1.593   6.684   6.680 -0.1528 -0.5538 -0.0182
  131MOL     H834068   1.642   6.731   6.931 -0.8859 -0.1722  2.0811
  131MOL     H934069   1.565   6.613   7.130 -0.8043  0.0090  0.1692
  131MOL    H1034070   1.609   6.466   7.067 -1.1696 -0.7295  2.6173
  131MOL    H1134071   1.442   6.477   7.115 -0.2386  0.0550 -0.8542
  131MOL    H1234072   1.370   6.551   6.764  1.0083 -3.3006 -2.6508
  131MOL    H1334073   1.323   6.460   6.909 -0.8099 -0.1436 -0.3994
  131MOL    H1434074   1.433   6.765   6.713 -0.4779  1.1685  0.6467
  131MOL    C1534075   1.477   6.365   6.796 -0.4246 -0.6009 -0.2484
  131MOL    C1634076   1.398   6.300   6.683  0.3166  0.5782  0.2992
  131MOL    C1734077   1.350   6.178   6.672 -0.0129 -0.0670  0.6484
  131MOL    C1834078   1.288   6.123   6.546  0.1516 -0.0535 -0.1784
  131MOL    C1934079   1.359   6.070   6.774 -0.3279 -0.2706  0.2603
  131MOL    H2034080   1.494   6.295   6.878  1.7954 -1.5591 -1.4638
  131MOL    H2134081   1.577   6.390   6.758  0.2533 -0.7185  1.4330
  131MOL    H2234082   1.380   6.364   6.598 -0.5569 -0.7522 -0.5271
  131MOL    H2334083   1.355   6.045   6.509  1.1081  0.1311  1.1223
  131MOL    H2434084   1.291   6.203   6.472  1.2175 -0.2126 -0.3169
  131MOL    H2534085   1.186   6.086   6.556 -0.2549  1.2261  0.4852
  131MOL    H2634086   1.265   6.015   6.768  0.9349 -2.3901 -0.7727
  131MOL    H2734087   1.365   6.118   6.872  0.9896  0.3969 -0.1389
  131MOL    C2834088   1.476   5.969   6.746  1.0758 -0.8536 -0.4234
  131MOL    C2934089   1.506   5.906   6.879  0.2009  0.3277  0.6495
  131MOL    C3034090   1.619   5.908   6.955 -0.0746  0.0359 -0.1066
  131MOL    C3134091   1.616   5.833   7.086 -0.4025  0.0094  0.2854
  131MOL    C3234092   1.749   5.964   6.909 -1.2061  0.2371  0.3188
  131MOL    H3334093   1.561   6.023   6.704  1.0537 -0.5043 -0.0174
  131MOL    H3434094   1.458   5.891   6.672  0.2106 -0.0689 -1.0482
  131MOL    H3534095   1.417   5.863   6.924 -0.1760 -0.0678 -0.4499
  131MOL    H3634096   1.690   5.875   7.153  3.3854 -2.0225 -2.4272
  131MOL    H3734097   1.638   5.728   7.064 -1.8323 -0.4501  0.9712
  131MOL    H3834098   1.516   5.839   7.128 -0.7354  0.2002 -0.5203
  131MOL    H3934099   1.732   5.979   6.802 -0.1838  2.2528  0.4236
  131MOL    H4034100   1.829   5.890   6.904  0.4416  2.0977 -2.5420
  131MOL    C4134101   1.775   6.090   6.978  0.3529 -0.6175 -0.3931
  131MOL    C4234102   1.926   6.130   6.957  0.3436 -0.5531  1.0337
  131MOL    C4334103   1.984   6.225   6.880 -0.3124  0.4686  0.1761
  131MOL    C4434104   2.131   6.261   6.883 -0.2849  0.2960  0.5863
  131MOL    C4534105   1.916   6.308   6.778  0.3567 -0.0699  0.8699
  131MOL    H4634106   1.759   6.080   7.086 -1.2766 -0.4115 -0.5998
  131MOL    H4734107   1.711   6.174   6.950 -0.5599 -0.9374  0.6621
  131MOL    H4834108   2.001   6.077   7.012  2.5465 -0.6086 -1.9196
  131MOL    H4934109   2.138   6.365   6.915 -0.2814  0.5850 -0.3416
  131MOL    H5034110   2.183   6.255   6.788  0.9255  1.4638  1.1714
  131MOL    H5134111   2.184   6.204   6.959 -2.8056  0.8403  2.8357
  131MOL    H5234112   1.816   6.267   6.769 -0.3182  1.7370 -0.2080
  131MOL    H5334113   1.965   6.299   6.681 -1.6628 -1.0673 -0.0950
  131MOL    C5434114   1.895   6.456   6.812 -0.3888 -0.2510 -0.3466
  131MOL    C5534115   1.848   6.549   6.707  0.1707  0.6755  0.4245
  131MOL    C5634116   1.868   6.681   6.717  0.7348  0.1520  0.3856
  131MOL    C5734117   1.837   6.763   6.589 -0.1472 -0.4775  0.7031
  131MOL    C5834118   1.911   6.767   6.844 -0.4002  0.1329 -0.1739
  131MOL    H5934119   1.983   6.500   6.859  0.8129 -2.8823 -0.0743
  131MOL    H6034120   1.824   6.474   6.893 -1.5275  2.3950 -1.8694
  131MOL    H6134121   1.816   6.500   6.616  0.3109  0.6348  0.3958
  131MOL    H6234122   1.751   6.735   6.528  1.0638 -2.2977 -0.2243
  131MOL    H6334123   1.932   6.789   6.541 -0.2490  0.9995  1.2766
  131MOL    H6434124   1.809   6.854   6.642  0.1866  0.0774 -0.0510
  131MOL    H6534125   1.893   6.714   6.937 -1.2038  0.1353 -0.3253
  131MOL    H6634126   1.848   6.855   6.854  0.2173  0.6155 -0.5217
  131MOL    C6734127   2.054   6.819   6.821 -0.1848  0.3786 -0.2321
  131MOL    C6834128   2.111   6.902   6.929 -0.0205 -0.5147 -0.2878
  131MOL    C6934129   2.186   6.862   7.030  0.0177  0.1914 -0.0200
  131MOL    C7034130   2.235   6.955   7.144  0.3586 -0.4155 -0.7409
  131MOL    C7134131   2.228   6.718   7.053 -0.1704  0.7301 -1.2965
  131MOL    H7234132   2.061   6.868   6.724 -0.4185  1.0953  0.1139
  131MOL    H7334133   2.106   6.725   6.798 -0.7187  0.2691 -0.9966
  131MOL    H7434134   2.073   7.003   6.935  0.2535 -0.3601 -1.0397
  131MOL    H7534135   2.344   6.965   7.142  0.1667  1.6097 -2.0969
  131MOL    H7634136   2.211   6.910   7.241 -0.9480 -1.8872 -1.7299
  131MOL    H7734137   2.200   7.058   7.132  1.9613  0.4408  1.5345
  131MOL    H7834138   2.153   6.650   7.013 -0.0805  0.2873 -0.7229
  131MOL    H7934139   2.236   6.692   7.158  0.4639 -0.3156 -1.5863
  131MOL    C8034140   2.373   6.697   6.997  0.0426 -0.1881 -0.2252
  131MOL    C8134141   2.394   6.551   6.971  0.4890 -0.3480  0.1735
  131MOL    C8234142   2.511   6.491   6.945 -0.5610 -0.3893  0.2529
  131MOL    C8334143   2.644   6.556   6.959  0.8772  0.5424 -0.9544
  131MOL    C8434144   2.512   6.345   6.905 -0.4044 -0.1879  0.0648
  131MOL    H8534145   2.450   6.743   7.059  0.9960 -1.1606 -0.6742
  131MOL    H8634146   2.390   6.744   6.901  1.1624  1.1964  0.6222
  131MOL    H8734147   2.305   6.489   6.972 -0.7391  1.3405  2.5701
  131MOL    H8834148   2.710   6.493   7.020  0.7532  0.0833 -1.2869
  131MOL    H8934149   2.636   6.653   7.007 -0.7500 -0.1442  0.2480
  131MOL    H9034150   2.691   6.574   6.862  0.9660 -1.4474 -1.3182
  131MOL    H9134151   2.587   6.309   6.834 -1.9621 -1.0119 -1.1917
  131MOL    H9234152   2.416   6.321   6.859  0.0010  1.4647 -1.7527
  131MOL    C9334153   2.545   6.249   7.033 -0.0934  0.0858  0.3568
  131MOL    C9434154   2.557   6.103   6.995  0.1698  0.3181 -0.3871
  131MOL    C9534155   2.667   6.032   6.995  0.0139  0.4966  0.2785
  131MOL    C9634156   2.667   5.887   6.946 -0.1031  0.7255 -0.6983
  131MOL    C9734157   2.804   6.086   7.037  0.9168 -0.2699 -0.2719
  131MOL    H9834158   2.460   6.258   7.101 -2.7308 -0.0031 -2.7799
  131MOL    H9934159   2.630   6.281   7.093  0.4191  0.2512 -0.4476
  131MOL   H10034160   2.466   6.065   6.953  0.2495  1.4501 -1.6291
  131MOL   H10134161   2.695   5.876   6.841  0.5933  2.1030 -0.6589
  131MOL   H10234162   2.733   5.829   7.010 -1.3904  0.7433  0.6706
  131MOL   H10334163   2.574   5.838   6.973 -0.2075  0.7944 -0.9292
  131MOL   H10434164   2.842   6.178   6.992 -1.1485 -0.2408 -2.0238
  131MOL   H10534165   2.877   6.009   7.009  1.0380 -0.1630 -0.2522
  131MOL   C10634166   2.818   6.099   7.189  0.1172 -0.4729  0.7918
  131MOL   C10734167   2.958   6.139   7.229  0.0284  0.6808  0.3332
  131MOL   C10834168   3.018   6.116   7.350 -0.0454  0.5374 -0.3615
  131MOL   C10934169   2.955   6.043   7.466  0.8754 -0.0912  0.8289
  131MOL   C11034170   3.158   6.172   7.389  0.1637 -0.4503 -0.0662
  131MOL   H11134171   2.789   6.008   7.242 -1.0440 -0.3567  0.3677
  131MOL   H11234172   2.738   6.164   7.225 -0.4884 -1.5288  1.3642
  131MOL   H11334173   3.012   6.200   7.157 -0.3532  0.4514 -0.1483
  131MOL   H11434174   2.936   6.114   7.546  0.4920  0.9544 -0.1934
  131MOL   H11534175   2.866   5.985   7.440  2.1009 -1.6051 -0.1292
  131MOL   H11634176   3.019   5.967   7.513 -1.1995 -2.7462 -0.5028
  131MOL   H11734177   3.166   6.202   7.493  0.7730 -0.6252 -0.0570
  131MOL   H11834178   3.160   6.273   7.349  0.7477  0.0458  1.2148
  131MOL   C11934179   3.277   6.084   7.350  0.6215 -0.0634  0.1686
  131MOL   C12034180   3.270   5.943   7.402  0.5130 -0.3994  0.6084
  131MOL   C12134181   3.339   5.884   7.496 -0.3654  0.0293 -0.9764
  131MOL   C12234182   3.316   5.741   7.528 -0.7606  1.2903 -0.2226
  131MOL   C12334183   3.447   5.944   7.587 -0.6252 -0.0454  0.4170
  131MOL   H12434184   3.361   6.140   7.390  1.1590  0.1948 -1.2776
  131MOL   H12534185   3.292   6.085   7.242 -1.1312  0.6646 -0.0971
  131MOL   H12634186   3.197   5.891   7.341  0.2140  1.9355 -1.0944
  131MOL   H12734187   3.327   5.710   7.632 -1.8628  3.4783  0.5834
  131MOL   H12834188   3.389   5.679   7.477 -2.2309 -2.5105  2.1026
  131MOL   H12934189   3.215   5.711   7.498  0.8006 -3.0011 -1.4687
  131MOL   H13034190   3.414   5.929   7.690 -1.9184 -1.8025 -0.2173
  131MOL   H13134191   3.448   6.052   7.577 -0.7001 -0.0915 -0.0592
  131MOL   C13234192   3.587   5.884   7.566  0.3817 -0.1266  0.2302
  131MOL   C13334193   3.635   5.900   7.422  0.1597  0.4341  0.0310
  131MOL   C13434194   3.739   5.974   7.387 -0.3756  0.8924 -0.2175
  131MOL   C13534195   3.788   5.956   7.243 -0.2232 -0.4042  0.1310
  131MOL   C13634196   3.813   6.075   7.476 -0.4084 -0.0974 -0.7344
  131MOL   H13734197   3.587   5.777   7.587 -2.4955 -0.5334 -1.4145
  131MOL   H13834198   3.661   5.924   7.634  0.0425  0.0762  0.4802
  131MOL   H13934199   3.586   5.835   7.350 -1.3125  0.3054  1.1155
  131MOL   H14034200   3.721   5.891   7.186 -0.0894 -0.1699 -0.2908
  131MOL   H14134201   3.887   5.910   7.249 -0.5451 -1.1851 -0.5017
  131MOL   H14234202   3.801   6.050   7.189 -3.6959 -0.1715 -0.4174
  131MOL   H14334203   3.754   6.115   7.559  0.5798 -0.5580  0.1919
  131MOL   H14434204   3.832   6.165   7.417 -0.9155  2.0262  2.1772
  131MOL   C14534205   3.951   6.019   7.511 -0.3460 -0.5518 -0.3855
  131MOL   C14634206   3.999   6.072   7.649 -0.1202  0.8468  0.5127
  131MOL   C14734207   4.057   6.188   7.682 -0.4174 -0.5482  0.2678
  131MOL   C14834208   4.096   6.221   7.820 -0.4141  0.2657 -0.1281
  131MOL   C14934209   4.099   6.296   7.571  1.1758  0.3773 -0.5028
  131MOL   H15034210   4.028   6.048   7.440  1.4311  0.0764  1.7570
  131MOL   H15134211   3.954   5.910   7.506 -2.1872 -0.7824  2.3495
  131MOL   H15234212   3.983   6.002   7.730  0.6518 -0.1581 -0.2014
  131MOL   H15334213   4.065   6.320   7.851 -0.6582 -0.5282  2.2737
  131MOL   H15434214   4.205   6.212   7.818 -0.2919  1.5494  0.4378
  131MOL   H15534215   4.057   6.142   0.006 -2.7856  2.5843  1.3314
  131MOL   H15634216   4.112   6.397   7.611  1.4045 -0.1065  0.6476
  131MOL   H15734217   4.013   6.289   7.504 -0.4171 -1.7460  1.6709
  131MOL   C15834218   4.225   6.261   7.495  0.4296  0.1185  0.3445
  131MOL   C15934219   4.251   6.353   7.383  0.3253  0.4914  0.0647
  131MOL   C16034220   4.311   6.320   7.268 -0.0127  0.1756 -0.4906
  131MOL   C16134221   4.374   6.185   7.248 -0.4908  0.0270  0.7511
  131MOL   C16234222   4.301   6.417   7.145 -0.5113  0.0000 -0.0434
  131MOL   H16334223   4.209   6.163   7.452 -0.6022  1.7035 -3.0537
  131MOL   H16434224   4.308   6.262   7.566  0.0040 -0.3211  0.8536
  131MOL   H16534225   4.195   6.446   7.383  0.7550  0.7682  1.2687
  131MOL   H16634226   4.464   6.197   7.189  0.1578  0.0867  1.7453
  131MOL   H16734227   4.301   6.116   7.206 -0.6489  0.0708  0.9529
  131MOL   H16834228   4.416   6.143   7.339  0.6434 -1.3685 -0.4010
  131MOL   H16934229   4.227   6.495   7.162 -1.3360 -0.8926  0.4807
  131MOL   H17034230   4.262   6.361   7.060  0.5878  1.5466 -1.6086
  131MOL   C17134231   4.429   6.480   7.090 -0.3113 -0.5576  0.4223
  131MOL   C17234232   4.416   6.551   6.961 -0.0743 -0.0742 -0.1411
  131MOL   C17334233   4.464   6.523   6.842 -0.0654 -0.7596  0.5724
  131MOL   C17434234   4.547   6.396   6.816  0.8275  0.2346  0.1202
  131MOL   C17534235   4.442   6.620   6.731 -0.1027 -0.0503  0.2757
  131MOL   H17634236   4.491   6.393   7.068 -1.4559 -0.9568 -1.3637
  131MOL   H17734237   4.489   6.542   7.156 -1.0474  1.0640 -0.4229
  131MOL   H17834238   4.361   6.644   6.974  0.5579 -0.0276  2.5013
  131MOL   H17934239   4.638   6.377   6.873  1.6480  1.0813 -0.8934
  131MOL   H18034240   4.590   6.392   6.716  0.5313 -0.4898  0.0149
  131MOL   H18134241   4.488   6.305   6.830  1.9096 -0.0900  3.1589
  131MOL   H18234242   4.538   6.632   6.682 -0.2930 -0.9634 -0.3368
  131MOL   H18334243   4.416   6.717   6.773 -1.2441  0.6567 -2.0031
  131MOL   C18434244   4.328   6.572   6.637  0.1578  0.4205 -0.2668
  131MOL   C18534245   4.308   6.667   6.523  0.1543 -0.6356  0.3064
  131MOL   C18634246   4.299   6.640   6.396 -0.4374  1.2271  0.4785
  131MOL   C18734247   4.284   6.752   6.291  0.0889 -0.2946  0.4937
  131MOL   C18834248   4.292   6.503   6.337  0.3125  0.7121  0.7781
  131MOL   H18934249   4.238   6.590   6.696  1.1438  0.4418  1.2872
  131MOL   H19034250   4.329   6.467   6.608 -2.8636  0.5701 -1.0540
  131MOL   H19134251   4.297   6.769   6.555 -0.1515 -0.6993  0.4062
  131MOL   H19234252   4.244   6.845   6.332  0.7561 -0.3619  1.3125
  131MOL   H19334253   4.218   6.718   6.211 -0.0061 -0.9379  0.8469
  131MOL   H19434254   4.381   6.769   6.244 -0.3076  0.7463  0.0368
  131MOL   H19534255   4.338   6.429   6.401 -1.0664 -2.5100 -1.7868
  131MOL   H19634256   4.351   6.495   6.245  0.7998 -0.4756  1.1862
  131MOL   C19734257   4.139   6.455   6.331 -0.5088  0.0769  0.4809
  131MOL   C19834258   4.120   6.306   6.275 -0.0117  0.1589 -0.2663
  131MOL   C19934259   4.066   6.209   6.347 -0.2278  0.3830 -0.0089
  131MOL   C20034260   4.060   6.065   6.295 -0.0281  0.4619  0.5416
  131MOL   C20134261   4.015   6.231   6.492 -0.3065 -0.4361 -0.4626
  131MOL   H20234262   4.086   6.526   6.266 -4.4197 -0.4159  2.9663
  131MOL   H20334263   4.098   6.467   6.431 -0.5609 -0.0899  0.4797
  131MOL   H20434264   4.144   6.283   6.173 -0.3440  1.0167 -0.5384
  131MOL   H20534265   4.108   6.052   6.198 -1.1230 -2.6055  0.3439
  131MOL   H20634266   3.953   6.052   6.279  0.1337 -0.3523  0.0587
  131MOL   H20734267   4.104   6.001   6.371  0.7538 -0.6330 -0.8062
  131MOL   H20834268   3.937   6.156   6.509  1.7271 -2.3888  0.4243
  131MOL   H20934269   3.962   6.326   6.502 -2.1964 -1.3933 -1.1055
  131MOL   C21034270   4.122   6.216   6.600  0.4810  0.4288  0.8768
  131MOL   C21134271   4.058   6.226   6.743 -0.2322  0.0930 -0.2006
  131MOL   C21234272   4.085   6.154   6.851 -0.0992 -0.6353 -0.3520
  131MOL   C21334273   4.030   6.201   6.981  0.3484  0.1058  0.5960
  131MOL   C21434274   4.172   6.034   6.847  0.4205  0.3395 -0.0887
  131MOL   H21534275   4.200   6.291   6.590  1.5223 -0.9495 -1.6235
  131MOL   H21634276   4.180   6.125   6.586 -1.1250 -0.7138  1.5204
  131MOL   H21734277   4.012   6.322   6.761 -3.0149 -0.5291 -3.4905
  131MOL   H21834278   3.980   6.297   6.969 -1.4519 -0.8200  0.4939
  131MOL   H21934279   4.106   6.206   7.059  0.8879  1.5945 -0.0070
  131MOL   H22034280   3.954   6.132   7.017 -1.1755  1.8021  0.7111
  131MOL   H22134281   4.165   5.980   6.752  1.0291  0.6765 -0.3259
  131MOL   H22234282   4.126   5.960   6.913  0.8916  1.2911  1.3210
  131MOL   C22334283   4.317   6.067   6.879 -0.5521 -0.0211  0.6969
  131MOL   C22434284   4.380   5.955   6.952 -0.7434 -0.0603  0.5951
  131MOL   C22534285   4.508   5.912   6.936 -0.3228  0.4654  0.2601
  131MOL   C22634286   4.559   5.801   7.025  0.2774  0.8599 -0.2493
  131MOL   C22734287   4.617   5.966   6.842  0.2392 -0.2857 -0.2519
  131MOL   H22834288   4.334   6.139   6.960 -1.0088 -0.8345  1.5209
  131MOL   H22934289   4.363   6.103   6.787 -3.2277  0.1839 -0.6065
  131MOL   H23034290   4.332   5.903   7.034 -1.5610  0.5128  0.4869
  131MOL   H23134291   4.613   5.737   6.956  0.0360  2.5589 -2.0467
  131MOL   H23234292   4.481   5.756   7.086  1.0638  0.5489  0.5373
  131MOL   H23334293   4.626   5.840   7.102 -3.7758  0.8739  3.4204
  131MOL   H23434294   4.588   6.024   6.754  1.7449 -0.4312 -0.8688
  131MOL   H23534295   4.674   5.882   6.801  1.6590 -0.0275  1.1396
  131MOL   C23634296   4.712   6.062   6.915 -0.8086  0.4136  0.0324
  131MOL   C23734297   4.826   6.110   6.832 -0.5154  0.3279  0.0930
  131MOL   C23834298   4.918   6.210   6.851 -0.3492  0.0527 -0.6006
  131MOL   C23934299   5.034   6.231   6.761  0.8158  0.4217  0.8745
  131MOL   C24034300   4.906   6.308   6.964 -0.6222  0.2024 -0.1271
  131MOL   H24134301   4.756   6.023   7.006  0.0456 -0.3859 -0.7044
  131MOL   H24234302   4.650   6.147   6.942 -1.4097  0.1379 -0.4726
  131MOL   H24334303   4.853   6.048   6.747 -2.5767  0.2377 -0.5075
  131MOL   H24434304   5.028   6.181   6.665  2.0692 -1.0634  1.5569
  131MOL   H24534305   5.116   6.190   6.820  1.5099 -2.4105 -1.9064
  131MOL   H24634306   5.046   6.337   6.740  0.4336  0.4394  0.7303
  131MOL   H24734307   4.983   6.289   7.040  2.7042  1.6046 -3.0068
  131MOL   H24834308   4.812   6.281   7.013 -0.2272  0.3028  0.7088
  131MOL   C24934309   4.916   6.461   6.919 -0.0847  0.2024 -0.1948
  131MOL   C25034310   4.839   6.542   7.019  0.6229 -0.2653 -0.2972
  131MOL   C25134311   4.767   6.652   7.005 -0.0367  0.2974  0.7069
  131MOL   C25234312   4.694   6.726   7.123 -0.0114  0.4970 -0.3515
  131MOL   C25334313   4.744   6.712   6.864  0.0020 -0.1144 -0.2607
  131MOL   H25434314   4.869   6.464   6.820  1.4404 -1.1877 -0.9862
  131MOL   H25534315   5.017   6.504   6.924  0.5705 -1.3133 -0.0864
  131MOL   H25634316   4.847   6.483   7.109  1.9284 -1.5511 -1.2316
  131MOL   H25734317   4.587   6.741   7.107 -0.5042 -2.4033  0.0131
  131MOL   H25834318   4.736   6.820   7.160 -2.1256  1.4305 -0.2452
  131MOL   H25934319   4.701   6.658   7.208 -0.5886  1.3611  0.4113
  131MOL   H26034320   4.771   6.650   6.779 -0.1237 -0.2334 -0.2130
  131MOL   H26134321   4.812   6.797   6.855  1.7577 -1.3255  1.2262
  131MOL   H26234322   4.639   6.739   6.851  0.0212 -0.4543 -1.1141
  132MOL     C134323   0.122   6.939   1.817 -0.3251  0.3423 -0.2467
  132MOL     C234324   0.132   7.069   1.739 -0.2112  0.7506  0.1236
  132MOL     C334325   0.234   7.112   1.660  1.1198 -0.1958 -0.0245
  132MOL     C434326   0.223   7.242   1.585  0.5124  0.3390  0.4473
  132MOL     C534327   0.351   7.031   1.625 -0.3989  0.6036 -0.1468
  132MOL     H634328   0.031   6.936   1.876 -0.3196 -0.2232 -0.2657
  132MOL     H734329   0.089   6.865   1.744 -0.5716  0.6336 -0.4326
  132MOL     H834330   0.060   7.146   1.764 -0.5064  0.5147  0.0052
  132MOL     H934331   0.323   7.284   1.593  1.0570 -0.7382 -0.6930
  132MOL    H1034332   0.149   7.311   1.627 -0.4993  0.4904 -1.5272
  132MOL    H1134333   0.213   7.224   1.478 -1.3236  1.2214  0.4363
  132MOL    H1234334   0.381   7.036   1.520  1.4429 -1.1903  0.2534
  132MOL    H1334335   0.324   6.925   1.626  0.8711  0.2419 -1.0019
  132MOL    H1434336   0.206   6.904   1.877 -1.1826 -4.5564 -1.6215
  132MOL    C1534337   0.464   7.056   1.720 -0.2521  0.6939 -0.3526
  132MOL    C1634338   0.589   6.987   1.680  0.1342  0.3294 -0.0236
  132MOL    C1734339   0.694   6.964   1.763  0.1065 -0.2001 -0.6254
  132MOL    C1834340   0.821   6.894   1.722  0.2985  0.3136 -0.4843
  132MOL    C1934341   0.689   6.991   1.917  0.3772  0.0527  0.0724
  132MOL    H2034342   0.429   7.013   1.814  1.3621 -0.5771 -0.3101
  132MOL    H2134343   0.481   7.157   1.758  0.6738  0.0807  0.9051
  132MOL    H2234344   0.590   6.951   1.578 -0.0769 -0.5292  0.2706
  132MOL    H2334345   0.837   6.883   1.615  2.8864  0.7166 -0.1745
  132MOL    H2434346   0.830   6.790   1.756  2.9638  0.0974 -1.7297
  132MOL    H2534347   0.904   6.938   1.777 -1.6993  1.2585  1.8350
  132MOL    H2634348   0.621   7.074   1.934  0.8468  0.1980  1.2295
  132MOL    H2734349   0.790   7.018   1.946  0.1241  0.3907  0.6456
  132MOL    C2834350   0.656   6.884   2.013  0.2931  0.3149 -0.5383
  132MOL    C2934351   0.669   6.924   2.159 -0.1771 -0.1091 -0.0224
  132MOL    C3034352   0.577   6.988   2.239  0.7389 -0.4419  0.6344
  132MOL    C3134353   0.616   7.032   2.377  0.1284 -0.1365 -0.3734
  132MOL    C3234354   0.436   7.010   2.191  0.8645 -1.1102 -0.1050
  132MOL    H3334355   0.726   6.804   1.989  1.4029  1.6058 -1.6790
  132MOL    H3434356   0.559   6.841   1.989 -0.3125  1.6869 -0.5805
  132MOL    H3534357   0.762   6.895   2.205  0.2983 -0.1773 -1.0159
  132MOL    H3634358   0.724   7.017   2.387  0.8625  3.2898 -2.3562
  132MOL    H3734359   0.582   6.967   2.457  0.4995  0.0573 -0.0557
  132MOL    H3834360   0.599   7.136   2.406 -0.0177 -0.5208  0.9455
  132MOL    H3934361   0.418   6.985   2.086 -0.5703 -2.9673  0.5712
  132MOL    H4034362   0.416   7.117   2.184  3.5687 -0.3504  2.4888
  132MOL    C4134363   0.329   6.934   2.269  0.6885 -0.4322 -0.4341
  132MOL    C4234364   0.189   6.963   2.214 -1.1445  0.5053 -0.2644
  132MOL    C4334365   0.099   7.048   2.259  0.6884 -0.4546 -0.7445
  132MOL    C4434366   7.839   7.058   2.196 -1.2368  0.1265 -0.3975
  132MOL    C4534367   0.110   7.142   2.376  0.0676  0.1514 -0.3057
  132MOL    H4634368   0.332   6.954   2.376  0.3613  3.0635 -1.0266
  132MOL    H4734369   0.359   6.831   2.252  1.1399 -0.6516  1.6789
  132MOL    H4834370   0.171   6.904   2.125 -3.4588 -0.1351  0.6049
  132MOL    H4934371   7.757   7.064   2.268 -0.1837  0.5185  0.7961
  132MOL    H5034372   7.825   6.958   2.155 -3.6157  0.2293  0.0793
  132MOL    H5134373   7.840   7.137   2.121 -4.0102  0.9131  0.3369
  132MOL    H5234374   0.189   7.116   2.446 -4.0941 -2.7533  3.6582
  132MOL    H5334375   0.019   7.147   2.437  3.1169  1.4680  4.4339
  132MOL    C5434376   0.124   7.285   2.326 -0.1946 -0.9214 -0.2178
  132MOL    C5534377   0.200   7.369   2.429 -0.1954 -0.1415 -0.7048
  132MOL    C5634378   0.155   7.485   2.490 -0.0467  0.6557 -0.1575
  132MOL    C5734379   0.239   7.559   2.593 -0.3347  0.0202 -0.8305
  132MOL    C5834380   0.015   7.542   2.465 -0.0825 -0.8316  0.2765
  132MOL    H5934381   0.037   7.333   2.281  0.5461  0.6030 -0.0427
  132MOL    H6034382   0.194   7.287   2.243  0.5633  0.0580  0.4221
  132MOL    H6134383   0.299   7.330   2.447 -0.2671  0.1061  0.2192
  132MOL    H6234384   0.345   7.533   2.587  0.4480  2.6697  0.9251
  132MOL    H6334385   0.205   7.539   2.694  1.5448 -0.5828 -0.3050
  132MOL    H6434386   0.235   7.668   2.581  0.9388  0.0497 -1.0665
  132MOL    H6534387   7.852   7.573   2.561 -1.1082 -2.9166  0.5294
  132MOL    H6634388   7.833   7.461   2.426 -0.8589 -0.3548  0.4896
  132MOL    C6734389   0.009   7.659   2.367  0.3744  0.2175  0.2132
  132MOL    C6834390   7.754   7.731   2.356 -0.0711 -0.5140 -0.3071
  132MOL    C6934391   7.713   7.859   2.380 -0.2389 -0.0765  0.7028
  132MOL    C7034392   7.579   0.021   2.330  0.4678 -0.3045 -0.3747
  132MOL    C7134393   7.807   0.091   2.434  0.0836  0.5028 -0.1293
  132MOL    H7234394   0.046   7.640   2.267  0.5560 -0.0288  0.3281
  132MOL    H7334395   0.077   7.729   2.414 -1.4876  0.2286  3.0412
  132MOL    H7434396   7.678   7.680   2.299 -0.3958  1.0313 -1.2897
  132MOL    H7534397   7.513   0.040   2.414  1.0949  2.1892 -0.3884
  132MOL    H7634398   7.526   7.826   2.271  0.7682 -0.7331 -0.1078
  132MOL    H7734399   7.579   0.120   2.284  0.8823  0.5144  1.3551
  132MOL    H7834400   7.797   0.177   2.367  0.6667 -0.5104 -1.5409
  132MOL    H7934401   0.034   0.068   2.431  0.5887  2.7495 -0.3873
  132MOL    C8034402   7.767   0.127   2.575  0.5956 -0.4745 -1.4677
  132MOL    C8134403   7.808   0.015   2.669  0.3188  0.4828 -0.3439
  132MOL    C8234404   7.845   0.021   2.798 -0.6511 -0.0074  0.1468
  132MOL    C8334405   7.865   0.155   2.868 -0.5440 -0.2654 -0.9489
  132MOL    C8434406   0.024   7.785   2.877  0.0484  0.0564  0.0588
  132MOL    H8534407   7.659   0.130   2.593  0.2791 -0.6060 -3.2464
  132MOL    H8634408   7.812   0.222   2.604 -0.5320 -0.1826 -0.6316
  132MOL    H8734409   7.804   7.791   2.638 -1.1840 -0.0067  1.4182
  132MOL    H8834410   0.073   0.213   2.839  0.5489 -0.7691  1.2749
  132MOL    H8934411   0.009   0.135   2.972  2.8346  0.8247 -1.4174
  132MOL    H9034412   7.769   0.206   2.860 -0.5858 -0.5109 -2.2270
  132MOL    H9134413   0.003   7.692   2.825  2.5255  1.1835 -3.1085
  132MOL    H9234414   7.849   7.773   2.971 -1.2089 -0.4585 -0.7171
  132MOL    C9334415   0.178   7.796   2.894 -0.4237  0.0694 -0.1148
  132MOL    C9434416   0.228   7.676   2.979 -0.3508  0.1807  0.1137
  132MOL    C9534417   0.297   7.672   3.096 -0.3777 -0.0131  0.3896
  132MOL    C9634418   0.336   7.538   3.159  0.1094 -0.3566  0.0520
  132MOL    C9734419   0.339   7.793   3.176  0.7257 -0.8434 -0.0034
  132MOL    H9834420   0.209   0.012   2.937 -1.0859  0.4604 -0.5037
  132MOL    H9934421   0.233   7.780   2.802  1.3191 -0.8852  1.0692
  132MOL   H10034422   0.194   7.580   2.943  3.3859 -1.3560  0.4470
  132MOL   H10134423   0.320   7.456   3.089 -3.7500 -0.0779  0.5334
  132MOL   H10234424   0.439   7.546   3.196 -0.1697 -0.2861  0.8311
  132MOL   H10334425   0.269   7.512   3.241 -0.3412  3.1062  0.8618
  132MOL   H10434426   0.327   7.779   3.283  0.6651  1.7377  0.3570
  132MOL   H10534427   0.274   7.877   3.151  1.2620  0.1160  1.7836
  132MOL   C10634428   0.490   7.828   3.150  0.1476 -0.0849 -0.1612
  132MOL   C10734429   0.518   0.089   3.203 -0.4097  0.0987 -0.6758
  132MOL   C10834430   0.573   0.114   3.325  0.1995 -0.3536 -0.6680
  132MOL   C10934431   0.635   0.012   3.414  0.5925  0.5141  0.1634
  132MOL   C11034432   0.583   0.255   3.381  0.3116  0.5431  0.0464
  132MOL   H11134433   0.507   7.814   3.043 -0.0507 -2.3884  0.0738
  132MOL   H11234434   0.559   7.757   3.197  1.9727  0.9344 -1.2250
  132MOL   H11334435   0.479   0.171   3.146  0.4114  1.9807  1.3843
  132MOL   H11434436   0.743   0.011   3.401  0.3321 -1.3560 -2.1016
  132MOL   H11534437   0.632   0.042   3.519 -1.2511 -1.7855  0.8063
  132MOL   H11634438   0.593   7.791   3.408  2.3763 -0.2485  0.3016
  132MOL   H11734439   0.529   0.246   3.475  2.0162  0.2203  1.0086
  132MOL   H11834440   0.524   0.330   3.329 -0.6517  0.2326  0.6738
  132MOL   C11934441   0.724   0.304   3.409 -0.4168  0.2557  0.1181
  132MOL   C12034442   0.729   0.411   3.513 -0.1769  0.8315 -0.6537
  132MOL   C12134443   0.796   0.526   3.516 -0.0547  0.7455  0.7235
  132MOL   C12234444   0.809   0.603   3.646 -0.2676 -0.4799 -0.0166
  132MOL   C12334445   0.859   0.592   3.390 -0.3429  0.3675  0.3950
  132MOL   H12434446   0.766   0.342   3.316 -0.6765  0.6840  0.1716
  132MOL   H12534447   0.799   0.228   3.428  1.4232  1.4435 -2.1343
  132MOL   H12634448   0.685   0.378   3.606  1.5392  0.8647  0.2107
  132MOL   H12734449   0.794   0.534   3.729 -1.1780  0.4956  0.6456
  132MOL   H12834450   0.737   0.684   3.655 -1.0904 -1.0729 -1.2292
  132MOL   H12934451   0.914   0.633   3.644  0.1042 -1.8620 -1.4906
  132MOL   H13034452   0.819   0.693   3.401  0.1801  0.8138 -1.4864
  132MOL   H13134453   0.815   0.557   3.297  0.9734  2.0382 -0.8902
  132MOL   C13234454   1.014   0.575   3.388 -0.0500 -0.7800  0.4064
  132MOL   C13334455   1.076   0.640   3.265  0.2707 -0.0562  0.9295
  132MOL   C13434456   1.138   0.581   3.163 -0.4048 -0.0008  0.1523
  132MOL   C13534457   1.198   0.665   3.055 -0.2592 -0.0488  0.3240
  132MOL   C13634458   1.146   0.435   3.147 -0.1946 -0.0596  0.1030
  132MOL   H13734459   1.033   0.468   3.399 -2.8355 -1.1855  1.9385
  132MOL   H13834460   1.067   0.612   3.475  2.0978 -1.5765 -0.5338
  132MOL   H13934461   1.071   0.748   3.262  0.7561 -0.0246  1.1735
  132MOL   H14034462   1.130   0.651   2.972 -0.5443 -0.5360  0.6358
  132MOL   H14134463   1.303   0.657   3.024 -0.1644  0.4711  0.5106
  132MOL   H14234464   1.201   0.773   3.070 -0.5641  0.0657 -0.4241
  132MOL   H14334465   1.108   0.396   3.052  1.6635  0.2585 -0.8079
  132MOL   H14434466   1.067   0.396   3.210 -0.4269 -0.4191 -0.4087
  132MOL   C14534467   1.288   0.383   3.172  1.2724 -0.0472 -0.2248
  132MOL   C14634468   1.287   0.234   3.189  0.1234  0.3328 -0.1138
  132MOL   C14734469   1.377   0.146   3.145 -0.3523  0.4636  0.4309
  132MOL   C14834470   1.359   7.876   3.179  0.4873  0.5915 -0.0033
  132MOL   C14934471   1.506   0.174   3.056 -0.5595  0.7479 -0.3099
  132MOL   H15034472   1.326   0.426   3.265  2.1234  0.2356 -0.7073
  132MOL   H15134473   1.360   0.398   3.092  0.7746 -0.2011 -0.7065
  132MOL   H15234474   1.202   0.198   3.244  0.9456 -2.0916 -0.3766
  132MOL   H15334475   1.400   7.809   3.104  0.9371 -1.5321  2.0753
  132MOL   H15434476   1.252   7.855   3.191  0.5541 -1.1422 -2.1595
  132MOL   H15534477   1.409   7.860   3.274  1.3755  2.2871 -0.1628
  132MOL   H15634478   1.599   0.148   3.106 -0.9012 -0.3616 -0.2416
  132MOL   H15734479   1.516   0.276   3.018  0.7653 -0.5272 -3.5199
  132MOL   C15834480   1.508   0.100   2.921  0.5063  0.5613  0.0335
  132MOL   C15934481   1.381   0.132   2.851 -0.0600  1.2236 -0.2146
  132MOL   C16034482   1.368   0.220   2.755  0.1795  0.3079 -0.3402
  132MOL   C16134483   1.470   0.315   2.708 -0.1231 -0.0131 -0.2253
  132MOL   C16234484   1.245   0.220   2.671  0.2864  0.3037  0.0083
  132MOL   H16334485   1.518   7.870   2.925  2.8359  0.7953  1.0661
  132MOL   H16434486   1.599   0.124   2.866  0.6456 -0.4476 -0.1987
  132MOL   H16534487   1.296   0.068   2.870  0.3844  1.1205  1.5443
  132MOL   H16634488   1.455   0.422   2.724 -1.9463 -0.1846 -0.7351
  132MOL   H16734489   1.473   0.304   2.600  1.7361  0.7657 -0.2699
  132MOL   H16834490   1.572   0.288   2.735  0.6289  0.1412 -2.7744
  132MOL   H16934491   1.183   0.134   2.697 -0.0693  0.9931  1.5146
  132MOL   H17034492   1.273   0.200   2.568  0.0547 -0.8968  0.1692
  132MOL   C17134493   1.167   0.350   2.675  1.0262 -0.3661  0.4956
  132MOL   C17234494   1.031   0.330   2.620 -0.6805 -0.1838  0.2459
  132MOL   C17334495   0.983   0.380   2.503 -0.3501 -0.6300 -0.1212
  132MOL   C17434496   1.058   0.470   2.405 -0.7640 -0.2347  0.2766
  132MOL   C17534497   0.841   0.344   2.477  0.2134  0.2757  0.1887
  132MOL   H17634498   1.216   0.433   2.624  0.3061 -1.6878 -2.4207
  132MOL   H17734499   1.148   0.376   2.779  1.8699  0.2309  0.5014
  132MOL   H17834500   0.960   0.268   2.674 -0.7905  0.2548  0.6068
  132MOL   H17934501   1.132   0.541   2.443 -0.8254  0.1046 -0.2328
  132MOL   H18034502   0.987   0.546   2.372  1.5413  1.6250 -0.5577
  132MOL   H18134503   1.090   0.429   2.309  1.7988 -2.0004  1.8301
  132MOL   H18234504   0.781   0.428   2.444  0.8593  1.0260  0.8959
  132MOL   H18334505   0.796   0.306   2.569 -0.3388  0.9870  0.2099
  132MOL   C18434506   0.832   0.238   2.370  0.3806 -0.6974  0.0706
  132MOL   C18534507   0.853   0.092   2.406 -0.1582 -0.1662 -0.4317
  132MOL   C18634508   0.942   0.003   2.352  0.9620  0.0722 -0.1797
  132MOL   C18734509   0.938   7.735   2.393  0.0145 -0.0338  0.0724
  132MOL   C18834510   1.048   0.041   2.250 -0.0773 -0.6788 -0.2248
  132MOL   H18934511   0.882   0.282   2.283  0.6701 -0.3780  0.3928
  132MOL   H19034512   0.727   0.250   2.341  0.0838 -0.2998  1.2841
  132MOL   H19134513   0.784   0.056   2.482 -2.3025  1.8523 -1.3669
  132MOL   H19234514   0.842   7.706   2.436 -0.5967  1.4306 -0.2820
  132MOL   H19334515   1.018   7.718   2.465  0.5177  3.1191  0.3325
  132MOL   H19434516   0.944   7.673   2.304 -1.6941  0.3306 -0.3111
  132MOL   H19534517   1.146   7.876   2.270  0.1140 -0.2484 -0.2082
  132MOL   H19634518   1.066   0.148   2.254 -2.6501 -0.0447 -3.4327
  132MOL   C19734519   1.013   0.021   2.107  0.0614  0.4731  0.4396
  132MOL   C19834520   1.130   0.074   2.022  0.6797  0.1612  0.3231
  132MOL   C19934521   1.225   7.869   1.975  0.2056  0.1446 -0.4685
  132MOL   C20034522   1.347   0.045   1.903  0.1974  1.0338 -0.6444
  132MOL   C20134523   1.223   7.718   1.973  0.3395 -0.5989  0.0778
  132MOL   H20234524   0.923   0.074   2.076 -1.6052 -1.9768  0.8664
  132MOL   H20334525   0.993   7.799   2.071 -1.3633  0.3431  1.5147
  132MOL   H20434526   1.135   0.182   2.015 -2.9390  0.3456 -0.4349
  132MOL   H20534527   1.337   0.054   1.795 -0.7010 -0.9121 -0.7448
  132MOL   H20634528   1.434   7.859   1.910  1.0070  1.7491 -3.7153
  132MOL   H20734529   1.377   0.144   1.936 -0.4225 -0.1039  3.6806
  132MOL   H20834530   1.162   7.681   2.056  1.6889 -1.4637  0.6884
  132MOL   H20934531   1.325   7.681   1.978  0.1464 -1.1210  0.1873
  132MOL   C21034532   1.160   7.661   1.847  0.4168  0.8806 -0.2803
  132MOL   C21134533   1.171   7.511   1.859 -0.0815  0.3176 -0.4867
  132MOL   C21234534   1.073   7.414   1.827 -0.8521  0.2824 -0.0351
  132MOL   C21334535   1.111   7.272   1.837  0.6692 -0.1964  0.3014
  132MOL   C21434536   0.931   7.435   1.779  0.1959 -0.1696  0.1456
  132MOL   H21534537   1.220   7.693   1.762  0.5076 -1.3763 -1.0785
  132MOL   H21634538   1.058   7.687   1.818  0.4973  2.7562  0.9799
  132MOL   H21734539   1.273   7.476   1.865 -0.5674 -0.6469  2.6727
  132MOL   H21834540   1.211   7.247   1.871  1.2477  0.6970 -0.7010
  132MOL   H21934541   1.104   7.224   1.739  1.7242 -0.1020  0.1843
  132MOL   H22034542   1.036   7.224   1.901  1.4277 -2.1436 -0.2399
  132MOL   H22134543   0.877   7.518   1.823 -0.4602 -0.3779 -0.2564
  132MOL   H22234544   0.863   7.360   1.820 -1.0648  1.4587  1.0545
  132MOL   C22334545   0.909   7.444   1.625 -0.6067  0.0923  0.2170
  132MOL   C22434546   0.761   7.419   1.589 -0.1239 -0.6012  0.0582
  132MOL   C22534547   0.719   7.341   1.489 -0.1236 -0.2728 -0.4475
  132MOL   C22634548   0.568   7.320   1.477 -0.4536 -0.1374  0.3123
  132MOL   C22734549   0.810   7.265   1.396 -0.2909  0.1518 -0.0360
  132MOL   H22834550   0.976   7.377   1.571  1.2613  0.7827  1.6340
  132MOL   H22934551   0.924   7.547   1.593  2.6525 -0.1480  0.8142
  132MOL   H23034552   0.688   7.473   1.648 -2.5465  0.1149 -3.4065
  132MOL   H23134553   0.543   7.223   1.434  1.6935 -0.6071  0.0148
  132MOL   H23234554   0.527   7.396   1.411  0.8446 -1.3071 -1.9107
  132MOL   H23334555   0.528   7.341   1.576 -2.0447  1.1977 -0.5862
  132MOL   H23434556   0.909   7.310   1.389 -0.1657 -0.3107 -1.4618
  132MOL   H23534557   0.767   7.266   1.295  3.4916  1.0858 -1.7291
  132MOL   C23634558   0.839   7.114   1.440  0.1528 -0.7755 -0.2915
  132MOL   C23734559   0.933   7.054   1.332 -0.3827  0.3691 -0.3597
  132MOL   C23834560   1.066   7.036   1.335  0.4757  0.1650 -0.5603
  132MOL   C23934561   1.153   6.970   1.227 -0.4674  0.0635  0.3329
  132MOL   C24034562   1.157   7.093   1.448  0.0223  0.2237  0.3204
  132MOL   H24134563   0.746   7.057   1.443  0.4714 -1.2088  2.7849
  132MOL   H24234564   0.888   7.114   1.537 -0.7559  0.2803  0.1936
  132MOL   H24334565   0.880   7.021   1.244  0.4310 -0.2860 -0.6087
  132MOL   H24434566   1.101   6.931   1.139  0.4116  2.8948 -1.5132
  132MOL   H24534567   1.199   6.884   1.276 -1.5180  0.5739  2.2317
  132MOL   H24634568   1.219   7.048   1.190 -1.3112  0.7999  0.3654
  132MOL   H24734569   1.103   7.182   1.480 -1.5693 -0.3821 -0.5970
  132MOL   H24834570   1.249   7.124   1.399 -1.6356  2.1225 -1.6718
  132MOL   C24934571   1.191   6.985   1.556  0.4066 -0.5051 -0.2567
  132MOL   C25034572   1.295   7.032   1.651  0.5931 -0.3183  0.3745
  132MOL   C25134573   1.309   6.990   1.781 -0.5450  0.5098  1.1977
  132MOL   C25234574   1.431   7.028   1.862 -1.0226  0.2894  0.2863
  132MOL   C25334575   1.210   6.925   1.867 -0.2191  0.5150 -0.2839
  132MOL   H25434576   1.216   6.890   1.507  0.0830  0.0023 -1.4236
  132MOL   H25534577   1.106   6.960   1.620 -0.5355  1.4174 -0.7350
  132MOL   H25634578   1.369   7.095   1.603 -0.0021  0.1192  0.0356
  132MOL   H25734579   1.515   7.067   1.804 -1.7062  1.7792  0.2893
  132MOL   H25834580   1.475   6.935   1.898  1.4836  0.7031 -1.5514
  132MOL   H25934581   1.409   7.094   1.945 -0.5868 -2.1159  2.3813
  132MOL   H26034582   1.160   7.001   1.926  0.7191  0.1864  0.9556
  132MOL   H26134583   1.249   6.848   1.934 -2.2208  0.4957  0.9005
  132MOL   H26234584   1.150   6.857   1.806  2.1230 -0.3968 -1.6454
  133MOL     C134585   4.843   0.123   7.541 -0.5697  0.2228 -0.4484
  133MOL     C234586   4.734   0.114   7.638  0.0088 -0.4694  0.3936
  133MOL     C334587   4.671   0.213   7.703  0.2731  0.6659 -0.0209
  133MOL     C434588   4.575   0.176   7.810  0.3750  0.5671 -0.6127
  133MOL     C534589   4.693   0.358   7.680 -0.1212  1.3775 -0.5320
  133MOL     H634590   4.936   0.135   7.596 -0.2103  0.8158 -1.1735
  133MOL     H734591   4.845   0.023   7.497  0.0950  0.4829 -1.0248
  133MOL     H834592   4.727   0.012   7.675 -0.4941 -0.7928 -0.5956
  133MOL     H934593   4.618   0.194   0.029 -0.4359 -1.6549  0.1915
  133MOL    H1034594   4.532   0.076   7.801 -3.2256  2.0564 -1.1855
  133MOL    H1134595   4.485   0.237   7.795  0.5873  0.7055 -1.3706
  133MOL    H1234596   4.791   0.367   7.633  0.8051 -1.5322  0.7487
  133MOL    H1334597   4.684   0.408   7.776 -1.3384  1.2066 -0.5402
  133MOL    H1434598   4.818   0.205   7.474 -1.6178  3.0953  3.3120
  133MOL    C1534599   4.579   0.406   7.581 -0.4350 -1.0086 -0.0897
  133MOL    C1634600   4.552   0.553   7.601 -0.1880 -0.3504 -0.7311
  133MOL    C1734601   4.514   0.643   7.510  0.1739 -0.5747  0.1354
  133MOL    C1834602   4.501   0.788   7.552  0.0631  0.2627 -0.0191
  133MOL    C1934603   4.489   0.612   7.364 -0.3155 -0.2385 -0.2182
  133MOL    H2034604   4.490   0.347   7.600  0.9952 -3.0169  0.5437
  133MOL    H2134605   4.620   0.386   7.481  0.6660  2.2556 -0.3564
  133MOL    H2234606   4.562   0.577   7.706 -3.4568 -2.5453  0.1514
  133MOL    H2334607   4.551   0.854   7.481  2.0148 -0.1803  0.8838
  133MOL    H2434608   4.538   0.797   7.654  0.9556  2.0870 -0.4799
  133MOL    H2534609   4.397   0.818   7.549 -0.7057 -2.3351 -0.6862
  133MOL    H2634610   4.584   0.584   7.317  0.3936  0.7711  0.5905
  133MOL    H2734611   4.468   0.704   7.310  0.5452 -0.0915 -0.3203
  133MOL    C2834612   4.379   0.515   7.331 -0.9720 -0.2669  0.5594
  133MOL    C2934613   4.387   0.489   7.180  0.7584 -0.3554  0.7574
  133MOL    C3034614   4.442   0.389   7.116  0.8287  0.3847  0.2082
  133MOL    C3134615   4.456   0.396   6.958 -0.4354 -0.2526 -0.2093
  133MOL    C3234616   4.522   0.278   7.179 -0.6181  0.0300  0.4734
  133MOL    H3334617   4.285   0.564   7.356 -0.5437  0.4601  0.7489
  133MOL    H3434618   4.390   0.424   7.389  1.0455 -0.5608 -0.2363
  133MOL    H3534619   4.357   0.574   7.119 -1.2811 -1.9289 -0.5011
  133MOL    H3634620   4.393   0.473   6.914  1.4737  2.1366  1.0971
  133MOL    H3734621   4.420   0.303   6.913 -3.1988  1.1087 -0.8931
  133MOL    H3834622   4.561   0.417   6.937 -0.5254 -2.0029 -2.6284
  133MOL    H3934623   4.549   0.287   7.284  0.6938  1.1976  0.0661
  133MOL    H4034624   4.614   0.281   7.119 -1.1109  3.7426 -0.2160
  133MOL    C4134625   4.452   0.146   7.164 -0.4307 -0.3606  0.2168
  133MOL    C4234626   4.527   0.037   7.235 -0.2897  0.6338  0.3959
  133MOL    C4334627   4.468   7.831   7.320  0.0735  0.3954  0.6144
  133MOL    C4434628   4.556   7.722   7.385 -0.1267 -1.1185  0.1220
  133MOL    C4534629   4.326   7.839   7.376  0.7410  0.4544 -0.0038
  133MOL    H4634630   4.429   0.116   7.061  0.3147 -0.8549  0.1924
  133MOL    H4734631   4.355   0.156   7.212  0.1756 -0.5135  1.4789
  133MOL    H4834632   4.632   0.031   7.211 -0.2558  1.2978  0.3735
  133MOL    H4934633   4.659   7.745   7.357  0.1368 -1.0113  1.1421
  133MOL    H5034634   4.536   7.618   7.360  0.8787 -1.0267 -1.1007
  133MOL    H5134635   4.548   7.735   7.493 -1.3611  1.4548 -0.2283
  133MOL    H5234636   4.289   7.738   7.391  1.5784  0.1208 -0.1553
  133MOL    H5334637   4.250   7.870   7.305  1.8371  0.4877 -1.1725
  133MOL    C5434638   4.311   0.047   7.500  0.1193 -0.5971 -0.8153
  133MOL    C5534639   4.172   0.042   7.555  0.3470 -0.2155  0.0430
  133MOL    C5634640   4.087   0.146   7.577 -0.5257 -0.2639 -0.2050
  133MOL    C5734641   3.942   0.133   7.632  1.0644  0.2801 -0.0416
  133MOL    C5834642   4.129   0.290   7.578  0.0544 -0.0049  0.1470
  133MOL    H5934643   4.348   0.146   7.473 -1.1953 -0.4645 -2.1582
  133MOL    H6034644   4.376   0.014   7.581 -1.0655  1.1002  0.8687
  133MOL    H6134645   4.133   7.820   7.554  0.5289 -0.2866 -2.6023
  133MOL    H6234646   3.911   0.029   7.631 -1.3961  0.9665  1.2958
  133MOL    H6334647   3.873   0.191   7.570  0.6766 -0.4667 -0.3197
  133MOL    H6434648   3.930   0.176   7.731 -1.6169 -1.1709  0.3113
  133MOL    H6534649   4.037   0.348   7.571 -0.5829 -0.8926  1.0116
  133MOL    H6634650   4.187   0.320   7.490  1.0506  2.5307  1.6164
  133MOL    C6734651   4.196   0.332   7.712  0.1372 -0.4889 -0.0948
  133MOL    C6834652   4.238   0.482   7.720  0.4741  0.2386  0.4372
  133MOL    C6934653   4.215   0.558   7.830  0.3417  0.4376  0.0103
  133MOL    C7034654   4.239   0.704   7.836  0.4042 -0.4445 -0.6311
  133MOL    C7134655   4.174   0.505   0.088 -0.3496 -0.0096  0.3943
  133MOL    H7234656   4.281   0.267   7.730  0.3761  0.3459  2.0238
  133MOL    H7334657   4.125   0.297   7.787  0.5080  0.0451  0.5165
  133MOL    H7434658   4.276   0.533   7.632  2.3544 -0.4318  0.8377
  133MOL    H7534659   4.320   0.720   0.028  1.1339  0.3969 -1.6243
  133MOL    H7634660   4.146   0.756   7.861  1.1013  0.9723 -0.8861
  133MOL    H7734661   4.268   0.729   7.734  0.9934  1.1692 -0.0947
  133MOL    H7834662   4.231   0.553   0.166  4.1280 -0.7520 -2.2613
  133MOL    H7934663   4.209   0.402   0.094  0.6537  0.3405  0.4839
  133MOL    C8034664   4.028   0.504   0.116 -0.0752 -0.1535 -0.2776
  133MOL    C8134665   3.996   0.430   0.248 -0.2057 -0.6170 -0.2466
  133MOL    C8234666   3.917   0.322   0.255 -0.2934 -0.9416  0.1129
  133MOL    C8334667   3.835   0.260   0.142 -0.3895  0.1458  0.3179
  133MOL    C8434668   3.896   0.252   0.392  0.5081  0.0949 -0.2867
  133MOL    H8534669   3.971   0.458   0.036 -2.7375 -2.0824  2.5788
  133MOL    H8634670   3.988   0.602   0.140 -1.0759 -1.0111  1.7783
  133MOL    H8734671   4.045   0.468   0.336  1.5326 -0.1715 -1.3760
  133MOL    H8834672   3.766   0.190   0.189 -0.1555 -0.4340 -0.1927
  133MOL    H8934673   3.900   0.216   0.066 -0.0049  0.1441  0.6480
  133MOL    H9034674   3.775   0.334   0.088  1.9812  1.0140 -1.1935
  133MOL    H9134675   3.788   0.247   0.407  0.6512  0.1714  0.8259
  133MOL    H9234676   3.940   0.304   0.477  1.4576  0.0700 -0.7576
  133MOL    C9334677   3.964   0.112   0.399  0.0404 -0.1076  0.1083
  133MOL    C9434678   3.957   0.045   0.533  0.6638 -0.1772 -0.4027
  133MOL    C9534679   3.881   7.826   0.586 -0.4328 -0.1644  1.0848
  133MOL    C9634680   3.899   7.790   0.736 -0.2721  0.1627  0.2529
  133MOL    C9734681   3.776   7.748   0.506  0.1088  0.0757  0.4699
  133MOL    H9834682   4.072   0.110   0.385  0.7357  0.2109  4.6575
  133MOL    H9934683   3.918   0.057   0.317 -1.3108  1.2986 -0.1100
  133MOL   H10034684   4.023   0.091   0.605  1.2272 -2.4748  0.5846
  133MOL   H10134685   3.978   7.849   0.781  0.5061 -0.6912  0.0284
  133MOL   H10234686   3.802   7.814   0.779 -0.1966  0.6518  0.1525
  133MOL   H10334687   3.920   7.686   0.763 -1.5055 -0.2573 -0.3428
  133MOL   H10434688   3.791   7.642   0.527  0.6797 -0.0904 -0.7810
  133MOL   H10534689   3.801   7.770   0.403 -1.8288 -0.7005 -0.1860
  133MOL   C10634690   3.630   7.785   0.547 -0.2031 -0.1443  0.2424
  133MOL   C10734691   3.601   0.053   0.517  0.0791  0.3701  0.4814
  133MOL   C10834692   3.581   0.156   0.600 -0.4087 -0.4681 -0.3605
  133MOL   C10934693   3.577   0.141   0.750  0.6812 -0.2303 -0.0747
  133MOL   C11034694   3.562   0.295   0.547  0.4611  0.4348 -0.0851
  133MOL   H11134695   3.607   7.749   0.647 -0.4077  0.3299  0.3674
  133MOL   H11234696   3.558   7.739   0.480  0.7600 -0.7077 -0.4232
  133MOL   H11334697   3.612   0.072   0.411 -1.3563  0.8948  0.4116
  133MOL   H11434698   3.679   0.134   0.788  1.6072  1.2042 -2.1623
  133MOL   H11534699   3.524   0.225   0.795  1.7671 -0.5873  1.9319
  133MOL   H11634700   3.532   0.049   0.785  1.3913 -0.9801 -1.1021
  133MOL   H11734701   3.460   0.325   0.574  0.6991 -0.7564  2.2520
  133MOL   H11834702   3.570   0.298   0.438  3.1535 -0.4429  0.0806
  133MOL   C11934703   3.657   0.395   0.609  0.5722 -0.0009 -0.1786
  133MOL   C12034704   3.678   0.519   0.521 -0.4650  0.3810 -0.9709
  133MOL   C12134705   3.713   0.648   0.564 -0.5411 -0.2531  0.6270
  133MOL   C12234706   3.740   0.759   0.470 -0.2907 -0.3940 -0.0683
  133MOL   C12334707   3.725   0.690   0.711  0.2955  0.1119  0.0629
  133MOL   H12434708   3.753   0.347   0.627 -0.0898 -0.7938  1.3514
  133MOL   H12534709   3.617   0.436   0.702 -0.6130 -1.2934 -0.0994
  133MOL   H12634710   3.680   0.489   0.417  3.6262 -1.0388 -0.5675
  133MOL   H12734711   3.670   0.839   0.494 -0.6635 -0.7844  0.1427
  133MOL   H12834712   3.718   0.738   0.365 -3.1141  1.4205  0.1136
  133MOL   H12934713   3.841   0.797   0.485 -0.2854 -0.7268  0.7407
  133MOL   H13034714   3.651   0.640   0.774 -1.4863  1.3702 -0.9694
  133MOL   H13134715   3.702   0.796   0.723  2.5354  0.5019  1.0461
  133MOL   C13234716   3.864   0.652   0.770  0.1224 -0.5296 -0.4731
  133MOL   C13334717   3.863   0.700   0.918  0.3847 -0.2652  0.2975
  133MOL   C13434718   3.883   0.627   1.030 -0.0739 -1.1702  0.4604
  133MOL   C13534719   3.872   0.701   1.165 -0.1097 -0.4233 -0.7918
  133MOL   C13634720   3.909   0.477   1.039 -0.0659  0.3701  0.3623
  133MOL   H13734721   3.931   0.716   0.712 -0.0322 -0.1842 -0.2763
  133MOL   H13834722   3.878   0.545   0.760  0.5785 -0.6031  0.9265
  133MOL   H13934723   3.836   0.804   0.929  1.7516  0.1862 -0.4512
  133MOL   H14034724   3.954   0.659   1.223 -0.6254 -0.0759  0.1810
  133MOL   H14134725   3.777   0.674   1.211  0.3126  1.3505  1.1452
  133MOL   H14234726   3.876   0.809   1.170  1.0553 -0.5490  1.3059
  133MOL   H14334727   4.009   0.466   1.081  1.0743  1.7673 -1.8728
  133MOL   H14434728   3.908   0.437   0.938 -1.0377 -0.2454  0.6110
  133MOL   C14534729   3.815   0.406   1.139 -0.2288  0.1094 -0.5351
  133MOL   C14634730   3.857   0.258   1.150  0.2118  0.1015  0.0046
  133MOL   C14734731   3.784   0.156   1.202 -0.1232  0.1947 -0.3247
  133MOL   C14834732   3.834   0.011   1.201  0.0566  0.1393  0.1744
  133MOL   C14934733   3.658   0.175   1.277 -0.6449 -0.0788 -0.0125
  133MOL   H15034734   3.713   0.405   1.099 -0.9062 -2.2845  1.1763
  133MOL   H15134735   3.812   0.447   1.240 -1.4791 -1.6965  0.1865
  133MOL   H15234736   3.937   0.221   1.088 -0.3656  0.8962 -1.2387
  133MOL   H15334737   3.869   7.856   1.104  1.4187 -0.6136  0.9042
  133MOL   H15434738   3.765   7.813   1.238  1.1916 -1.7850 -1.6262
  133MOL   H15534739   3.917   0.003   1.272  2.6780  2.5307 -2.4960
  133MOL   H15634740   3.588   0.094   1.258  0.0828 -0.4063 -1.3690
  133MOL   H15734741   3.610   0.270   1.253  0.9096  0.9311  0.8274
  133MOL   C15834742   3.689   0.175   1.425  0.7755 -0.3810  0.5915
  133MOL   C15934743   3.570   0.216   1.508 -0.5965  1.2118  0.2714
  133MOL   C16034744   3.573   0.298   1.615  0.1525  0.0693  0.2074
  133MOL   C16134745   3.688   0.390   1.662 -0.0561  1.0625  0.4397
  133MOL   C16234746   3.452   0.319   1.715 -0.4942  0.3259  0.0044
  133MOL   H16334747   3.781   0.227   1.452 -0.5537  2.8254 -0.8747
  133MOL   H16434748   3.716   0.071   1.447 -2.5616 -1.2002  1.1038
  133MOL   H16534749   3.474   0.170   1.489  0.2024  0.3271 -1.8072
  133MOL   H16634750   3.775   0.393   1.597  0.2397 -1.0151  0.7221
  133MOL   H16734751   3.717   0.336   1.752  2.2684 -0.5186 -1.2130
  133MOL   H16834752   3.642   0.486   1.686 -1.6416  0.9767 -2.0203
  133MOL   H16934753   3.434   0.426   1.704  1.0141  0.7168  1.2312
  133MOL   H17034754   3.482   0.321   1.820 -0.3690  0.6381 -0.0355
  133MOL   C17134755   3.324   0.236   1.692  0.7682  0.4530  0.5575
  133MOL   C17234756   3.256   0.269   1.570  0.1469 -0.3816  0.4001
  133MOL   C17334757   3.170   0.186   1.511  0.3442  0.5760  0.3179
  133MOL   C17434758   3.131   0.049   1.572 -0.2339  0.1179 -0.1365
  133MOL   C17534759   3.115   0.204   1.366  0.0551  0.2593 -0.8382
  133MOL   H17634760   3.263   0.278   1.773  1.2286  4.8111 -1.1762
  133MOL   H17734761   3.343   0.130   1.704 -0.1843  0.1462 -0.5405
  133MOL   H17834762   3.275   0.367   1.529  0.5454 -0.3396  0.6836
  133MOL   H17934763   3.048   0.064   1.641 -0.2112  0.6788 -0.2315
  133MOL   H18034764   3.212   0.003   1.629 -0.3113  0.3218  0.1371
  133MOL   H18134765   3.094   7.863   1.492 -2.3457  0.6000  0.4429
  133MOL   H18234766   3.007   0.196   1.357 -0.0148 -0.0780  0.2583
  133MOL   H18334767   3.150   0.114   1.316 -0.7130  1.2949 -3.2869
  133MOL   C18434768   3.154   0.327   1.282 -0.1608 -0.8172  0.5440
  133MOL   C18534769   3.110   0.325   1.132  0.2643  0.0718  0.5583
  133MOL   C18634770   3.167   0.256   1.030  0.6628  0.3781 -0.2204
  133MOL   C18734771   3.105   0.254   0.893 -0.7414  0.6449  0.4315
  133MOL   C18834772   3.292   0.171   1.046 -0.0639  0.2176  0.6510
  133MOL   H18934773   3.261   0.338   1.301 -0.8123 -0.2812  4.3706
  133MOL   H19034774   3.114   0.418   1.329  3.5849  1.3042 -0.1527
  133MOL   H19134775   3.022   0.385   1.114  1.6546  1.1087 -3.2560
  133MOL   H19234776   3.034   0.172   0.886 -1.3176  1.2231 -0.6319
  133MOL   H19334777   3.174   0.232   0.812 -2.0685 -1.7768 -0.0592
  133MOL   H19434778   3.069   0.356   0.878  1.3151  1.3982  0.4486
  133MOL   H19534779   3.348   0.180   1.139 -0.2793 -2.8786  1.1199
  133MOL   H19634780   3.362   0.209   0.971 -3.3442  1.7969 -1.7293
  133MOL   C19734781   3.248   0.020   1.013  0.1683 -0.1150 -0.0814
  133MOL   C19834782   3.352   7.795   1.042 -0.9153  0.2107 -0.3553
  133MOL   C19934783   3.359   7.678   0.988  0.2509  0.2479 -0.0768
  133MOL   C20034784   3.471   7.579   1.014  0.4128  0.2684 -0.3244
  133MOL   C20134785   3.257   7.627   0.887 -0.5696  0.1432 -0.5014
  133MOL   H20234786   3.225   0.012   0.907  1.1607 -3.0697 -0.1306
  133MOL   H20334787   3.162   7.878   1.077 -0.6516  0.2741 -1.0296
  133MOL   H20434788   3.439   7.815   1.103 -0.3953 -0.2325 -0.9475
  133MOL   H20534789   3.541   7.569   0.931  0.6832  1.7697 -0.2908
  133MOL   H20634790   3.431   7.479   1.035  0.6843  0.3979  0.8410
  133MOL   H20734791   3.531   7.591   1.104  1.8668 -0.9929 -1.0980
  133MOL   H20834792   3.157   7.663   0.911 -0.4201  0.3768 -0.2342
  133MOL   H20934793   3.241   7.519   0.886  1.5736 -0.2062 -1.1252
  133MOL   C21034794   3.289   7.664   0.749 -0.9258  0.0324 -0.9971
  133MOL   C21134795   3.171   7.639   0.652  0.4810  0.2754  0.4821
  133MOL   C21234796   3.165   7.569   0.537 -0.6393 -0.0680  0.0272
  133MOL   C21334797   3.034   7.538   0.474 -0.4379  0.5354 -0.4934
  133MOL   C21434798   3.286   7.499   0.481 -0.3497  0.1255  0.0919
  133MOL   H21534799   3.374   7.606   0.713  0.1804  0.1941  1.2534
  133MOL   H21634800   3.323   7.767   0.738 -0.7387  0.0153 -0.5923
  133MOL   H21734801   3.080   7.686   0.688 -0.9935  0.2208 -2.9394
  133MOL   H21834802   3.015   7.592   0.381  1.0859 -0.9874 -1.7130
  133MOL   H21934803   2.952   7.568   0.539 -1.9381  0.5300 -2.3375
  133MOL   H22034804   3.027   7.431   0.454 -0.8412  0.8270 -1.9902
  133MOL   H22134805   3.303   7.398   0.518 -2.2980 -0.1888  0.1841
  133MOL   H22234806   3.376   7.555   0.507 -0.2297  1.8994 -3.7275
  133MOL   C22334807   3.288   7.481   0.323 -0.3607 -0.3336  0.2714
  133MOL   C22434808   3.420   7.416   0.275  0.4313  0.2909 -0.2005
  133MOL   C22534809   3.499   7.458   0.175 -0.0057  0.7972 -0.0610
  133MOL   C22634810   3.616   7.370   0.122  0.5681  0.5828  0.4362
  133MOL   C22734811   3.488   7.593   0.104  0.6140  0.6576  0.5850
  133MOL   H22834812   3.268   7.578   0.278  1.5782  0.0096  0.1337
  133MOL   H22934813   3.200   7.421   0.299 -0.8527 -0.4765  2.3322
  133MOL   H23034814   3.440   7.316   0.311 -0.0763  0.2058 -0.1475
  133MOL   H23134815   3.708   7.419   0.155 -0.4096  2.4328  0.5182
  133MOL   H23234816   3.620   7.358   0.014 -2.5949  2.1362  0.0734
  133MOL   H23334817   3.619   7.270   0.165  2.6731  0.5975  0.3537
  133MOL   H23434818   3.407   7.649   0.151 -0.4713 -0.0153 -0.4444
  133MOL   H23534819   3.461   7.566   0.002 -2.7302 -0.1321  1.6027
  133MOL   C23634820   3.608   7.690   0.104  0.1349 -0.6784  0.2504
  133MOL   C23734821   3.604   7.776   7.860  0.4336 -0.7661 -0.2335
  133MOL   C23834822   3.568   0.028   7.850 -0.3755 -0.0024  0.3626
  133MOL   C23934823   3.571   0.094   7.713  0.0513 -0.2089 -0.0052
  133MOL   C24034824   3.503   0.106   0.082 -0.2810  0.1027 -0.2547
  133MOL   H24134825   3.704   7.640   0.116  0.3531 -0.7400 -1.6359
  133MOL   H24234826   3.598   7.749   0.195 -1.3473  1.7175 -1.4183
  133MOL   H24334827   3.655   7.728   7.778  1.6527  0.1525 -0.0268
  133MOL   H24434828   3.472   0.110   7.670  0.4514  3.6738  0.2780
  133MOL   H24534829   3.610   0.026   7.638 -0.3628  0.1001 -0.4996
  133MOL   H24634830   3.625   0.188   7.728  0.9524 -1.1752  3.2706
  133MOL   H24734831   3.529   0.211   0.077 -1.8014  0.6349  2.0625
  133MOL   H24834832   3.544   0.069   0.176  2.1967 -1.3808 -1.8672
  133MOL   C24934833   3.353   0.089   0.074  0.5942 -0.0799  0.2857
  133MOL   C25034834   3.275   0.187   0.169  0.7535  0.5378  0.6105
  133MOL   C25134835   3.241   0.152   0.295  0.5180 -0.0300  0.3757
  133MOL   C25234836   3.161   0.234   0.402 -1.0937  0.4064  0.9551
  133MOL   C25334837   3.283   0.017   0.359 -0.5562 -0.3017 -0.3135
  133MOL   H25434838   3.330   7.861   0.081 -0.0317  0.0493  0.2028
  133MOL   H25534839   3.316   0.109   7.853  3.1326 -0.6091 -0.8211
  133MOL   H25634840   3.253   0.286   0.131 -1.4724  0.6579  2.1370
  133MOL   H25734841   3.105   0.186   0.482 -0.8789  1.1322  1.5444
  133MOL   H25834842   3.086   0.291   0.346 -0.8551  0.8994  1.1329
  133MOL   H25934843   3.228   0.301   0.456 -0.9795  2.4598 -1.6225
  133MOL   H26034844   3.200   7.830   0.381 -1.3436  0.2391 -1.5781
  133MOL   H26134845   3.334   0.035   0.454 -1.6879  2.0376 -0.1111
  133MOL   H26234846   3.352   7.838   0.297  1.2329 -2.8572  3.9056
  134MOL     C134847   0.489   4.991   1.288 -0.4273  0.6901  0.0422
  134MOL     C234848   0.434   4.860   1.222 -0.3904  0.1829 -0.6778
  134MOL     C334849   0.497   4.770   1.141 -0.2638  0.4013 -0.3012
  134MOL     C434850   0.430   4.645   1.090  0.3098 -0.6884 -0.0491
  134MOL     C534851   0.648   4.784   1.099  0.4840  0.1086  0.3359
  134MOL     H634852   0.475   4.978   1.395  0.0653 -2.6848 -0.2710
  134MOL     H734853   0.593   5.023   1.276 -0.3860  0.4550 -0.2357
  134MOL     H834854   0.333   4.839   1.251 -0.0198  0.7825  1.0924
  134MOL     H934855   0.396   4.646   0.986  0.0223  2.3475  0.0184
  134MOL    H1034856   0.344   4.622   1.153  1.1908 -0.1157  1.3824
  134MOL    H1134857   0.501   4.563   1.095 -0.4949 -1.5864 -2.2930
  134MOL    H1234858   0.713   4.698   1.116  0.5274  0.2290  0.8038
  134MOL    H1334859   0.684   4.854   1.175 -1.4124  2.1405 -0.5573
  134MOL    H1434860   0.431   5.078   1.258  1.8680  2.6178  1.0007
  134MOL    C1534861   0.676   4.849   0.963 -0.0783 -0.2214  0.5540
  134MOL    C1634862   0.822   4.876   0.939 -0.1717 -0.0558 -0.3307
  134MOL    C1734863   0.883   4.991   0.911 -0.4290 -0.1202 -0.7092
  134MOL    C1834864   1.032   4.995   0.908 -0.3054  0.0807  0.0512
  134MOL    C1934865   0.806   5.121   0.890  0.2508  0.8075 -0.5601
  134MOL    H2034866   0.619   4.942   0.965 -1.6965 -1.2246  4.3193
  134MOL    H2134867   0.639   4.788   0.880  1.4310  0.7351 -0.8577
  134MOL    H2234868   0.883   4.795   0.974 -1.9085 -0.1148  2.6993
  134MOL    H2334869   1.061   4.965   0.808  1.0798 -0.7147  0.6768
  134MOL    H2434870   1.078   4.929   0.982  1.3589 -0.8106 -1.7257
  134MOL    H2534871   1.067   5.098   0.916  1.0898 -0.4378  0.9479
  134MOL    H2634872   0.703   5.101   0.862  0.4437 -1.3912  0.2275
  134MOL    H2734873   0.855   5.161   0.801  1.5753 -1.3662 -0.8439
  134MOL    C2834874   0.823   5.218   1.006  0.1423 -0.7099  0.1634
  134MOL    C2934875   0.738   5.344   0.981  0.2739  0.1056 -0.2806
  134MOL    C3034876   0.692   5.437   1.076  0.1065  0.1015 -0.0390
  134MOL    C3134877   0.597   5.551   1.023  0.1062  0.4805  0.3617
  134MOL    C3234878   0.730   5.443   1.225 -0.1943  0.3732 -0.4894
  134MOL    H3334879   0.925   5.255   1.021 -0.6729  1.4526  0.6907
  134MOL    H3434880   0.793   5.168   1.099  4.6799 -2.9343  0.5550
  134MOL    H3534881   0.721   5.360   0.876 -0.5263 -2.1996 -0.5369
  134MOL    H3634882   0.640   5.650   1.014 -0.9810  1.0327  1.1234
  134MOL    H3734883   0.512   5.571   1.088 -0.0268 -0.5162  0.5083
  134MOL    H3834884   0.564   5.524   0.922  0.2185  2.0591 -0.1011
  134MOL    H3934885   0.754   5.548   1.244  1.2791 -0.4592  2.6058
  134MOL    H4034886   0.824   5.388   1.225  0.0797  0.8398  0.1538
  134MOL    C4134887   0.630   5.372   1.319 -0.4443  0.6184  0.3073
  134MOL    C4234888   0.678   5.395   1.466  0.5729 -0.3824 -0.0952
  134MOL    C4334889   0.655   5.335   1.585 -0.9253 -0.0028  0.5302
  134MOL    C4434890   0.700   5.394   1.715  0.4365 -0.7950  0.3050
  134MOL    C4534891   0.577   5.208   1.595 -0.4062 -0.1823  0.3304
  134MOL    H4634892   0.634   5.267   1.289 -0.5504 -0.3249  3.4750
  134MOL    H4734893   0.528   5.408   1.303 -0.8302 -0.8404 -0.6202
  134MOL    H4834894   0.727   5.491   1.473 -1.8551  0.9346 -0.4285
  134MOL    H4934895   0.610   5.397   1.776 -1.0034 -1.8927 -1.7256
  134MOL    H5034896   0.740   5.494   1.698  0.3381 -1.0548 -1.5797
  134MOL    H5134897   0.773   5.331   1.766  0.2563  0.3272  1.9935
  134MOL    H5234898   0.524   5.190   1.501 -0.5721  0.7312  0.2405
  134MOL    H5334899   0.494   5.244   1.655 -1.0063 -0.2405 -0.4624
  134MOL    C5434900   0.651   5.080   1.633  0.0067 -0.0509 -0.4822
  134MOL    C5534901   0.567   4.965   1.695  1.0402  0.1489  0.4224
  134MOL    C5634902   0.575   4.835   1.680 -0.4744 -0.5337 -0.3047
  134MOL    C5734903   0.482   4.740   1.739 -0.4930  0.3293  0.4186
  134MOL    C5834904   0.695   4.774   1.623 -0.4961  0.8048  0.4406
  134MOL    H5934905   0.710   5.123   1.714  2.0290  0.1936 -2.0555
  134MOL    H6034906   0.722   5.036   1.563 -1.6063 -0.0950 -2.1371
  134MOL    H6134907   0.481   5.012   1.741 -0.3291  0.8271 -2.6897
  134MOL    H6234908   0.463   4.654   1.675 -0.0164 -0.6069  1.5080
  134MOL    H6334909   0.384   4.786   1.750 -0.8822 -0.0413 -1.3697
  134MOL    H6434910   0.502   4.713   1.843 -0.3193  0.2776  0.3721
  134MOL    H6534911   0.722   4.682   1.674  2.4751  1.0264 -0.6051
  134MOL    H6634912   0.780   4.833   1.659  0.2460 -0.2816  0.5067
  134MOL    C6734913   0.707   4.771   1.476 -0.0202  0.6116  0.7359
  134MOL    C6834914   0.845   4.728   1.423  0.4307  0.0257  1.0417
  134MOL    C6934915   0.934   4.798   1.351  0.7787 -0.4005  0.6118
  134MOL    C7034916   1.056   4.735   1.291  0.1085  0.0393 -0.4585
  134MOL    C7134917   0.925   4.949   1.309 -0.1530  0.7283 -0.0020
  134MOL    H7234918   0.674   4.867   1.438  1.1094  1.2438  1.3151
  134MOL    H7334919   0.644   4.693   1.435  0.0894 -0.1845  2.0267
  134MOL    H7434920   0.857   4.621   1.433  0.3899 -0.1487 -0.5281
  134MOL    H7534921   1.035   4.695   1.191 -0.2558 -1.3652  0.1777
  134MOL    H7634922   1.093   4.656   1.355  1.4689  0.0241 -1.2441
  134MOL    H7734923   1.135   4.806   1.265 -1.3558  2.1893  0.8247
  134MOL    H7834924   0.826   4.989   1.330 -0.6968 -0.6040  0.0832
  134MOL    H7934925   0.949   4.965   1.204  0.6333 -1.1957 -0.1507
  134MOL    C8034926   1.015   5.042   1.382 -0.0432  0.1417  0.3304
  134MOL    C8134927   1.167   5.033   1.363  0.4839  0.3933  0.3554
  134MOL    C8234928   1.265   4.998   1.445 -0.0365 -0.1733  0.3147
  134MOL    C8334929   1.239   4.963   1.593  0.0494 -0.1946  0.3001
  134MOL    C8434930   1.410   4.990   1.402 -0.1885  0.7755 -0.4494
  134MOL    H8534931   0.991   5.032   1.488 -0.2037  1.2444  0.4057
  134MOL    H8634932   0.993   5.149   1.373 -0.1711  0.2582  1.8595
  134MOL    H8734933   1.193   5.039   1.258  1.4719 -2.1582  0.4316
  134MOL    H8834934   1.296   4.872   1.608  0.1675 -0.3566 -1.0588
  134MOL    H8934935   1.141   4.916   1.600  0.1867 -0.9937 -2.6708
  134MOL    H9034936   1.260   5.043   1.664 -0.5148 -0.7125  1.0599
  134MOL    H9134937   1.468   5.042   1.478 -0.2108 -0.4490  0.4295
  134MOL    H9234938   1.422   5.053   1.314  0.0051 -0.9037 -1.6495
  134MOL    C9334939   1.460   4.848   1.376  0.2945 -0.9263  0.2617
  134MOL    C9434940   1.592   4.849   1.301  0.6998  0.0550 -0.4689
  134MOL    C9534941   1.596   4.841   1.166  0.5619 -0.0487  0.3537
  134MOL    C9634942   1.730   4.822   1.102  0.5546 -0.5389 -0.0753
  134MOL    C9734943   1.474   4.844   1.077 -0.3550  0.4999 -0.1416
  134MOL    H9834944   1.393   4.781   1.322 -2.3214  1.0671  0.9043
  134MOL    H9934945   1.481   4.808   1.476  1.6859 -1.0275 -0.0580
  134MOL   H10034946   1.682   4.863   1.359  0.1647  1.4112  0.0702
  134MOL   H10134947   1.806   4.795   1.175 -0.0272 -1.3773  0.2318
  134MOL   H10234948   1.730   4.741   1.029  3.2404 -1.6221  1.0601
  134MOL   H10334949   1.751   4.912   1.044  3.6647 -1.1757 -0.0264
  134MOL   H10434950   1.509   4.910   0.997 -3.0584  0.0478 -1.7766
  134MOL   H10534951   1.385   4.889   1.119 -0.4355 -0.3637  0.6406
  134MOL   C10634952   1.427   4.706   1.032  0.5233 -0.0046  0.2310
  134MOL   C10734953   1.494   4.658   0.907 -0.0772 -0.3870 -0.9607
  134MOL   C10834954   1.456   4.701   0.782 -0.4713 -0.2861 -0.2660
  134MOL   C10934955   1.344   4.791   0.754  0.0092 -1.6188 -0.1246
  134MOL   C11034956   1.534   4.657   0.658 -0.3013  0.3778 -0.2430
  134MOL   H11134957   1.320   4.701   1.011  0.4006 -0.2161  0.8825
  134MOL   H11234958   1.441   4.636   1.114 -0.2312 -1.5592 -0.9298
  134MOL   H11334959   1.584   4.600   0.918  0.6821  0.8078 -0.7516
  134MOL   H11434960   1.385   4.848   0.671 -1.5380  0.8766  0.7703
  134MOL   H11534961   1.251   4.737   0.736 -0.5553 -1.2955  1.6756
  134MOL   H11634962   1.332   4.853   0.843  1.7835 -0.4022 -0.7053
  134MOL   H11734963   1.632   4.647   0.704 -0.8059  0.5666  0.8835
  134MOL   H11834964   1.542   4.731   0.578 -2.8206  0.8342 -0.1273
  134MOL   C11934965   1.501   4.521   0.599  0.9902  0.5677  0.0180
  134MOL   C12034966   1.378   4.522   0.517 -0.4328 -0.9202  0.3992
  134MOL   C12134967   1.359   4.471   0.396 -0.8291  0.0213 -0.4254
  134MOL   C12234968   1.224   4.487   0.322  0.3433  0.1288  0.6166
  134MOL   C12334969   1.461   4.396   0.304 -0.1583 -0.3235  0.6804
  134MOL   H12434970   1.503   4.439   0.671  0.0126  1.7979  1.4923
  134MOL   H12534971   1.587   4.501   0.535 -0.0797 -0.7456 -1.0255
  134MOL   H12634972   1.286   4.570   0.547  1.3859  1.8461  1.7331
  134MOL   H12734973   1.139   4.503   0.388 -0.5719  1.0526 -0.7847
  134MOL   H12834974   1.207   4.388   0.278 -0.4127  0.6734 -0.3159
  134MOL   H12934975   1.224   4.556   0.239  1.2665 -1.3628 -0.6563
  134MOL   H13034976   1.559   4.432   0.335  1.0884 -0.5347 -2.7854
  134MOL   H13134977   1.448   4.426   0.199 -0.5883  1.7938  1.3187
  134MOL   C13234978   1.460   4.247   0.327  0.5234  0.3525 -0.3522
  134MOL   C13334979   1.581   4.174   0.266 -0.0790  0.1438  0.1969
  134MOL   C13434980   1.601   4.041   0.266  0.1885  0.2900 -0.3396
  134MOL   C13534981   1.727   3.969   0.212  0.4795  0.1329 -0.0255
  134MOL   C13634982   1.503   3.943   0.318 -0.2685  0.3670 -0.0865
  134MOL   H13734983   1.368   4.208   0.285  1.0553 -0.8466 -0.4331
  134MOL   H13834984   1.461   4.221   0.433  0.8836 -1.2658 -0.7378
  134MOL   H13934985   1.667   4.219   0.220 -1.2121  1.5437 -0.5853
  134MOL   H14034986   1.758   3.877   0.263  1.8912  1.0640  0.8244
  134MOL   H14134987   1.818   4.025   0.195  1.2973 -1.6526 -1.7706
  134MOL   H14234988   1.701   3.924   0.116 -1.7759  1.1640  0.0787
  134MOL   H14334989   1.500   3.860   0.247 -3.1826 -1.3640  1.9205
  134MOL   H14434990   1.400   3.976   0.308 -0.1705  0.3279 -1.3235
  134MOL   C14534991   1.525   3.891   0.463  0.0061 -0.2912 -0.9413
  134MOL   C14634992   1.395   3.844   0.529  0.4190  0.8268 -0.2426
  134MOL   C14734993   1.349   3.715   0.534 -0.1521  0.2457 -0.3424
  134MOL   C14834994   1.226   3.684   0.611 -0.0502 -0.3134 -0.0754
  134MOL   C14934995   1.413   3.603   0.464 -0.0902 -0.1867  0.4749
  134MOL   H15034996   1.573   3.972   0.517  0.9201 -0.7579 -1.0446
  134MOL   H15134997   1.593   3.807   0.467  0.6718  0.2630 -0.4803
  134MOL   H15234998   1.336   3.923   0.574 -2.4305 -0.4678 -1.5924
  134MOL   H15334999   1.196   3.768   0.674 -0.1757 -1.3801  1.2861
  134MOL   H15435000   1.248   3.610   0.687  2.3170  0.5589  0.1440
  134MOL   H15535001   1.143   3.651   0.550 -1.1506 -1.7492  2.1496
  134MOL   H15635002   1.475   3.565   0.546  0.3627 -0.2604  0.1013
  134MOL   H15735003   1.490   3.648   0.401 -0.4639  4.4401  3.0930
  134MOL   C15835004   1.319   3.497   0.400  0.0389 -0.2560  0.2119
  134MOL   C15935005   1.212   3.562   0.317  0.0375  0.1903  0.2090
  134MOL   C16035006   1.085   3.522   0.319 -0.4277  0.1153 -0.3585
  134MOL   C16135007   1.030   3.404   0.395 -0.3919 -0.2237 -0.4591
  134MOL   C16235008   0.990   3.603   0.234  0.0811 -0.6918 -0.2259
  134MOL   H16335009   1.269   3.439   0.477 -0.8140 -4.2503 -3.1791
  134MOL   H16435010   1.380   3.432   0.338 -0.4299 -2.5577  2.0772
  134MOL   H16535011   1.250   3.643   0.257 -0.0031  0.1309  0.1028
  134MOL   H16635012   1.099   3.344   0.454  0.4945  1.1314 -0.1058
  134MOL   H16735013   0.972   3.346   0.323 -0.0680 -0.4407 -0.5489
  134MOL   H16835014   0.957   3.434   0.470  0.9383  0.0705  0.7451
  134MOL   H16935015   0.931   3.530   0.179 -1.9495  0.8328 -0.1578
  134MOL   H17035016   1.046   3.662   0.161 -0.5487 -0.4998 -0.5644
  134MOL   C17135017   0.902   3.695   0.315  0.5064  0.3169 -0.2244
  134MOL   C17235018   0.799   3.762   0.234 -0.2311 -0.2084 -0.2974
  134MOL   C17335019   0.686   3.706   0.188  0.3417 -0.0244  0.6726
  134MOL   C17435020   0.659   3.561   0.204  0.6964  0.5334 -0.9275
  134MOL   C17535021   0.579   3.779   0.098 -0.6471  0.1109  0.0416
  134MOL   H17635022   0.966   3.773   0.357  0.8560 -0.3279  0.4416
  134MOL   H17735023   0.862   3.643   0.402 -2.1378 -0.1501 -1.6405
  134MOL   H17835024   0.818   3.867   0.214 -0.3710 -0.0293  0.4950
  134MOL   H17935025   0.564   3.556   0.256  0.6131  1.9452 -0.9372
  134MOL   H18035026   0.735   3.494   0.245 -1.0608  0.7097  2.7702
  134MOL   H18135027   0.651   3.515   0.105  1.3041  0.1896 -0.8256
  134MOL   H18235028   0.490   3.799   0.159  0.0271 -0.0337  1.0966
  134MOL   H18335029   0.557   3.721   0.009 -1.8606  0.6321 -0.0096
  134MOL   C18435030   0.617   3.912   0.040  0.2410 -0.6272  0.2729
  134MOL   C18535031   0.498   3.974   7.853 -0.1922 -0.5894  0.3792
  134MOL   C18635032   0.491   4.037   7.731 -0.3188  0.1243  0.0858
  134MOL   C18735033   0.360   4.103   7.683  0.8975 -0.2821 -0.6235
  134MOL   C18835034   0.603   4.029   7.628  1.2449  0.1021 -0.3604
  134MOL   H18935035   0.710   3.912   7.863  0.4530  0.2561  0.6179
  134MOL   H19035036   0.635   3.983   0.121  0.6263 -1.4560  0.9268
  134MOL   H19135037   0.413   3.991   0.040 -1.0405 -0.7598 -0.6587
  134MOL   H19235038   0.284   4.102   7.762  1.1511  0.4224 -0.3639
  134MOL   H19335039   0.319   4.036   7.607 -1.2542  0.4939 -0.1836
  134MOL   H19435040   0.390   4.200   7.643 -0.9391  1.5112  2.1675
  134MOL   H19535041   0.561   3.984   7.538  1.0312  0.6038 -0.5148
  134MOL   H19635042   0.693   3.972   7.649  0.5934 -0.5361  0.7132
  134MOL   C19735043   0.657   4.169   7.586 -0.3071 -0.0749 -0.2063
  134MOL   C19835044   0.748   4.145   7.462 -0.2670  0.1899  0.8862
  134MOL   C19935045   0.711   4.161   7.335  0.3659  0.0955 -0.8462
  134MOL   C20035046   0.799   4.157   7.215  0.2174  0.5078 -0.0166
  134MOL   C20135047   0.565   4.184   7.286 -0.3395 -0.1562 -0.4445
  134MOL   H20235048   0.729   4.195   7.664 -0.8049  1.0317 -0.1007
  134MOL   H20335049   0.581   4.246   7.574 -0.5657 -0.2440  0.3151
  134MOL   H20435050   0.850   4.120   7.484  0.0836 -2.1905 -3.0230
  134MOL   H20535051   0.808   4.255   7.168  0.4369  1.2823  1.5690
  134MOL   H20635052   0.760   4.087   7.142 -0.3828 -0.3873  1.1326
  134MOL   H20735053   0.893   4.116   7.250 -0.1685  0.5113  1.0492
  134MOL   H20835054   0.575   4.276   7.228  2.5497  0.9012  1.6206
  134MOL   H20935055   0.505   4.190   7.377  1.1809  1.0561  0.5119
  134MOL   C21035056   0.502   4.069   7.207  0.7852  0.5926  0.7538
  134MOL   C21135057   0.356   4.077   7.202 -0.4766 -0.1473 -0.7036
  134MOL   C21235058   0.285   4.127   7.097  0.1565 -0.1777 -0.1418
  134MOL   C21335059   0.132   4.113   7.092 -0.2428  0.2091 -0.2162
  134MOL   C21435060   0.339   4.204   6.968  0.0501  0.3144 -0.8325
  134MOL   H21535061   0.544   3.977   7.248 -0.4828 -0.4428 -0.2453
  134MOL   H21635062   0.543   4.065   7.106 -0.2131  1.1722  0.3212
  134MOL   H21735063   0.306   4.017   7.276 -0.7151 -0.9546 -1.5075
  134MOL   H21835064   0.112   4.045   7.009 -0.7173 -0.4108  0.3998
  134MOL   H21935065   0.064   4.198   7.081  0.1856  0.8112  1.7209
  134MOL   H22035066   0.097   4.046   7.170  1.1008  1.2192  1.2676
  134MOL   H22135067   0.438   4.231   7.006 -0.9666  1.5341  1.0562
  134MOL   H22235068   0.292   4.302   6.965 -0.5688 -0.0127 -2.5147
  134MOL   C22335069   0.345   4.111   6.847 -0.3676  0.3598  0.0617
  134MOL   C22435070   0.361   4.180   6.715 -0.7542 -0.0226 -0.8640
  134MOL   C22535071   0.472   4.198   6.641 -0.2307  0.2385 -0.8431
  134MOL   C22635072   0.465   4.260   6.505  1.0594  0.5889 -0.6188
  134MOL   C22735073   0.620   4.159   6.683  0.1060  0.0591 -0.2511
  134MOL   H22835074   0.251   4.055   6.842  0.2822 -0.5973 -1.7575
  134MOL   H22935075   0.417   4.030   6.862  2.1585  2.7802  1.3272
  134MOL   H23035076   0.267   4.209   6.670 -0.0426 -0.6928 -2.8240
  134MOL   H23135077   0.525   4.191   6.445 -0.0022  0.5641 -1.6772
  134MOL   H23235078   0.518   4.355   6.494 -1.3855  2.2260  1.2298
  134MOL   H23335079   0.364   4.266   6.463  1.0115  2.7226 -0.2781
  134MOL   H23435080   0.664   4.102   6.601 -2.3297 -0.5720 -1.1778
  134MOL   H23535081   0.616   4.093   6.770 -0.7469 -2.5990 -2.2311
  134MOL   C23635082   0.709   4.287   6.711  0.7911 -0.1693  0.1635
  134MOL   C23735083   0.668   4.362   6.835  0.6729 -0.5921  0.2280
  134MOL   C23835084   0.598   4.481   6.851  0.2330 -0.2819 -0.0515
  134MOL   C23935085   0.556   4.526   6.993 -0.2015 -0.6528 -0.4382
  134MOL   C24035086   0.534   4.562   6.741  0.2326  0.2020  0.4125
  134MOL   H24135087   0.709   4.349   6.622  0.3852 -0.3778  0.0164
  134MOL   H24235088   0.817   4.269   6.719  0.6658 -0.1385  2.1843
  134MOL   H24335089   0.683   4.300   6.922 -1.4001 -2.6934 -0.8406
  134MOL   H24435090   0.622   4.492   7.073 -2.2565 -1.7937  0.7990
  134MOL   H24535091   0.453   4.502   7.016 -0.2945 -1.0154 -1.2217
  134MOL   H24635092   0.566   4.635   6.995  1.6261 -0.7995  2.7425
  134MOL   H24735093   0.427   4.573   6.759  0.1295 -1.0815  0.6115
  134MOL   H24835094   0.539   4.503   6.650 -0.0777  0.3463  0.3043
  134MOL   C24935095   0.598   4.707   6.737  0.8270  0.5855  0.4206
  134MOL   C25035096   0.572   4.767   6.594  0.3461 -0.1046  0.6264
  134MOL   C25135097   0.535   4.889   6.563  0.5562  0.1405  0.0644
  134MOL   C25235098   0.522   4.944   6.422  0.1186  0.1933  0.4006
  134MOL   C25335099   0.509   4.992   6.677  0.0024  0.1721 -0.2119
  134MOL   H25435100   0.702   4.726   6.763  0.4542  4.1000 -0.4164
  134MOL   H25535101   0.529   4.769   6.794 -0.1945 -0.1607  0.0188
  134MOL   H25635102   0.605   4.707   6.511  0.7742  1.1424 -0.1202
  134MOL   H25735103   0.565   4.870   6.355 -0.5401  0.4758 -0.3473
  134MOL   H25835104   0.586   5.029   6.401  1.5487 -1.0756 -0.4680
  134MOL   H25935105   0.417   4.960   6.394  0.3726  0.5825 -0.3355
  134MOL   H26035106   0.605   5.017   6.724 -0.7342  1.7632  0.4789
  134MOL   H26135107   0.446   4.958   6.759  0.7342 -2.1717 -0.5971
  134MOL   H26235108   0.458   5.080   6.637 -0.5699 -0.0654 -0.0025
  135MOL     C135109   7.391   5.777   3.619 -0.5641  0.2825 -0.0269
  135MOL     C235110   7.508   5.734   3.706  0.4006  0.5944  0.6562
  135MOL     C335111   7.501   5.640   3.804 -0.5818 -1.0556 -0.2001
  135MOL     C435112   7.627   5.588   3.875  0.0024 -0.1073 -0.5188
  135MOL     C535113   7.377   5.572   3.853  0.6506 -0.5212  0.2236
  135MOL     H635114   7.372   5.884   3.626  0.3773  0.5405 -1.1317
  135MOL     H735115   7.420   5.758   3.515  0.4052 -0.3220  0.3458
  135MOL     H835116   7.607   5.757   3.671  0.3694  0.4772  0.4896
  135MOL     H935117   7.645   5.656   3.958  0.5671  1.0530 -1.5661
  135MOL    H1035118   7.714   5.590   3.810  0.9207  0.3229  0.7163
  135MOL    H1135119   7.610   5.490   3.920 -1.1153  0.7948  1.0927
  135MOL    H1235120   7.288   5.632   3.834  1.1494 -0.1504 -0.9230
  135MOL    H1335121   7.384   5.561   3.962  0.0268 -0.5758  0.2606
  135MOL    H1435122   7.299   5.720   3.634  0.3471 -0.6691  2.0969
  135MOL    C1535123   7.356   5.428   3.786  0.0240  0.3292  0.0776
  135MOL    C1635124   7.231   5.356   3.827 -0.3579 -0.5741 -0.5376
  135MOL    C1735125   7.204   5.298   3.941  0.8719 -0.5441 -0.1718
  135MOL    C1835126   7.068   5.238   3.949 -0.6229 -0.0344 -0.0038
  135MOL    C1935127   7.302   5.292   4.066 -0.4025  0.2249  0.8016
  135MOL    H2035128   7.438   5.358   3.799  0.6822  0.9273 -0.7903
  135MOL    H2135129   7.351   5.440   3.678 -0.4236 -1.6034 -0.1331
  135MOL    H2235130   7.158   5.376   3.750 -3.4045 -1.5872  1.9912
  135MOL    H2335131   7.000   5.324   3.952  0.5118  0.8598  0.2387
  135MOL    H2435132   7.065   5.168   4.032  3.0433  0.5310  0.6743
  135MOL    H2535133   7.043   5.174   3.864  0.6193  0.9302 -1.1149
  135MOL    H2635134   7.397   5.341   4.044 -1.4646  1.0942 -2.0465
  135MOL    H2735135   7.333   5.191   4.093 -0.8038 -0.6428 -1.8168
  135MOL    C2835136   7.224   5.365   4.181  0.4699 -0.0421 -0.4005
  135MOL    C2935137   7.315   5.381   4.300 -0.4098  0.7896 -0.5545
  135MOL    C3035138   7.273   5.386   4.431  0.6359 -0.3821  0.3808
  135MOL    C3135139   7.373   5.390   4.543  0.2011  0.3617 -0.0726
  135MOL    C3235140   7.124   5.395   4.481 -0.4894  0.1883 -1.0590
  135MOL    H3335141   7.140   5.298   4.200 -1.7402  2.2060 -1.9273
  135MOL    H3435142   7.193   5.466   4.154 -1.9377 -0.5380  0.3310
  135MOL    H3535143   7.421   5.386   4.283 -0.1154 -1.0300  0.6324
  135MOL    H3635144   7.469   5.380   4.493  1.0154 -0.1227  1.5292
  135MOL    H3735145   7.366   5.306   4.613  0.6129  0.1725 -0.2575
  135MOL    H3835146   7.358   5.491   4.580  0.0356 -0.0725  1.1008
  135MOL    H3935147   7.069   5.401   4.387 -1.9279  0.2763 -0.2296
  135MOL    H4035148   7.111   5.483   4.545  0.5777 -0.3888 -0.0392
  135MOL    C4135149   7.066   5.269   4.546  0.1158  0.0445 -0.4647
  135MOL    C4235150   6.921   5.285   4.595 -0.6906 -0.8307 -0.1680
  135MOL    C4335151   6.815   5.283   4.519  0.5213  0.0183  0.4491
  135MOL    C4435152   6.682   5.316   4.581  0.1767  0.2524 -0.6914
  135MOL    C4535153   6.813   5.251   4.366  0.0959  0.0512  0.5565
  135MOL    H4635154   7.129   5.239   4.630 -0.6827 -2.8280 -0.8513
  135MOL    H4735155   7.065   5.177   4.488 -1.3772 -0.8895  0.9792
  135MOL    H4835156   6.904   5.321   4.695 -0.1779  1.5406 -0.9127
  135MOL    H4935157   6.650   5.412   4.540  0.7824  1.3589  1.3132
  135MOL    H5035158   6.696   5.326   4.689 -0.0235 -0.1735 -0.6266
  135MOL    H5135159   6.608   5.241   4.554  2.3030 -1.4825 -1.8543
  135MOL    H5235160   6.742   5.171   4.344 -0.1754  0.4079  0.1269
  135MOL    H5335161   6.905   5.203   4.331  1.2922 -0.3138  3.9909
  135MOL    C5435162   6.787   5.368   4.271 -0.1373  0.2859  0.2227
  135MOL    C5535163   6.762   5.315   4.128 -0.6761  0.2178  0.3603
  135MOL    C5635164   6.687   5.379   4.034  0.0126 -0.1186  0.0434
  135MOL    C5735165   6.680   5.321   3.899 -0.4122  0.0956  0.1781
  135MOL    C5835166   6.583   5.491   4.066 -0.3785  0.5963 -0.3122
  135MOL    H5935167   6.881   5.418   4.250 -0.8145  0.4966 -2.4171
  135MOL    H6035168   6.705   5.425   4.316  0.6396  3.3473 -2.1189
  135MOL    H6135169   6.837   5.249   4.087  0.2684  1.1696  0.5350
  135MOL    H6235170   6.773   5.264   3.890 -0.6801 -0.5294  1.2488
  135MOL    H6335171   6.665   5.394   3.820  1.9232 -1.0186 -1.3710
  135MOL    H6435172   6.605   5.243   3.892 -0.3165 -0.2695  2.6386
  135MOL    H6535173   6.568   5.491   4.174 -0.2637  0.8044 -0.2960
  135MOL    H6635174   6.494   5.475   4.005  0.4803  1.0371 -1.7141
  135MOL    C6735175   6.640   5.626   4.020  0.3339  0.3947 -0.2445
  135MOL    C6835176   6.768   5.673   4.086  0.5789  0.0897 -0.3061
  135MOL    C6935177   6.878   5.718   4.024  0.6610  0.4423  0.6040
  135MOL    C7035178   6.993   5.761   4.099  0.2628  0.5252  0.6195
  135MOL    C7135179   6.883   5.738   3.874 -0.6183  0.3463  0.4361
  135MOL    H7235180   6.570   5.709   4.026  0.5119  0.4692  0.9135
  135MOL    H7335181   6.653   5.606   3.913  0.0883  0.9125 -0.3730
  135MOL    H7435182   6.776   5.679   4.194 -2.2988 -1.0169 -0.0028
  135MOL    H7535183   6.995   5.748   4.207  0.6051  0.2331  0.5811
  135MOL    H7635184   7.006   5.864   4.069  2.7819  0.7318  2.1981
  135MOL    H7735185   7.087   5.722   4.059  0.0544  1.4215 -0.7561
  135MOL    H7835186   6.928   5.836   3.858  1.0352 -0.8575 -2.7210
  135MOL    H7935187   6.789   5.745   3.820 -0.1651 -0.4091 -0.4578
  135MOL    C8035188   6.967   5.627   3.804  0.3893  0.1953  0.1439
  135MOL    C8135189   6.989   5.651   3.653 -0.0505  0.1165  0.7226
  135MOL    C8235190   6.894   5.649   3.560  0.0028  0.2568  0.3379
  135MOL    C8335191   6.748   5.620   3.588  0.3447  0.1510  0.2918
  135MOL    C8435192   6.924   5.663   3.413  0.2275 -1.1252  0.0127
  135MOL    H8535193   6.902   5.541   3.816  1.1430 -0.1858  1.5065
  135MOL    H8635194   7.061   5.615   3.857  1.9186  1.9537 -2.0414
  135MOL    H8735195   7.093   5.674   3.632  0.1768 -1.8470 -0.4972
  135MOL    H8835196   6.696   5.715   3.578 -0.0841  0.1401  2.1822
  135MOL    H8935197   6.728   5.577   3.686 -0.4274 -0.2837 -0.0552
  135MOL    H9035198   6.707   5.544   3.522 -0.5533  1.3824 -0.5872
  135MOL    H9135199   6.864   5.589   3.361  0.1340 -0.2339 -1.1896
  135MOL    H9235200   7.023   5.620   3.398  0.1728 -1.3147  0.2022
  135MOL    C9335201   6.923   5.812   3.363 -0.7028 -0.1948 -0.4182
  135MOL    C9435202   6.956   5.839   3.213 -0.2449 -0.9470 -0.7488
  135MOL    C9535203   6.872   5.848   3.104  0.3639  0.7872 -0.1086
  135MOL    C9635204   6.915   5.853   2.961  0.1050  0.9722 -0.1250
  135MOL    C9735205   6.722   5.834   3.124 -0.3774 -0.0605 -0.1636
  135MOL    H9835206   7.002   5.861   3.420 -1.2046  1.0743 -0.7822
  135MOL    H9935207   6.829   5.860   3.394 -0.5512  0.1573 -0.4974
  135MOL   H10035208   7.062   5.839   3.194  0.2632  0.3360  1.8626
  135MOL   H10135209   7.016   5.883   2.935 -0.2966  1.4543 -1.1693
  135MOL   H10235210   6.900   5.761   2.903 -0.4591  0.4269  0.8831
  135MOL   H10335211   6.855   5.928   2.910  2.3772  1.3183 -2.4198
  135MOL   H10435212   6.664   5.911   3.073 -0.0071 -0.7964 -1.7394
  135MOL   H10535213   6.704   5.862   3.228  1.1737  2.7658 -0.6106
  135MOL   C10635214   6.669   5.691   3.090 -1.0477 -0.1801 -0.0831
  135MOL   C10735215   6.524   5.674   3.133  0.4946  0.7966  0.6607
  135MOL   C10835216   6.465   5.562   3.172 -0.0195 -0.2538 -0.1113
  135MOL   C10935217   6.531   5.431   3.188  0.0043  0.2646  0.5086
  135MOL   C11035218   6.319   5.561   3.208  0.1009  0.8399 -0.0606
  135MOL   H11135219   6.737   5.623   3.140  0.1430  1.6512  0.8319
  135MOL   H11235220   6.670   5.664   2.984 -0.0515 -1.4855  0.2519
  135MOL   H11335221   6.467   5.766   3.138  1.8706  1.7908 -1.2924
  135MOL   H11435222   6.567   5.408   3.287  0.3260 -0.7115  0.1640
  135MOL   H11535223   6.483   5.335   3.168  0.7063 -0.0134  0.1673
  135MOL   H11635224   6.618   5.440   3.123  0.2807  0.5491  0.9159
  135MOL   H11735225   6.278   5.662   3.215  1.1343  1.2694 -0.0455
  135MOL   H11835226   6.313   5.524   3.310 -0.8478  2.5031  0.5000
  135MOL   C11935227   6.233   5.477   3.114 -0.4064  0.5310  0.7235
  135MOL   C12035228   6.090   5.469   3.164 -0.9302  0.4144  0.0390
  135MOL   C12135229   5.982   5.540   3.118  0.0352  0.0685  0.0425
  135MOL   C12235230   5.838   5.521   3.178 -0.0461  0.0156  0.1217
  135MOL   C12335231   6.001   5.650   3.016  0.2838  0.5121 -0.1916
  135MOL   H12435232   6.277   5.378   3.125 -4.2284 -1.2673  0.8316
  135MOL   H12535233   6.247   5.511   3.011 -0.1168  0.5138  0.7567
  135MOL   H12635234   6.074   5.402   3.247 -0.8626 -1.1404 -1.1879
  135MOL   H12735235   5.759   5.514   3.103  1.1492  0.5307 -1.2057
  135MOL   H12835236   5.803   5.598   3.247 -1.3995 -1.2633  0.9073
  135MOL   H12935237   5.833   5.428   3.235  1.4555 -0.8983 -1.1987
  135MOL   H13035238   5.918   5.631   2.948 -0.1554 -0.4184  0.5874
  135MOL   H13135239   6.100   5.650   2.971  0.7179 -3.9379  0.5617
  135MOL   C13235240   5.984   5.788   3.074  0.1661 -0.1295  0.5468
  135MOL   C13335241   6.010   5.897   2.969 -0.5278 -0.2005 -0.0153
  135MOL   C13435242   5.933   6.010   2.944 -0.2044 -0.5352 -0.6842
  135MOL   C13535243   5.966   6.117   2.841 -0.2552 -0.6352 -0.3426
  135MOL   C13635244   5.817   6.044   3.043 -1.1435  0.3628  0.6833
  135MOL   H13735245   6.047   5.794   3.163  0.8351 -2.7584  0.2886
  135MOL   H13835246   5.887   5.802   3.121  0.3532 -0.8379  1.1605
  135MOL   H13935247   6.095   5.882   2.904 -2.3944 -0.6929 -2.4064
  135MOL   H14035248   5.867   6.144   2.802 -0.2916  1.7122  1.2798
  135MOL   H14135249   6.016   6.077   2.753  1.2228 -0.6560  0.5057
  135MOL   H14235250   6.019   6.207   2.872 -3.2868  1.3840 -0.7451
  135MOL   H14335251   5.799   6.151   3.054  1.0852  0.9143 -0.7533
  135MOL   H14435252   5.837   6.017   3.146  2.2330  1.3581  0.3300
  135MOL   C14535253   5.684   5.971   3.006  0.0275 -0.7203 -0.6227
  135MOL   C14635254   5.566   6.042   3.070 -0.2747 -0.2712  0.3181
  135MOL   C14735255   5.456   5.988   3.129 -0.1910 -0.2662 -0.3897
  135MOL   C14835256   5.366   6.076   3.213 -0.1450 -0.1861  0.2530
  135MOL   C14935257   5.419   5.847   3.110 -0.5020 -0.0213  0.3524
  135MOL   H15035258   5.681   5.865   3.030 -1.2133 -0.2546  1.3719
  135MOL   H15135259   5.676   5.974   2.897 -0.6384 -0.2421 -0.5590
  135MOL   H15235260   5.576   6.149   3.066  2.8859 -0.5414 -0.1350
  135MOL   H15335261   5.384   6.183   3.200 -0.0798  0.0355  2.0516
  135MOL   H15435262   5.359   6.048   3.318 -1.0630 -1.0202 -0.0178
  135MOL   H15535263   5.265   6.052   3.180  0.1564 -0.8525 -0.2062
  135MOL   H15635264   5.371   5.824   3.206 -3.0309  0.0850 -0.8387
  135MOL   H15735265   5.507   5.785   3.095 -0.8546 -0.2709 -0.7563
  135MOL   C15835266   5.321   5.830   2.993 -0.3527 -0.1003 -0.3232
  135MOL   C15935267   5.262   5.689   2.978 -0.3169 -0.1160 -0.4574
  135MOL   C16035268   5.133   5.656   2.997  0.4022 -0.1678  0.1604
  135MOL   C16135269   5.025   5.754   3.040  0.3088 -0.4087 -0.0909
  135MOL   C16235270   5.072   5.519   2.969  0.2914 -0.2830  0.1135
  135MOL   H16335271   5.378   5.853   2.903  1.0930 -3.2094 -0.2722
  135MOL   H16435272   5.241   5.904   3.000  1.0369  1.5782 -1.5749
  135MOL   H16535273   5.319   5.612   2.927 -0.8572  0.8385 -2.5520
  135MOL   H16635274   5.054   5.859   3.035 -0.1419 -0.1561  2.1365
  135MOL   H16735275   4.999   5.743   3.145  1.7417  1.9791  0.5623
  135MOL   H16835276   4.937   5.745   2.976 -0.3767  1.1237  0.6066
  135MOL   H16935277   5.033   5.518   2.867  0.5749  0.6649 -0.0113
  135MOL   H17035278   4.974   5.503   3.015  0.1129  0.6669  0.0812
  135MOL   C17135279   5.172   5.407   2.992 -0.5467 -0.4978 -0.3486
  135MOL   C17235280   5.228   5.405   3.137 -0.2341 -0.4206  0.1563
  135MOL   C17335281   5.352   5.404   3.181 -0.1627 -0.4566 -0.3843
  135MOL   C17435282   5.483   5.416   3.100  0.1404 -0.3086  0.4574
  135MOL   C17535283   5.380   5.409   3.325 -0.0652 -0.5581  1.1463
  135MOL   H17635284   5.247   5.405   2.913 -1.8338  0.1824 -1.6048
  135MOL   H17735285   5.114   5.316   2.980  2.8531 -2.7733 -0.0275
  135MOL   H17835286   5.147   5.397   3.209 -0.4678  1.4481  0.1266
  135MOL   H17935287   5.531   5.319   3.092  0.8620  0.0587  0.3830
  135MOL   H18035288   5.547   5.490   3.147  0.6538  0.8698 -1.9775
  135MOL   H18135289   5.466   5.448   2.997 -1.4756  0.5392  0.9557
  135MOL   H18235290   5.465   5.344   3.348 -0.2676 -0.1903  2.9873
  135MOL   H18335291   5.295   5.360   3.374 -0.1299 -1.5739  0.0521
  135MOL   C18435292   5.399   5.548   3.382  0.1171 -0.0611 -0.3674
  135MOL   C18535293   5.270   5.631   3.381  0.2901 -0.0477  0.4002
  135MOL   C18635294   5.247   5.742   3.459 -0.0515 -0.0540  0.2443
  135MOL   C18735295   5.132   5.831   3.425 -0.1443  0.7401 -0.0452
  135MOL   C18835296   5.338   5.793   3.569 -0.0595  0.1219 -0.5045
  135MOL   H18935297   5.483   5.598   3.333  0.4862  1.0918  1.3867
  135MOL   H19035298   5.440   5.528   3.481 -2.1463  0.0869  0.6337
  135MOL   H19135299   5.198   5.618   3.302 -1.5031 -0.5674  2.1003
  135MOL   H19235300   5.084   5.793   3.335 -0.7020  1.4262 -0.0404
  135MOL   H19335301   5.162   5.936   3.421 -0.4767  0.9152  1.6872
  135MOL   H19435302   5.069   5.820   3.513 -0.9232 -0.6197 -0.7575
  135MOL   H19535303   5.360   5.896   3.539 -0.8548 -0.6654 -4.0136
  135MOL   H19635304   5.428   5.733   3.583 -1.2519 -1.3824  0.9270
  135MOL   C19735305   5.266   5.792   3.702 -0.9511  0.0190 -0.1159
  135MOL   C19835306   5.359   5.832   3.815  0.1443  0.2058  0.4243
  135MOL   C19935307   5.371   5.958   3.863 -0.1616  0.5241 -0.1765
  135MOL   C20035308   5.451   5.984   3.991  0.2403  0.0407 -0.1383
  135MOL   C20135309   5.309   6.092   3.810 -0.5973 -0.5617 -0.0707
  135MOL   H20235310   5.230   5.691   3.721  2.0063 -0.8319  1.3553
  135MOL   H20335311   5.177   5.854   3.708  0.6542  2.3817  0.1434
  135MOL   H20435312   5.425   5.756   3.851  0.7676  0.0404 -1.0312
  135MOL   H20535313   5.407   5.992   4.090 -0.0792  0.3600 -0.3068
  135MOL   H20635314   5.513   6.073   3.978 -2.2707  1.4507 -3.1051
  135MOL   H20735315   5.521   5.901   4.002  0.1237  0.1846  1.8412
  135MOL   H20835316   5.245   6.067   3.726 -0.6742 -0.0941 -0.1488
  135MOL   H20935317   5.391   6.156   3.778  0.0360 -1.1444  0.3403
  135MOL   C21035318   5.219   6.163   3.916 -0.9418 -0.3887  0.5963
  135MOL   C21135319   5.164   6.298   3.858 -0.5020 -0.4048 -0.7998
  135MOL   C21235320   5.051   6.362   3.890 -0.2447 -0.6309 -0.9567
  135MOL   C21335321   5.020   6.493   3.817  0.6786  0.2931  0.2377
  135MOL   C21435322   4.949   6.325   4.002 -0.1691  0.0245 -0.6809
  135MOL   H21535323   5.264   6.179   4.014 -0.3790  0.6089  0.1886
  135MOL   H21635324   5.139   6.095   3.942 -1.2997  0.0797  0.7313
  135MOL   H21735325   5.221   6.336   3.774 -1.4287  2.2327 -0.3061
  135MOL   H21835326   4.927   6.489   3.760  0.5379  0.5281  0.4517
  135MOL   H21935327   5.099   6.513   3.745 -1.8874  2.0627 -2.1934
  135MOL   H22035328   5.018   6.573   3.891 -0.8622  1.0215 -0.5903
  135MOL   H22135329   4.989   6.240   4.058 -1.7531  0.3535  1.0273
  135MOL   H22235330   4.858   6.287   3.955 -0.9929  0.4668  0.5272
  135MOL   C22335331   4.912   6.433   4.109 -0.2476 -0.1424  0.6762
  135MOL   C22435332   4.793   6.393   4.202  0.2105  0.3437  0.0911
  135MOL   C22535333   4.791   6.396   4.334 -0.8472 -0.2471 -0.0333
  135MOL   C22635334   4.670   6.354   4.407  0.1440  0.1491 -0.0663
  135MOL   C22735335   4.911   6.425   4.422 -0.5323  0.9362  0.1306
  135MOL   H22835336   4.873   6.520   4.055 -1.9704 -0.0483  2.0100
  135MOL   H22935337   5.005   6.453   4.161  1.3100  0.0621 -2.0947
  135MOL   H23035338   4.704   6.374   4.143 -0.7638 -0.5268  1.7963
  135MOL   H23135339   4.585   6.358   4.339 -1.8900 -0.9769  2.3244
  135MOL   H23235340   4.645   6.427   4.483 -0.0283 -0.0199  0.0387
  135MOL   H23335341   4.699   6.258   4.450 -1.0230 -0.0065  0.3882
  135MOL   H23435342   4.870   6.476   4.509 -1.1807  0.8715 -0.1337
  135MOL   H23535343   4.972   6.503   4.377 -0.5446  1.4361  0.9712
  135MOL   C23635344   4.971   6.297   4.484 -0.2426  0.6801 -0.0609
  135MOL   C23735345   5.017   6.196   4.386  0.8087  0.0553 -0.1752
  135MOL   C23835346   5.029   6.060   4.403 -0.1377  0.4686 -0.4060
  135MOL   C23935347   5.086   5.984   4.289 -0.5424  0.4235  0.0661
  135MOL   C24035348   4.974   5.976   4.517 -0.8331  0.6161 -0.6536
  135MOL   H24135349   4.886   6.246   4.530 -0.7316  0.2295 -1.4255
  135MOL   H24235350   5.047   6.327   4.556  1.5522 -0.2744 -1.5213
  135MOL   H24335351   5.060   6.242   4.298  1.1341 -1.0299 -0.5873
  135MOL   H24435352   5.173   5.924   4.318  0.3637  2.2889  1.3175
  135MOL   H24535353   5.125   6.044   4.206 -0.4407  1.4807  0.8787
  135MOL   H24635354   5.013   5.912   4.252 -1.8214  1.2001  1.0533
  135MOL   H24735355   4.992   6.034   4.608 -0.8889  0.8381 -0.7808
  135MOL   H24835356   5.036   5.889   4.539  0.6802  1.5326 -1.2307
  135MOL   C24935357   4.828   5.942   4.488  0.4237  0.1370 -0.0605
  135MOL   C25035358   4.732   5.966   4.600 -0.5804 -0.7256 -0.0715
  135MOL   C25135359   4.649   5.882   4.654  0.6802 -0.5113 -1.2198
  135MOL   C25235360   4.555   5.928   4.762  1.1478 -0.2289  0.3131
  135MOL   C25335361   4.659   5.727   4.631  0.2446  0.0981 -0.8371
  135MOL   H25435362   4.811   5.853   4.427 -0.6071  0.6062 -0.4723
  135MOL   H25535363   4.779   6.021   4.430 -3.0545 -0.3772  2.0217
  135MOL   H25635364   4.723   6.070   4.629 -0.8218 -1.4777  2.6510
  135MOL   H25735365   4.534   6.036   4.761 -0.1559 -0.4615  0.9189
  135MOL   H25835366   4.593   5.901   4.861  2.7001 -1.9152 -0.7280
  135MOL   H25935367   4.460   5.874   4.763  1.0976 -0.1399  0.8756
  135MOL   H26035368   4.657   5.689   4.734  0.4877  2.2887  0.0041
  135MOL   H26135369   4.761   5.710   4.597  0.8400  3.2185 -0.6997
  135MOL   H26235370   4.577   5.697   4.565 -1.4284  1.4751  0.5474
  136MOL     C135371   6.394   3.326   0.480  0.0610 -0.0020  0.1215
  136MOL     C235372   6.507   3.232   0.516  0.2125 -0.1358 -0.2135
  136MOL     C335373   6.512   3.093   0.514  0.4737 -0.7175  0.2974
  136MOL     C435374   6.639   3.028   0.558 -0.0588  0.0050  0.4089
  136MOL     C535375   6.396   3.004   0.484  0.0546  0.1595  0.5476
  136MOL     H635376   6.446   3.422   0.474 -1.1555  0.5165 -3.1857
  136MOL     H735377   6.338   3.299   0.390 -0.8106 -1.1342  0.9958
  136MOL     H835378   6.599   3.275   0.551  0.3423 -0.6705  0.1181
  136MOL     H935379   6.664   2.940   0.499  0.3149 -0.3782  1.1327
  136MOL    H1035380   6.627   2.991   0.660 -1.7857  2.3919  1.0930
  136MOL    H1135381   6.729   3.090   0.556 -2.2652  3.3247  0.8902
  136MOL    H1235382   6.427   2.903   0.456 -1.2698  0.3721 -1.8362
  136MOL    H1335383   6.338   3.035   0.397  1.0445  1.1180  0.2169
  136MOL    H1435384   6.322   3.321   0.562 -1.7248  0.2643 -1.3970
  136MOL    C1535385   6.311   2.980   0.607  0.3046  0.1326 -0.0033
  136MOL    C1635386   6.210   2.863   0.589  0.2267  0.6848 -0.7899
  136MOL    C1735387   6.228   2.729   0.624  0.5189 -0.0125  0.2109
  136MOL    C1835388   6.125   2.622   0.606 -0.7501 -0.1281  0.1441
  136MOL    C1935389   6.359   2.670   0.675 -0.5350  0.0322  0.3706
  136MOL    H2035390   6.254   3.071   0.628 -0.0639 -0.7664  3.1541
  136MOL    H2135391   6.370   2.957   0.695 -0.2062  0.8669  0.5361
  136MOL    H2235392   6.111   2.885   0.551  0.1825  1.1964 -0.3848
  136MOL    H2335393   6.022   2.654   0.593 -0.4406  1.4982  1.5088
  136MOL    H2435394   6.131   2.548   0.686  1.3065  0.9831  1.0764
  136MOL    H2535395   6.147   2.570   0.513 -1.5797  2.4111 -1.5529
  136MOL    H2635396   6.432   2.748   0.657 -0.8561  0.0790 -0.7349
  136MOL    H2735397   6.384   2.587   0.609  2.4335  0.2745  1.1224
  136MOL    C2835398   6.351   2.622   0.822 -0.3855  0.2567 -0.2033
  136MOL    C2935399   6.491   2.590   0.875  0.3195 -0.6414  0.3757
  136MOL    C3035400   6.549   2.637   0.985  0.9913 -0.4803  0.0254
  136MOL    C3135401   6.683   2.596   1.034 -0.9103 -0.2263 -0.3371
  136MOL    C3235402   6.484   2.740   1.082  0.1162  0.2134 -0.9762
  136MOL    H3335403   6.297   2.527   0.816 -0.5969  0.3853 -0.3433
  136MOL    H3435404   6.304   2.705   0.875 -2.2942  0.1499 -1.6477
  136MOL    H3535405   6.545   2.515   0.818  0.1866 -1.3192  1.1381
  136MOL    H3635406   6.668   2.530   1.120  0.4316 -0.4093 -0.2323
  136MOL    H3735407   6.743   2.686   1.049 -1.6262  0.4187 -1.3204
  136MOL    H3835408   6.743   2.532   0.970  0.2792 -0.5678  1.1084
  136MOL    H3935409   6.395   2.789   1.042  0.7024 -0.0049 -2.5695
  136MOL    H4035410   6.561   2.816   1.089  1.1638 -1.0832  3.3232
  136MOL    C4135411   6.446   2.678   1.223 -0.1006 -0.3348 -0.0321
  136MOL    C4235412   6.327   2.592   1.193 -0.0754 -0.2019  0.5820
  136MOL    C4335413   6.296   2.473   1.251 -0.2903  0.1320  0.2043
  136MOL    C4435414   6.160   2.405   1.241 -0.0693  0.0238  0.3774
  136MOL    C4535415   6.380   2.403   1.361  0.3486 -0.3745 -0.9183
  136MOL    H4635416   6.429   2.750   1.303 -1.2773 -0.7026  0.0501
  136MOL    H4735417   6.529   2.626   1.271  1.2488  2.1192  0.3911
  136MOL    H4835418   6.257   2.636   1.124  1.6180  2.2409  0.3772
  136MOL    H4935419   6.107   2.417   1.336  2.1501 -0.2932  1.6799
  136MOL    H5035420   6.158   2.296   1.236 -0.9254  0.0029  0.9932
  136MOL    H5135421   6.109   2.437   1.150  0.9535 -1.7004 -0.8292
  136MOL    H5235422   6.480   2.385   1.320  0.2065 -1.8849 -0.6521
  136MOL    H5335423   6.352   2.298   1.375  0.8636 -0.4944 -0.7749
  136MOL    C5435424   6.385   2.474   1.500  0.1269  0.5265  0.1565
  136MOL    C5535425   6.456   2.389   1.605 -0.3004 -0.1373 -0.4088
  136MOL    C5635426   6.454   2.402   1.737 -0.5859 -0.3237 -0.3622
  136MOL    C5735427   6.532   2.311   1.829  0.1073 -0.1301  0.4911
  136MOL    C5835428   6.374   2.514   1.802 -0.3260  0.3161  0.2006
  136MOL    H5935429   6.282   2.491   1.531 -0.7202  0.6330 -2.6083
  136MOL    H6035430   6.428   2.573   1.486  0.2851  0.2675 -1.3132
  136MOL    H6135431   6.511   2.306   1.565  0.5426 -0.0399  0.5210
  136MOL    H6235432   6.632   2.290   1.791  0.3220  0.0969  0.9193
  136MOL    H6335433   6.492   2.213   1.852 -2.4464  0.9043  0.5720
  136MOL    H6435434   6.546   2.358   1.927  1.0616 -0.0681  0.3359
  136MOL    H6535435   6.339   2.484   1.901 -0.8326  1.8379  0.5030
  136MOL    H6635436   6.282   2.539   1.749 -0.4187 -2.5982 -1.1177
  136MOL    C6735437   6.456   2.643   1.814 -0.0746 -0.5752  0.3741
  136MOL    C6835438   6.420   2.732   1.925 -0.3434  0.0137 -0.4520
  136MOL    C6935439   6.438   2.862   1.941 -0.6737  0.3457  0.6890
  136MOL    C7035440   6.392   2.929   2.068  0.2337 -0.3204  1.0830
  136MOL    C7135441   6.481   2.956   1.831  0.2460  0.7015  0.4481
  136MOL    H7235442   6.447   2.686   1.714 -0.1896 -2.6131 -0.5205
  136MOL    H7335443   6.565   2.639   1.820  0.3467 -0.6759 -4.6106
  136MOL    H7435444   6.399   2.687   2.021  0.3058  2.1309  0.7103
  136MOL    H7535445   6.470   3.005   2.078  1.0611 -0.9159 -0.7671
  136MOL    H7635446   6.389   2.876   2.164  2.7712  1.8443  2.4302
  136MOL    H7735447   6.295   2.975   2.048  0.2423 -0.8784 -0.2812
  136MOL    H7835448   6.531   2.905   1.749  2.3367  1.8348  0.9871
  136MOL    H7935449   6.565   3.015   1.868  0.4754  0.5415  0.1802
  136MOL    C8035450   6.379   3.065   1.784 -0.2006 -0.1173  0.7708
  136MOL    C8135451   6.432   3.146   1.663  0.3086  0.0925 -0.0630
  136MOL    C8235452   6.392   3.144   1.532 -0.2877  0.0527  1.1027
  136MOL    C8335453   6.272   3.069   1.481  0.2490 -0.6032 -0.6559
  136MOL    C8435454   6.488   3.205   1.428  0.5364 -0.0020  0.1480
  136MOL    H8535455   6.360   3.143   1.857  1.3802 -0.5689  1.6941
  136MOL    H8635456   6.282   3.021   1.763 -0.3025  1.2795 -1.8841
  136MOL    H8735457   6.523   3.193   1.699 -0.1149  0.5472  0.4138
  136MOL    H8835458   6.194   3.134   1.441  0.8857  1.3498  1.1927
  136MOL    H8935459   6.228   3.020   1.567 -1.2266  0.0963 -1.0030
  136MOL    H9035460   6.292   2.985   1.414 -2.4338 -0.7750 -1.3000
  136MOL    H9135461   6.577   3.245   1.477 -0.8620  0.6184  2.2426
  136MOL    H9235462   6.439   3.298   1.396 -0.1912 -0.5953 -0.4786
  136MOL    C9335463   6.514   3.114   1.310 -0.2303 -0.0857 -0.2094
  136MOL    C9435464   6.615   3.166   1.206  0.1007  0.0902  0.0656
  136MOL    C9535465   6.600   3.246   1.097 -0.1806 -0.4681  0.1981
  136MOL    C9635466   6.717   3.264   1.000 -0.3925  0.1185 -0.3543
  136MOL    C9735467   6.490   3.345   1.064  0.1392  0.2316 -0.1943
  136MOL    H9835468   6.417   3.111   1.261 -0.4238  0.8637  0.1076
  136MOL    H9935469   6.538   3.015   1.351 -2.4558 -0.1595  1.0052
  136MOL   H10035470   6.708   3.112   1.206 -0.1350 -0.3438 -1.8688
  136MOL   H10135471   6.793   3.187   1.016 -1.9368 -1.3576  0.0802
  136MOL   H10235472   6.685   3.254   0.896 -0.1525  1.0158 -0.5141
  136MOL   H10335473   6.765   3.360   1.020 -1.5741  0.9778 -1.5449
  136MOL   H10435474   6.425   3.342   1.151  0.9212  1.4984  0.4411
  136MOL   H10535475   6.436   3.295   0.983 -0.5215  0.2094  0.2527
  136MOL   C10635476   6.533   3.492   1.033 -0.0240 -0.2408  0.6769
  136MOL   C10735477   6.418   3.579   0.989 -0.1381  0.0569  0.5555
  136MOL   C10835478   6.419   3.667   0.882  0.4864  0.7685  0.0860
  136MOL   C10935479   6.526   3.679   0.775  0.1241  0.0969 -0.2932
  136MOL   C11035480   6.303   3.760   0.857 -0.4453  0.4327 -0.5357
  136MOL   H11135481   6.611   3.498   0.958 -0.7016 -0.9049 -0.0863
  136MOL   H11235482   6.579   3.546   1.116 -0.0801 -0.3936  0.8078
  136MOL   H11335483   6.337   3.571   1.059 -1.1857 -3.4070 -0.9401
  136MOL   H11435484   6.618   3.624   0.797 -0.9074 -1.9292 -0.9425
  136MOL   H11535485   6.483   3.645   0.681  0.4796  1.1059 -0.8302
  136MOL   H11635486   6.561   3.782   0.765 -1.0315  0.6144  0.8786
  136MOL   H11735487   6.266   3.743   0.755 -1.5527 -0.4785 -0.0066
  136MOL   H11835488   6.345   3.860   0.852 -1.3035  0.7889 -0.7576
  136MOL   C11935489   6.192   3.758   0.959  0.5698 -0.2021 -0.1542
  136MOL   C12035490   6.086   3.865   0.935  0.8947 -0.2585 -0.0313
  136MOL   C12135491   5.984   3.863   0.846  0.2641  0.5088 -0.0806
  136MOL   C12235492   5.882   3.976   0.837 -0.7156  0.3832 -0.3048
  136MOL   C12335493   5.966   3.749   0.753 -0.4480  0.0289 -0.1099
  136MOL   H12435494   6.227   3.781   1.060  0.5712 -1.2717  0.0883
  136MOL   H12535495   6.141   3.662   0.963  0.9671 -0.3476  2.2513
  136MOL   H12635496   6.086   3.957   0.990  1.0585  0.9439 -1.9984
  136MOL   H12735497   5.790   3.932   0.800 -0.2961 -0.8905  0.1543
  136MOL   H12835498   5.921   4.048   0.765 -1.1379 -0.2292 -1.1439
  136MOL   H12935499   5.866   4.019   0.936  0.6234 -0.9990  0.5357
  136MOL   H13035500   5.860   3.724   0.751 -0.6272  0.7751 -0.0632
  136MOL   H13135501   6.021   3.659   0.779 -1.5235 -0.2168  1.3669
  136MOL   C13235502   6.001   3.806   0.612  0.7310  0.5381  0.1919
  136MOL   C13335503   5.975   3.701   0.512  0.1417  0.4062  0.6515
  136MOL   C13435504   5.958   3.722   0.380  0.3938 -0.0670  0.2985
  136MOL   C13535505   5.918   3.604   0.292  0.9862 -0.0831  0.0748
  136MOL   C13635506   5.981   3.854   0.301 -0.8419  0.5632 -0.8250
  136MOL   H13735507   6.106   3.834   0.598  0.4173  1.0466 -1.1139
  136MOL   H13835508   5.938   3.893   0.600 -1.3025 -0.9153  0.0820
  136MOL   H13935509   5.954   3.606   0.558 -0.1212  1.3880  2.6368
  136MOL   H14035510   5.809   3.613   0.294  0.9231 -0.7524 -0.2894
  136MOL   H14135511   5.937   3.507   0.336  2.7046 -0.1090 -0.7008
  136MOL   H14235512   5.926   3.615   0.184 -2.0065 -1.1427 -0.3205
  136MOL   H14335513   6.081   3.855   0.258 -0.4158  0.8085  0.1685
  136MOL   H14435514   6.004   3.926   0.379 -1.3637 -1.0521  0.8672
  136MOL   C14535515   5.869   3.888   0.194 -0.5514 -0.2287 -0.1510
  136MOL   C14635516   5.874   4.040   0.164  0.7130  0.3850  0.0214
  136MOL   C14735517   5.938   4.101   0.062 -0.4427 -0.5257 -0.4172
  136MOL   C14835518   5.922   4.249   0.044 -0.6990 -0.2407 -0.4869
  136MOL   C14935519   6.017   4.027   7.838 -0.3311  0.0598 -0.5624
  136MOL   H15035520   5.774   3.866   0.242 -0.3257  1.1071  0.9415
  136MOL   H15135521   5.872   3.839   0.096 -0.7915 -4.4485  1.8499
  136MOL   H15235522   5.813   4.104   0.225  2.8183  1.2546  1.2725
  136MOL   H15335523   5.838   4.298   0.093  0.0981 -0.5514  1.2132
  136MOL   H15435524   5.911   4.280   7.819 -0.3764  1.7649  0.0581
  136MOL   H15535525   6.015   4.297   0.075 -0.2467 -1.6177  0.3290
  136MOL   H15635526   6.059   3.935   0.001 -2.2633 -1.8665 -2.7106
  136MOL   H15735527   6.092   4.099   7.804 -1.3935  0.3165 -2.4467
  136MOL   C15835528   5.932   3.995   7.712  0.0110 -0.7373  0.4441
  136MOL   C15935529   6.001   3.904   7.611  0.1012 -0.6474 -0.6833
  136MOL   C16035530   6.005   3.923   7.477  1.0510 -0.6301 -0.4051
  136MOL   C16135531   5.938   4.042   7.410 -0.4597 -0.6176 -0.7365
  136MOL   C16235532   6.076   3.825   7.383 -0.0897  0.0177  0.8028
  136MOL   H16335533   5.899   4.090   7.671 -2.3580 -0.7658  2.1944
  136MOL   H16435534   5.845   3.943   7.751 -0.9313  0.1682 -0.4309
  136MOL   H16535535   6.045   3.813   7.646 -2.9106 -2.1586 -0.6958
  136MOL   H16635536   5.859   4.003   7.346 -0.7995  1.7644 -1.8186
  136MOL   H16735537   6.014   4.086   7.347 -0.2706  0.2583  0.1032
  136MOL   H16835538   5.898   4.122   7.472 -2.1563 -0.8909 -1.4477
  136MOL   H16935539   6.131   3.753   7.442  0.7750 -0.5692 -0.6935
  136MOL   H17035540   6.149   3.880   7.323 -1.7943 -0.7668 -2.1107
  136MOL   C17135541   5.972   3.743   7.297  0.1314 -0.2890  0.8795
  136MOL   C17235542   6.036   3.620   7.235 -0.4404 -0.6978  0.7669
  136MOL   C17335543   6.000   3.494   7.267 -0.7647  0.2715  0.2769
  136MOL   C17435544   5.896   3.464   7.376 -0.2339  0.3266  0.0861
  136MOL   C17535545   6.074   3.369   7.203  0.3730 -0.7372  0.4284
  136MOL   H17635546   5.947   3.809   7.214 -0.2567 -0.2602  1.0198
  136MOL   H17735547   5.877   3.729   7.348  0.2441 -1.4598  0.7813
  136MOL   H17835548   6.117   3.635   7.165 -2.0850  0.2808 -0.9721
  136MOL   H17935549   5.858   3.550   7.430 -1.2307  1.5646 -2.5166
  136MOL   H18035550   5.943   3.394   7.445 -1.2825  0.8227  1.3038
  136MOL   H18135551   5.818   3.405   7.328 -0.4350  0.4175  0.3054
  136MOL   H18235552   6.106   3.305   7.286  1.5059 -1.6116 -0.6513
  136MOL   H18335553   6.154   3.409   7.140 -2.1148  0.9403 -1.7861
  136MOL   C18435554   5.986   3.272   7.129 -0.1823 -0.6196  0.0526
  136MOL   C18535555   6.089   3.162   7.087  0.8215 -0.7532  0.4327
  136MOL   C18635556   6.077   3.030   7.091 -0.0386  0.5839  0.3722
  136MOL   C18735557   6.190   2.933   7.049  0.3288  0.3948 -0.0914
  136MOL   C18835558   5.938   2.956   7.118 -0.2854 -0.1020 -0.5359
  136MOL   H18935559   5.946   3.318   7.038  2.3262  0.9307 -0.2966
  136MOL   H19035560   5.895   3.235   7.177  1.3116 -3.7840  0.6306
  136MOL   H19135561   6.190   3.192   7.063  0.3550 -0.3698 -1.1505
  136MOL   H19235562   6.155   2.879   6.960  0.4668 -2.1150  1.3357
  136MOL   H19335563   6.216   2.854   7.119 -1.8585  0.4308  0.8135
  136MOL   H19435564   6.272   2.992   7.010  0.8057 -0.5164 -0.4834
  136MOL   H19535565   5.916   2.886   7.037 -2.6253  0.4010 -0.3807
  136MOL   H19635566   5.851   3.022   7.115 -0.2120  0.1650  2.2105
  136MOL   C19735567   5.940   2.871   7.251 -0.1489 -0.1067 -0.3522
  136MOL   C19835568   5.932   2.956   7.380 -0.3964  0.1167 -0.0195
  136MOL   C19935569   5.999   2.943   7.497 -0.6870 -0.1234 -0.1394
  136MOL   C20035570   5.975   3.043   7.614  0.4153 -0.6198  0.1163
  136MOL   C20135571   6.109   2.836   7.517 -0.6196 -0.0741 -0.2991
  136MOL   H20235572   6.028   2.807   7.256 -0.6327 -0.5983  1.8788
  136MOL   H20335573   5.866   2.793   7.239  0.6298 -0.6833 -1.5209
  136MOL   H20435574   5.867   3.042   7.373 -2.2807 -1.3582 -1.2680
  136MOL   H20535575   6.046   3.125   7.599 -0.7328  0.3490 -0.0720
  136MOL   H20635576   5.971   3.006   7.717 -1.1883 -0.9184 -0.0416
  136MOL   H20735577   5.872   3.071   7.591  1.2131  0.2941 -2.4938
  136MOL   H20835578   6.198   2.879   7.564 -2.6351  2.3907  1.3963
  136MOL   H20935579   6.153   2.784   7.433  0.1956  1.4859 -0.8612
  136MOL   C21035580   6.041   2.726   7.607 -0.6749 -0.2455 -0.2042
  136MOL   C21135581   5.963   2.633   7.515  0.6989 -0.7655  0.0302
  136MOL   C21235582   5.831   2.611   7.517 -0.8620 -0.5502 -0.1862
  136MOL   C21335583   5.769   2.491   7.451 -0.2709 -0.1367  0.2676
  136MOL   C21435584   5.741   2.686   7.615  0.7323 -0.1432 -0.3198
  136MOL   H21535585   5.988   2.766   7.694  0.0040  0.3910 -0.0801
  136MOL   H21635586   6.122   2.673   7.657 -0.2595 -0.2505 -0.8753
  136MOL   H21735587   6.026   2.578   7.446  3.3998  1.9999  0.1847
  136MOL   H21835588   5.720   2.531   7.362 -0.9977  0.7043  1.0218
  136MOL   H21935589   5.702   2.436   7.517 -0.1498 -1.4582 -0.6931
  136MOL   H22035590   5.852   2.427   7.424  0.1920 -0.3631  2.1503
  136MOL   H22135591   5.785   2.779   7.650 -0.0483  0.2513 -0.3785
  136MOL   H22235592   5.706   2.623   7.696 -0.3728 -1.9350 -2.1609
  136MOL   C22335593   5.617   2.744   7.545  0.3920 -0.1463  0.0489
  136MOL   C22435594   5.543   2.855   7.621  0.2113  1.6735  0.3798
  136MOL   C22535595   5.499   2.976   7.587  0.6816 -1.0868  0.0197
  136MOL   C22635596   5.414   3.059   7.685 -0.1093  0.3219  0.1373
  136MOL   C22735597   5.508   3.046   7.450 -0.0246 -0.0446 -0.4938
  136MOL   H22835598   5.553   2.658   7.526 -0.3837  0.6854 -1.1847
  136MOL   H22935599   5.641   2.778   7.444 -2.0190  1.0159 -0.1651
  136MOL   H23035600   5.523   2.824   7.723  1.2207 -2.5355 -0.5833
  136MOL   H23135601   5.320   3.097   7.644 -1.0181 -1.0127  0.9371
  136MOL   H23235602   5.471   3.139   7.732  1.5235 -0.0966 -1.0677
  136MOL   H23335603   5.377   2.991   7.762 -0.1073  0.3063  0.1242
  136MOL   H23435604   5.571   2.975   7.396  0.9267 -0.2196  0.8036
  136MOL   H23535605   5.566   3.137   7.460 -1.2532  0.7083 -0.1153
  136MOL   C23635606   5.376   3.057   7.378 -0.0104 -0.3967 -0.5047
  136MOL   C23735607   5.395   3.088   7.225 -0.6821 -0.3481  0.8608
  136MOL   C23835608   5.341   3.010   7.126 -0.0060 -0.0971  0.7649
  136MOL   C23935609   5.392   3.034   6.983  0.2736 -0.4310 -0.5287
  136MOL   C24035610   5.245   2.896   7.143 -0.5083  0.2201 -0.0859
  136MOL   H24135611   5.324   3.144   7.417 -0.0156  0.4334 -2.3009
  136MOL   H24235612   5.313   2.968   7.390  0.4673 -0.9579 -2.0519
  136MOL   H24335613   5.452   3.177   7.203 -0.1444 -0.7396  0.6501
  136MOL   H24435614   5.310   3.057   6.915  0.1267 -2.1298 -0.9458
  136MOL   H24535615   5.454   2.954   6.941  0.4018 -1.0230  0.7481
  136MOL   H24635616   5.452   3.123   7.000 -0.6253  0.0605  0.0669
  136MOL   H24735617   5.183   2.894   7.053 -0.8628 -2.7733  0.1775
  136MOL   H24835618   5.180   2.907   7.230 -1.9274  0.7957 -1.2012
  136MOL   C24935619   5.321   2.769   7.162 -0.6969  0.8661  0.8968
  136MOL   C25035620   5.234   2.647   7.167  0.4774  0.6957  0.5642
  136MOL   C25135621   5.186   2.590   7.277 -0.1787 -0.4377 -0.3469
  136MOL   C25235622   5.094   2.469   7.281 -0.0950  0.0190 -0.4493
  136MOL   C25335623   5.234   2.624   7.413  0.1943 -0.0974 -0.5743
  136MOL   H25435624   5.380   2.768   7.253 -0.9216 -1.3789  1.0397
  136MOL   H25535625   5.400   2.751   7.090 -1.8064  2.7220 -0.8311
  136MOL   H25635626   5.208   2.606   7.070 -4.3495 -1.0236  2.4324
  136MOL   H25735627   5.001   2.500   7.328 -0.1369  0.4307 -0.7977
  136MOL   H25835628   5.129   2.395   7.352  0.0576  0.3023 -0.2280
  136MOL   H25935629   5.084   2.416   7.186  4.2838 -1.0220 -0.4142
  136MOL   H26035630   5.168   2.579   7.487 -0.6777  0.5439 -0.9504
  136MOL   H26135631   5.241   2.731   7.433 -0.0665  0.3392 -2.7152
  136MOL   H26235632   5.331   2.574   7.419 -0.0628 -0.3866  1.5726
  137MOL     C135633   7.797   6.245   5.020 -0.1918 -0.1220 -0.2616
  137MOL     C235634   7.647   6.285   5.024  0.4072  0.4673  0.2599
  137MOL     C335635   7.592   6.389   5.086  0.7435 -0.3913 -0.3889
  137MOL     C435636   7.446   6.406   5.080 -1.1358 -0.3495  0.2938
  137MOL     C535637   7.662   6.497   5.161 -0.5230 -0.1059 -0.8430
  137MOL     H635638   7.813   6.220   4.915 -1.0009  1.7938 -0.8579
  137MOL     H735639   7.870   6.322   5.041 -0.5822  0.7954 -2.1106
  137MOL     H835640   7.574   6.220   4.977 -1.5494  1.7065  1.5091
  137MOL     H935641   7.417   6.504   5.043  0.4855  0.2514  0.5711
  137MOL    H1035642   7.394   6.390   5.174 -1.2894 -0.2392  0.2284
  137MOL    H1135643   7.405   6.329   5.015  2.1794 -1.4004 -0.6299
  137MOL    H1235644   7.642   6.594   5.115 -0.2158  1.0600  1.4435
  137MOL    H1335645   7.771   6.490   5.154 -0.5290  0.1144 -1.2105
  137MOL    H1435646   7.807   6.158   5.084 -0.0279 -0.8962 -1.3174
  137MOL    C1535647   7.624   6.504   5.313 -0.0858  0.2339 -0.3877
  137MOL    C1635648   7.724   6.579   5.394  0.2217  0.6086  0.2051
  137MOL    C1735649   7.816   6.520   5.474  1.0506 -0.5728 -0.4287
  137MOL    C1835650   0.035   6.604   5.563 -0.2948 -0.2682  0.0152
  137MOL    C1935651   7.825   6.373   5.487  0.0978 -0.4118 -0.6514
  137MOL    H2035652   7.594   6.404   5.343 -1.1268  1.0149  1.2230
  137MOL    H2135653   7.540   6.572   5.326  0.4173  0.8736 -0.4406
  137MOL    H2235654   7.721   6.684   5.373  1.8383  0.1459 -2.5780
  137MOL    H2335655   0.052   6.694   5.503 -0.5919 -1.4687 -1.9252
  137MOL    H2435656   0.132   6.556   5.575 -1.1939 -1.6982  1.7732
  137MOL    H2535657   7.868   6.623   5.660 -2.5408  2.4616 -1.4972
  137MOL    H2635658   7.742   6.306   5.465  1.4633 -2.6767  0.9211
  137MOL    H2735659   7.835   6.364   5.595  0.8065 -1.0195 -0.7650
  137MOL    C2835660   0.073   6.311   5.416  0.1210 -0.3740  0.1603
  137MOL    C2935661   0.084   6.163   5.438 -0.8243  0.7095 -0.3651
  137MOL    C3035662   0.157   6.096   5.533 -0.5356 -0.4894 -0.2374
  137MOL    C3135663   0.142   5.949   5.557 -0.2756 -0.3814  0.1401
  137MOL    C3235664   0.253   6.158   5.631  0.4963  0.1816  0.2473
  137MOL    H3335665   0.169   6.360   5.434 -0.7259  1.0827  0.8799
  137MOL    H3435666   0.070   6.314   5.307 -1.1065 -0.7666  0.1760
  137MOL    H3535667   0.017   6.098   5.383  0.1462  0.4169 -1.2221
  137MOL    H3635668   0.119   5.937   5.663  0.7504 -0.2096  0.3909
  137MOL    H3735669   0.233   5.890   5.545 -1.4725 -2.2610  0.1299
  137MOL    H3835670   0.075   5.886   5.499  0.1827  1.3721 -2.3674
  137MOL    H3935671   0.206   6.153   5.730  0.0446  1.7690  0.1252
  137MOL    H4035672   0.254   6.267   5.622  0.0742  0.0289 -2.0101
  137MOL    C4135673   0.396   6.103   5.620  0.3567  0.3418 -0.3618
  137MOL    C4235674   0.480   6.170   5.731 -0.5591 -0.0122 -0.6358
  137MOL    C4335675   0.502   6.135   5.862 -0.2519  0.5157 -0.2161
  137MOL    C4435676   0.571   6.216   5.972 -0.2986 -0.6858  0.4752
  137MOL    C4535677   0.465   5.993   5.908 -0.1460 -0.9582  0.6840
  137MOL    H4635678   0.434   6.135   5.522  0.3379 -0.0730 -0.5053
  137MOL    H4735679   0.394   5.995   5.632 -0.6559  0.6203  2.0540
  137MOL    H4835680   0.505   6.275   5.721  1.3758 -0.6435 -2.8315
  137MOL    H4935681   0.660   6.177   6.023  0.0718 -1.6715 -0.8923
  137MOL    H5035682   0.495   6.237   6.046 -0.3522 -0.9653  0.5006
  137MOL    H5135683   0.604   6.308   5.924 -1.7209  0.1135  1.0051
  137MOL    H5235684   0.547   5.950   5.964  0.8210 -2.5344 -1.8375
  137MOL    H5335685   0.471   5.918   5.828 -0.2064 -1.1573  0.8659
  137MOL    C5435686   0.327   5.984   5.977 -0.5409 -0.2174 -0.0349
  137MOL    C5535687   0.295   5.860   6.053 -0.2807 -0.3641 -0.2847
  137MOL    C5635688   0.207   5.759   6.027  0.2663 -0.0857  0.0714
  137MOL    C5735689   0.216   5.629   6.109 -0.5695  0.3771  0.0073
  137MOL    C5835690   0.105   5.754   5.918  0.5402  0.8141  0.6383
  137MOL    H5935691   0.249   5.988   5.900  0.2763 -1.0967 -0.9280
  137MOL    H6035692   0.307   6.079   6.026 -1.4608 -0.5810  0.2958
  137MOL    H6135693   0.371   5.855   6.130  1.6648 -1.1424 -2.1892
  137MOL    H6235694   0.121   5.588   6.142 -1.8472  1.2711 -2.4886
  137MOL    H6335695   0.277   5.647   6.198 -2.2899  1.2357  1.0343
  137MOL    H6435696   0.265   5.552   6.050  0.0072 -1.3456  2.6093
  137MOL    H6535697   0.084   5.647   5.906  2.9935  0.3829 -0.1762
  137MOL    H6635698   0.146   5.803   5.829  1.4216 -1.4764 -0.2619
  137MOL    C6735699   7.856   5.834   5.933  0.1416  0.2986 -0.3234
  137MOL    C6835700   7.762   5.811   5.818 -0.3527 -0.0796 -0.0841
  137MOL    C6935701   7.649   5.733   5.812  0.7868  0.5778 -0.1666
  137MOL    C7035702   7.558   5.737   5.688  0.9414 -0.3607 -0.1279
  137MOL    C7135703   7.605   5.627   5.920 -0.1351 -0.1065  0.2263
  137MOL    H7235704   0.015   5.934   5.950  0.0225 -0.0522  2.2554
  137MOL    H7335705   7.800   5.818   6.025  0.2854 -0.1273 -0.3090
  137MOL    H7435706   7.772   5.875   5.732  0.5665  0.0795  0.1383
  137MOL    H7535707   7.460   5.778   5.714  1.0446  1.3777 -2.2738
  137MOL    H7635708   7.538   5.633   5.664  0.6192  0.2880 -2.8556
  137MOL    H7735709   7.606   5.789   5.605  1.3220  2.7815  1.9756
  137MOL    H7835710   7.683   5.597   5.989  2.5093  1.0858 -2.1438
  137MOL    H7935711   7.578   5.537   5.866  1.2577 -0.6715  0.4566
  137MOL    C8035712   7.465   5.654   5.984 -0.0776 -0.0907 -0.2677
  137MOL    C8135713   7.476   5.778   6.076 -0.3225 -0.1750  0.2696
  137MOL    C8235714   7.411   5.809   6.188  0.6972  0.3373  0.4558
  137MOL    C8335715   7.311   5.726   6.265  0.3900 -0.1775 -0.1720
  137MOL    C8435716   7.426   5.945   6.250  0.0474  0.3518  0.2906
  137MOL    H8535717   7.429   5.566   6.037 -1.2910  0.5510 -0.0141
  137MOL    H8635718   7.392   5.671   5.905 -0.8248  1.0176  0.6545
  137MOL    H8735719   7.536   5.860   6.041 -1.4537  0.8406  0.6898
  137MOL    H8835720   7.207   5.753   6.249  0.1672 -2.0842 -2.0034
  137MOL    H8935721   7.332   5.741   6.371  0.9209 -1.1329 -0.1343
  137MOL    H9035722   7.331   5.621   6.248  2.0074 -0.0461  0.7779
  137MOL    H9135723   7.516   5.996   6.217  0.6969  0.2757  1.9108
  137MOL    H9235724   7.445   5.940   6.358 -0.8920  0.9808  0.4939
  137MOL    C9335725   7.302   6.025   6.232  0.4138  0.0418  0.3064
  137MOL    C9435726   7.324   6.174   6.245 -0.0172 -0.0708  0.3352
  137MOL    C9535727   7.276   6.258   6.340  0.0787 -0.3391  0.6412
  137MOL    C9635728   7.325   6.401   6.358  0.0073  0.1173 -0.4505
  137MOL    C9735729   7.168   6.213   6.444  0.2310 -0.1512  0.4730
  137MOL    H9835730   7.224   6.000   6.304  0.2790 -0.1331  0.1008
  137MOL    H9935731   7.257   5.996   6.137 -0.2642 -0.8012  0.8692
  137MOL   H10035732   7.392   6.212   6.171 -0.9672 -0.7871 -0.9298
  137MOL   H10135733   7.401   6.440   6.290 -0.2005  1.8396  0.2807
  137MOL   H10235734   7.237   6.466   6.356 -1.7848 -2.2334 -0.4294
  137MOL   H10335735   7.369   6.411   6.457  0.7662 -0.2460 -0.7483
  137MOL   H10435736   7.090   6.160   6.391 -0.8393 -0.1601  2.0407
  137MOL   H10535737   7.118   6.302   6.483 -1.3969 -0.2999 -1.2473
  137MOL   C10635738   7.221   6.144   6.572 -0.6551 -0.1887 -0.1987
  137MOL   C10735739   7.111   6.108   6.673  0.0616 -0.8370 -0.3395
  137MOL   C10835740   7.030   5.999   6.669  0.6428  0.3883  0.6702
  137MOL   C10935741   7.040   5.897   6.558  0.1144  0.1238  0.1672
  137MOL   C11035742   6.903   5.980   6.760 -0.0802  0.4067  0.1728
  137MOL   H11135743   7.300   6.203   6.618 -1.0679  1.6229 -1.7110
  137MOL   H11235744   7.273   6.057   6.533  0.6394 -0.2136  1.5371
  137MOL   H11335745   7.084   6.184   6.746 -0.3248 -0.8992 -0.4154
  137MOL   H11435746   7.135   5.893   6.503 -0.4023 -1.0067 -0.6543
  137MOL   H11535747   7.010   5.799   6.595 -1.6814 -0.1410 -1.8881
  137MOL   H11635748   6.973   5.917   6.474  0.0054 -2.8547 -0.5023
  137MOL   H11735749   6.900   6.056   6.838  2.1356  0.4040  0.3137
  137MOL   H11835750   6.918   5.885   6.813 -1.8281 -0.6666 -1.2249
  137MOL   C11935751   6.772   5.968   6.672  0.0392  0.0226 -1.1038
  137MOL   C12035752   6.655   5.924   6.754 -0.0836 -0.0247  0.6369
  137MOL   C12135753   6.549   5.998   6.789 -0.4109 -0.0886 -0.3962
  137MOL   C12235754   6.430   5.940   6.877 -0.0484 -0.2908 -0.3640
  137MOL   C12335755   6.511   6.138   6.757  0.1769  0.2679  0.4601
  137MOL   H12435756   6.766   5.894   6.592 -0.8974 -1.1821  0.0487
  137MOL   H12535757   6.748   6.057   6.615 -0.0699  1.7647  1.5797
  137MOL   H12635758   6.649   5.822   6.790 -1.9974 -1.1193 -2.5612
  137MOL   H12735759   6.403   6.021   6.945  0.8068 -1.5553  1.5402
  137MOL   H12835760   6.447   5.848   6.934 -0.1820 -0.1620 -0.1156
  137MOL   H12935761   6.354   5.925   6.801  1.6214 -1.6336 -1.7893
  137MOL   H13035762   6.409   6.156   6.724  0.5326 -0.5667 -1.1358
  137MOL   H13135763   6.581   6.161   6.677  0.6044  2.1744  1.3511
  137MOL   C13235764   6.552   6.239   6.866  0.1849 -0.6252  0.0677
  137MOL   C13335765   6.514   6.379   6.827 -0.3515  0.7534 -0.1102
  137MOL   C13435766   6.588   6.488   6.865 -0.3048 -0.3449  0.2646
  137MOL   C13535767   6.527   6.623   6.836 -0.2929  0.2024  0.1273
  137MOL   C13635768   6.729   6.501   6.915 -0.1786 -0.3143 -0.2644
  137MOL   H13735769   6.661   6.243   6.868  0.2425 -1.9376  0.2591
  137MOL   H13835770   6.506   6.220   6.964 -2.6546  0.5531 -0.9800
  137MOL   H13935771   6.417   6.390   6.783 -0.0345  2.4388 -0.3986
  137MOL   H14035772   6.431   6.609   6.785 -0.8184 -2.2086  1.6933
  137MOL   H14135773   6.594   6.678   6.770  0.0208 -0.4412 -0.0970
  137MOL   H14235774   6.515   6.683   6.926 -1.6050  2.9594 -1.8017
  137MOL   H14335775   6.737   6.420   6.988 -0.2629 -0.0096  0.0839
  137MOL   H14435776   6.742   6.593   6.970  1.8653  1.3495 -3.3754
  137MOL   C14535777   6.837   6.491   6.806 -0.4072 -0.6368 -0.2387
  137MOL   C14635778   6.980   6.499   6.858 -0.0451 -0.6417 -0.5958
  137MOL   C14735779   7.077   6.593   6.828  0.2253 -0.3746  0.6580
  137MOL   C14835780   7.215   6.590   6.899  0.2661  0.3994 -0.2429
  137MOL   C14935781   7.060   6.711   6.732 -0.0820 -0.0061 -0.2176
  137MOL   H15035782   6.817   6.577   6.743 -1.5109 -0.2635  0.6160
  137MOL   H15135783   6.823   6.404   6.741 -1.0653  0.8148 -2.1085
  137MOL   H15235784   7.002   6.425   6.933 -0.5194 -0.0175  0.1693
  137MOL   H15335785   7.253   6.678   6.950  0.5092 -0.4465  1.0778
  137MOL   H15435786   7.302   6.561   6.841 -0.3313  2.7032 -2.3426
  137MOL   H15535787   7.208   6.504   6.966 -0.2180  0.6665  0.0570
  137MOL   H15635788   7.092   6.797   6.790  0.9379 -0.5121 -0.0149
  137MOL   H15735789   6.955   6.740   6.727  0.4776  2.0761 -0.4808
  137MOL   C15835790   7.126   6.698   6.601  0.0259  0.4457  0.6347
  137MOL   C15935791   7.113   6.814   6.507  0.6864 -0.6030  0.4315
  137MOL   C16035792   7.192   6.844   6.404 -0.4362  0.3585  0.4535
  137MOL   C16135793   7.315   6.769   6.368  0.5698  1.1189  0.0266
  137MOL   C16235794   7.147   6.960   6.315  0.2512 -0.3926 -0.0314
  137MOL   H16335795   7.069   6.612   6.565  0.0052  0.2201  1.2067
  137MOL   H16435796   7.229   6.671   6.621  0.8168  1.7634 -1.5157
  137MOL   H16535797   7.026   6.877   6.512  0.8866 -0.4209  1.8796
  137MOL   H16635798   7.306   6.716   6.274 -0.3013  0.3630  0.5380
  137MOL   H16735799   7.350   6.706   6.450  1.6939  0.7439 -0.7304
  137MOL   H16835800   7.404   6.832   6.360  0.0609  1.7464 -0.7690
  137MOL   H16935801   7.055   7.011   6.341 -0.9980 -3.2370  1.4206
  137MOL   H17035802   7.109   6.922   6.220  3.8026 -1.5586 -1.0602
  137MOL   C17135803   7.250   7.072   6.294  0.2115 -0.5162  0.4697
  137MOL   C17235804   7.204   7.161   6.180  0.1607  0.5405  0.5478
  137MOL   C17335805   7.271   7.183   6.067  0.0821 -0.2529 -0.5543
  137MOL   C17435806   7.407   7.119   6.032 -0.3094 -0.3808  0.7298
  137MOL   C17535807   7.203   7.268   5.956 -0.0504  0.1260  0.0731
  137MOL   H17635808   7.352   7.033   6.286  0.8172  1.2068 -0.5055
  137MOL   H17735809   7.257   7.138   6.381  2.2424  1.7360 -1.3371
  137MOL   H17835810   7.110   7.211   6.197 -0.8886 -2.1249  2.9414
  137MOL   H17935811   7.405   7.046   5.952  2.3613 -0.3456  0.5971
  137MOL   H18035812   7.453   7.050   6.103  0.6581 -1.5504 -1.0193
  137MOL   H18135813   7.485   7.195   6.027 -0.5527 -0.1869 -0.1025
  137MOL   H18235814   7.282   7.336   5.924  0.7500 -0.6051  0.4860
  137MOL   H18335815   7.125   7.331   5.998 -0.3767  1.1384 -1.9841
  137MOL   C18435816   7.149   7.183   5.837  0.2600  0.1577 -1.0427
  137MOL   C18535817   7.072   7.262   5.734 -0.3823  0.0386 -0.8252
  137MOL   C18635818   6.987   7.215   5.643  0.2574 -0.4889  0.0520
  137MOL   C18735819   6.905   7.315   5.560  0.1348 -0.4374  0.4829
  137MOL   C18835820   6.972   7.070   5.608  0.1105  0.7769  0.5192
  137MOL   H18935821   7.080   7.107   5.874 -0.9577  1.6789 -0.1994
  137MOL   H19035822   7.233   7.139   5.782  0.4211 -2.6704  1.3048
  137MOL   H19135823   7.081   7.369   5.749 -3.1036  0.4645 -2.0193
  137MOL   H19235824   6.946   7.316   5.458 -2.9067 -1.1519 -0.7897
  137MOL   H19335825   6.907   7.412   5.610 -2.0477 -0.4052  0.5540
  137MOL   H19435826   6.799   7.297   5.548 -0.0649  1.4122 -0.8838
  137MOL   H19535827   6.866   7.050   5.591  0.0163 -0.0140  1.9685
  137MOL   H19635828   7.006   7.007   5.690  0.9897 -0.0367 -0.4469
  137MOL   C19735829   7.050   7.032   5.481 -0.3021  0.0903 -1.0310
  137MOL   C19835830   7.068   6.881   5.460 -0.2222 -0.9928 -0.1289
  137MOL   C19935831   7.176   6.800   5.446 -0.2548  0.6349 -1.3077
  137MOL   C20035832   7.152   6.658   5.408 -0.2249  0.3648 -0.0506
  137MOL   C20135833   7.324   6.847   5.453 -0.5702  0.1041  0.7593
  137MOL   H20235834   7.143   7.088   5.475 -0.0229 -0.1599  0.6100
  137MOL   H20335835   7.003   7.072   5.391  0.0203  2.3704 -0.2359
  137MOL   H20435836   6.977   6.829   5.434 -1.3630  0.5653  0.7050
  137MOL   H20535837   7.076   6.656   5.330  0.1070  1.4799 -0.3963
  137MOL   H20635838   7.115   6.605   5.496 -0.1397 -0.5381 -0.5503
  137MOL   H20735839   7.242   6.618   5.362 -1.1631 -0.9310 -0.8168
  137MOL   H20835840   7.321   6.954   5.473  1.1352  0.6339 -1.6434
  137MOL   H20935841   7.373   6.835   5.357  1.8204 -1.7384  2.1537
  137MOL   C21035842   7.398   6.786   5.568  0.0158  0.4104  0.2801
  137MOL   C21135843   7.327   6.799   5.706  0.1513 -0.6451  0.1337
  137MOL   C21235844   7.373   6.740   5.819  0.2049  0.0611 -0.8063
  137MOL   C21335845   7.301   6.778   5.950 -0.6233  0.3174  0.5165
  137MOL   C21435846   7.486   6.638   5.827  0.5556  1.0058 -0.6777
  137MOL   H21535847   7.497   6.829   5.578  0.8930 -1.5388  0.1294
  137MOL   H21635848   7.417   6.680   5.551  2.2255  0.6176  1.2866
  137MOL   H21735849   7.245   6.870   5.712  0.4011 -0.6325  4.7018
  137MOL   H21835850   7.254   6.686   5.985  1.4561 -0.8492  0.3544
  137MOL   H21935851   7.223   6.851   5.936 -1.8156 -0.8551  0.9279
  137MOL   H22035852   7.366   6.812   6.031 -0.9199  0.0014  0.8890
  137MOL   H22135853   7.547   6.652   5.917 -0.1469  2.5834 -0.4281
  137MOL   H22235854   7.554   6.644   5.742 -0.7954 -2.5890 -2.0962
  137MOL   C22335855   7.428   6.497   5.842  0.2156  0.0813  0.5945
  137MOL   C22435856   7.520   6.383   5.891 -0.1334 -1.1063 -0.3140
  137MOL   C22535857   7.523   6.253   5.844  0.0622  0.1366  0.5482
  137MOL   C22635858   7.626   6.161   5.887 -0.2268 -0.5534  0.2251
  137MOL   C22735859   7.444   6.212   5.722 -0.1522 -0.3637 -0.0826
  137MOL   H22835860   7.406   6.473   5.738  0.6379 -0.6728  0.6690
  137MOL   H22935861   7.340   6.474   5.901  0.5494 -5.1048 -0.6533
  137MOL   H23035862   7.583   6.414   5.974  0.3372 -0.4854 -0.9044
  137MOL   H23135863   7.678   6.119   5.801  1.9164 -0.9409  1.6609
  137MOL   H23235864   7.594   6.078   5.949  0.7198  0.6927  2.4632
  137MOL   H23335865   7.691   6.210   5.960  0.0470  1.1385 -1.1108
  137MOL   H23435866   7.343   6.253   5.731  0.0220  0.6870 -2.6171
  137MOL   H23535867   7.433   6.103   5.728 -1.1366 -0.1500  2.4117
  137MOL   C23635868   7.507   6.237   5.584  0.5504 -0.0873 -0.0762
  137MOL   C23735869   7.407   6.206   5.470  0.2160 -0.9908  1.2397
  137MOL   C23835870   7.443   6.146   5.357  1.2762  0.0992 -0.3361
  137MOL   C23935871   7.325   6.099   5.262 -0.2363 -0.7620  0.0106
  137MOL   C24035872   7.584   6.094   5.330 -0.4508 -0.1543  1.0731
  137MOL   H24135873   7.601   6.182   5.572  0.7138  0.3611 -0.8765
  137MOL   H24235874   7.535   6.340   5.561  2.5162 -0.5956 -0.0575
  137MOL   H24335875   7.303   6.229   5.486  0.7763  3.6774 -1.0359
  137MOL   H24435876   7.351   6.119   5.158  0.8187 -2.0286  0.0181
  137MOL   H24535877   7.242   6.167   5.285  1.4308  0.6725  2.0196
  137MOL   H24635878   7.305   5.992   5.269 -1.9975 -0.5502 -1.4176
  137MOL   H24735879   7.667   6.097   5.401  0.9249 -2.8888 -0.3682
  137MOL   H24835880   7.611   6.167   5.254  2.0051  0.4915  2.5160
  137MOL   C24935881   7.584   5.954   5.279  1.1557  0.5032 -0.0643
  137MOL   C25035882   7.717   5.900   5.250  0.2091 -0.4364  0.4375
  137MOL   C25135883   7.764   5.774   5.272  0.1258  0.6468 -0.0762
  137MOL   C25235884   0.020   5.741   5.225  0.7824 -0.4065 -0.5080
  137MOL   C25335885   7.691   5.651   5.335 -0.4850 -0.0874 -0.1484
  137MOL   H25435886   7.530   5.943   5.186  2.1017  1.0859 -0.6961
  137MOL   H25535887   7.532   5.891   5.351  2.3694 -1.2304 -0.6855
  137MOL   H25635888   7.777   5.982   5.215 -1.3519  0.6382  0.2453
  137MOL   H25735889   0.018   5.659   5.153 -2.4561 -1.1952  0.3990
  137MOL   H25835890   0.081   5.713   5.311  0.9550 -0.0226 -0.4998
  137MOL   H25935891   0.078   5.821   5.176 -0.5688  0.6345 -0.4253
  137MOL   H26035892   7.639   5.588   5.263  1.1780 -1.8852  0.1890
  137MOL   H26135893   7.608   5.686   5.397 -0.9339 -1.5164  0.0654
  137MOL   H26235894   7.757   5.584   5.389  0.6902  0.2015 -1.2159
  138MOL     C135895   0.758   3.097   0.996  0.6714 -0.3983  0.6693
  138MOL     C235896   0.771   2.945   1.035  0.0469 -0.4548  0.1562
  138MOL     C335897   0.869   2.875   1.100  0.5762 -0.6229 -0.8467
  138MOL     C435898   0.859   2.733   1.149  0.0605  0.2819 -0.1193
  138MOL     C535899   0.998   2.948   1.147  0.3075 -0.5388  0.8829
  138MOL     H635900   0.751   3.106   0.887  0.1994  2.3304  0.8809
  138MOL     H735901   0.664   3.144   1.024  0.4989 -0.4617  0.1978
  138MOL     H835902   0.685   2.884   1.011 -1.0494  1.3441 -0.5734
  138MOL     H935903   0.875   2.732   1.256 -2.0109  1.6481  0.2391
  138MOL    H1035904   0.942   2.679   1.104 -0.5265 -0.3400 -0.4736
  138MOL    H1135905   0.768   2.682   1.118  1.0696 -1.2836 -0.5454
  138MOL    H1235906   1.024   2.924   1.250  2.9964 -2.8863 -0.2531
  138MOL    H1335907   0.992   3.057   1.146 -1.6231 -0.6049  2.4340
  138MOL    H1435908   0.843   3.153   1.035  1.4543  0.8117 -2.5485
  138MOL    C1535909   1.117   2.903   1.056 -1.0371 -0.0209 -0.0524
  138MOL    C1635910   1.239   2.983   1.102  0.0047 -0.8077 -0.5990
  138MOL    C1735911   1.350   2.932   1.157 -0.2057  0.0209 -0.2879
  138MOL    C1835912   1.477   3.014   1.183  0.0750 -0.1816  0.0892
  138MOL    C1935913   1.365   2.792   1.210  0.4271  0.1199 -0.0452
  138MOL    H2035914   1.104   2.926   0.950  1.0721 -1.1350 -0.5730
  138MOL    H2135915   1.146   2.799   1.067 -0.0183  0.5488  3.1943
  138MOL    H2235916   1.232   3.081   1.056 -2.3142 -0.1894  0.9975
  138MOL    H2335917   1.560   2.978   1.122 -0.5717 -1.3938 -0.0829
  138MOL    H2435918   1.511   3.017   1.286  0.2549  1.4931  0.0004
  138MOL    H2535919   1.459   3.119   1.161 -2.6137 -0.2485  1.8282
  138MOL    H2635920   1.275   2.736   1.232 -0.8260  2.9406  2.4267
  138MOL    H2735921   1.412   2.788   1.309  0.5492 -1.2397 -0.1499
  138MOL    C2835922   1.449   2.709   1.115 -0.2391 -0.3513 -0.1456
  138MOL    C2935923   1.428   2.569   1.153 -0.3936  0.6024 -0.1303
  138MOL    C3035924   1.371   2.471   1.078  0.5218  0.2283 -0.0778
  138MOL    C3135925   1.345   2.336   1.142 -0.0631 -0.1869  0.6177
  138MOL    C3235926   1.339   2.485   0.930  0.4499 -0.6597 -0.6272
  138MOL    H3335927   1.556   2.731   1.122 -0.1364 -1.3860  1.9693
  138MOL    H3435928   1.434   2.732   1.009  2.0530  2.2781  0.0309
  138MOL    H3535929   1.448   2.547   1.257 -0.1712  0.6858 -0.1546
  138MOL    H3635930   1.249   2.294   1.112  0.3658 -1.3756  0.9209
  138MOL    H3735931   1.346   2.336   1.251 -0.2182 -0.3356  0.6195
  138MOL    H3835932   1.424   2.266   1.116  0.6698  1.6883 -2.5512
  138MOL    H3935933   1.360   2.393   0.877 -1.2541 -0.0055 -2.4962
  138MOL    H4035934   1.396   2.565   0.883 -0.7931  1.0231  0.6509
  138MOL    C4135935   1.193   2.528   0.916 -0.5317  0.7034  0.0375
  138MOL    C4235936   1.132   2.507   0.782  0.1554  0.6525  0.2392
  138MOL    C4335937   1.069   2.398   0.744 -0.1549 -0.1843 -0.2469
  138MOL    C4435938   1.020   2.383   0.603  0.3470  0.0539 -0.0215
  138MOL    C4535939   1.042   2.275   0.840 -0.6107 -0.0857  0.7094
  138MOL    H4635940   1.183   2.633   0.943 -0.0970  0.7946 -0.1437
  138MOL    H4735941   1.130   2.477   0.989  0.6757 -1.4804 -0.4189
  138MOL    H4835942   1.157   2.583   0.709 -0.5239 -0.4725 -1.1828
  138MOL    H4935943   1.090   2.318   0.550  1.2745  1.4652 -0.5815
  138MOL    H5035944   1.004   2.475   0.546  2.9441 -0.1906 -1.2121
  138MOL    H5135945   0.929   2.324   0.593  0.4840  0.1861 -2.3435
  138MOL    H5235946   0.935   2.271   0.859 -0.8486  0.5972 -0.4581
  138MOL    H5335947   1.099   2.281   0.932 -0.6264 -2.6954  0.9337
  138MOL    C5435948   1.080   2.142   0.781  0.8112  0.1134  0.5472
  138MOL    C5535949   1.063   2.029   0.878  0.1644 -0.2680  0.2070
  138MOL    C5635950   1.136   1.919   0.898 -0.0118  0.1972  0.5796
  138MOL    C5735951   1.089   1.814   0.995  0.4719  0.5372 -0.3109
  138MOL    C5835952   1.260   1.889   0.825 -0.2200  0.7413 -0.9011
  138MOL    H5935953   1.184   2.156   0.752  0.6768 -1.5051 -0.8234
  138MOL    H6035954   1.028   2.117   0.689  0.6701 -3.4546  1.5223
  138MOL    H6135955   0.973   2.035   0.938 -0.0879  1.1939 -0.2889
  138MOL    H6235956   1.105   1.838   1.100  1.3796 -0.0731 -0.3031
  138MOL    H6335957   1.131   1.714   0.985  0.5144  0.5789 -0.5660
  138MOL    H6435958   0.982   1.795   0.989  0.4113  0.7637  0.0650
  138MOL    H6535959   1.255   1.923   0.721  3.1725  0.6145 -1.1541
  138MOL    H6635960   1.261   1.781   0.811 -1.8595  0.4792  0.7258
  138MOL    C6735961   1.378   1.920   0.917 -0.1723  0.5139  0.1616
  138MOL    C6835962   1.511   1.865   0.864  0.4265  0.1214  0.0466
  138MOL    C6935963   1.579   1.756   0.905 -0.1535  0.1505  0.5905
  138MOL    C7035964   1.706   1.704   0.833 -0.0238  0.3782 -0.1900
  138MOL    C7135965   1.535   1.663   1.018 -0.0087  0.0886  0.2164
  138MOL    H7235966   1.361   1.874   1.014  2.4702  0.3990  0.6036
  138MOL    H7335967   1.381   2.027   0.936 -0.3744  1.3640 -4.0117
  138MOL    H7435968   1.541   1.928   0.781  2.0429  0.8269  1.1304
  138MOL    H7535969   1.685   1.607   0.789 -0.8785  0.2662  0.4478
  138MOL    H7635970   1.781   1.698   0.911  2.0833 -0.5221 -2.2235
  138MOL    H7735971   1.743   1.778   0.762 -1.5848 -0.1328 -1.5881
  138MOL    H7835972   1.472   1.706   1.095  1.7597 -0.0091  1.7407
  138MOL    H7935973   1.622   1.644   1.080  0.2536  0.9585  0.1198
  138MOL    C8035974   1.489   1.521   0.975  0.0004  0.0651 -0.4971
  138MOL    C8135975   1.470   1.434   1.100  0.0256  0.5142  0.4546
  138MOL    C8235976   1.505   1.303   1.117 -0.7703 -0.0550  0.5019
  138MOL    C8335977   1.582   1.223   1.013 -0.1113  0.4059  0.0549
  138MOL    C8435978   1.469   1.222   1.245  0.6375 -0.8210  0.1656
  138MOL    H8535979   1.547   1.478   0.893 -0.6208 -0.0575 -0.8810
  138MOL    H8635980   1.393   1.541   0.927 -0.0184 -1.0731 -0.9569
  138MOL    H8735981   1.419   1.481   1.183 -1.6826 -1.1501  0.3951
  138MOL    H8835982   1.635   1.299   0.955 -0.0247  0.4442  0.1848
  138MOL    H8935983   1.519   1.160   0.950  0.5979 -0.0318 -0.2291
  138MOL    H9035984   1.645   1.144   1.053 -2.7873 -1.2475  1.1010
  138MOL    H9135985   1.409   1.138   1.211 -0.1172 -0.6472  1.0600
  138MOL    H9235986   1.403   1.269   1.318  1.6019  0.7694  0.0286
  138MOL    C9335987   1.590   1.164   1.315  0.0347  0.1088 -0.4404
  138MOL    C9435988   1.571   1.123   1.465 -0.3740 -0.0630  0.7835
  138MOL    C9535989   1.640   1.018   1.527  0.6334  0.4762  0.0742
  138MOL    C9635990   1.609   0.986   1.672 -0.1961  0.0963  0.7828
  138MOL    C9735991   1.752   0.933   1.463  0.0013 -0.2042  0.4175
  138MOL    H9835992   1.680   1.226   1.306  0.9048 -1.0697  0.0835
  138MOL    H9935993   1.615   1.069   1.268  2.2629  0.0291  0.8191
  138MOL   H10035994   1.497   1.177   1.523 -0.9893  0.0835 -0.1320
  138MOL   H10135995   1.698   0.996   1.733  1.7136  2.0935 -2.1641
  138MOL   H10235996   1.525   1.045   1.706 -0.8635 -0.0401 -0.6010
  138MOL   H10335997   1.574   0.883   1.664  0.4538 -0.2195  1.9401
  138MOL   H10435998   1.830   0.915   1.538 -0.5546 -1.3284  0.7410
  138MOL   H10535999   1.805   0.990   1.388  0.1440 -0.3935  0.3761
  138MOL   C10636000   1.694   0.803   1.399 -0.2693  0.7193 -0.2917
  138MOL   C10736001   1.805   0.714   1.355 -0.6739 -0.6539  0.8173
  138MOL   C10836002   1.785   0.591   1.302 -0.8989  0.4343 -0.5606
  138MOL   C10936003   1.644   0.536   1.302 -0.3027  0.1250 -0.2763
  138MOL   C11036004   1.893   0.494   1.243  0.4794  0.1816 -0.0882
  138MOL   H11136005   1.626   0.832   1.320  0.1125  1.4755 -0.3499
  138MOL   H11236006   1.640   0.743   1.472 -0.4568 -0.4251 -1.3544
  138MOL   H11336007   1.899   0.767   1.352 -1.5389  0.9551  1.2985
  138MOL   H11436008   1.643   0.431   1.276  1.0840  0.7243 -2.9251
  138MOL   H11536009   1.600   0.536   1.402  1.5630  1.3835  0.5824
  138MOL   H11636010   1.582   0.586   1.227 -0.6771  2.9035  1.7850
  138MOL   H11736011   1.959   0.556   1.182  0.9241 -1.1796 -1.0265
  138MOL   H11836012   1.846   0.421   1.177  0.1859  1.0297 -0.8417
  138MOL   C11936013   1.974   0.430   1.360  0.1440  0.2803 -0.1993
  138MOL   C12036014   2.072   0.326   1.299 -0.3330 -0.7846  0.2384
  138MOL   C12136015   2.195   0.349   1.254  0.5251 -0.4739 -0.1904
  138MOL   C12236016   2.281   0.240   1.195 -0.3299  0.4526 -0.0927
  138MOL   C12336017   2.252   0.487   1.249 -0.1080 -0.3237 -0.3432
  138MOL   H12436018   1.911   0.371   1.427  1.7053 -0.0261  1.0414
  138MOL   H12536019   2.043   0.496   1.412 -0.2828  0.8497 -0.3542
  138MOL   H12636020   2.035   0.226   1.285 -0.4549 -0.7032 -0.0210
  138MOL   H12736021   2.299   0.274   1.093  0.3288  0.8163  0.1404
  138MOL   H12836022   2.238   0.142   1.176  1.2904 -0.1568 -0.7095
  138MOL   H12936023   2.367   0.227   1.261 -1.6472 -0.6748  1.4417
  138MOL   H13036024   2.171   0.561   1.249 -0.5904 -0.8472 -0.2295
  138MOL   H13136025   2.321   0.499   1.165  0.9228 -0.0207  0.5414
  138MOL   C13236026   2.322   0.523   1.377  0.2495 -0.1660 -0.2446
  138MOL   C13336027   2.394   0.659   1.370 -0.0074  0.0645 -0.2092
  138MOL   C13436028   2.352   0.789   1.393 -0.5807  0.0684  1.0138
  138MOL   C13536029   2.439   0.908   1.369  0.0002 -0.8670 -0.3995
  138MOL   C13636030   2.214   0.810   1.456  0.2393  0.4873 -0.0436
  138MOL   H13736031   2.401   0.450   1.392  1.1925  0.8672 -0.1267
  138MOL   H13836032   2.255   0.527   1.464 -0.7593  0.6274 -1.0459
  138MOL   H13936033   2.497   0.650   1.337  0.0395 -2.5153  0.5414
  138MOL   H14036034   2.539   0.887   1.331  1.2754 -0.2185  2.4644
  138MOL   H14136035   2.473   0.957   1.460  1.4916 -1.0555 -0.8501
  138MOL   H14236036   2.400   0.980   1.296 -0.6226 -0.2015  0.5695
  138MOL   H14336037   2.149   0.723   1.449  0.1936  0.5038  0.1625
  138MOL   H14436038   2.165   0.889   1.399  0.9327  0.2772 -0.9401
  138MOL   C14536039   2.217   0.873   1.600  0.5594 -0.7868 -0.0037
  138MOL   C14636040   2.284   0.801   1.716  0.7969 -0.6700  0.1724
  138MOL   C14736041   2.308   0.860   1.828 -0.5775 -0.0395  0.0754
  138MOL   C14836042   2.380   0.786   1.946  0.1045 -0.5593 -0.4293
  138MOL   C14936043   2.288   1.007   1.858 -0.3211  0.8939  0.2044
  138MOL   H15036044   2.114   0.891   1.630  0.3784 -1.4953 -0.1790
  138MOL   H15136045   2.273   0.966   1.598  0.7577 -0.9053  0.0533
  138MOL   H15236046   2.318   0.700   1.704 -0.9060 -1.2165 -0.1770
  138MOL   H15336047   2.318   0.795   2.036 -0.8052  2.2485 -1.2783
  138MOL   H15436048   2.472   0.832   1.982 -1.3103  2.1336 -0.1196
  138MOL   H15536049   2.390   0.681   1.921 -1.4998 -0.4760 -1.4670
  138MOL   H15636050   2.267   1.016   1.964  0.8553  2.0230  0.3542
  138MOL   H15736051   2.204   1.038   1.797 -0.1552 -0.3099 -0.6759
  138MOL   C15836052   2.411   1.090   1.808  0.0647 -0.8426  0.1270
  138MOL   C15936053   2.404   1.241   1.845 -0.9147 -0.2978 -0.0676
  138MOL   C16036054   2.423   1.286   1.971  0.6965 -0.2303 -0.0565
  138MOL   C16136055   2.451   1.200   2.093 -0.2177 -0.2987 -0.2946
  138MOL   C16236056   2.415   1.433   2.003 -0.5209 -0.3547  0.4248
  138MOL   H16336057   2.414   1.094   1.699  0.7876  2.0119  0.2059
  138MOL   H16436058   2.506   1.048   1.841  0.7292  0.1581 -0.4524
  138MOL   H16536059   2.395   1.308   1.760  0.8129 -0.4618 -0.3958
  138MOL   H16636060   2.521   1.128   2.053 -1.6774  0.1877 -3.9393
  138MOL   H16736061   2.352   1.158   2.113  0.3881 -0.5081  2.4210
  138MOL   H16836062   2.484   1.262   2.177  1.0521 -0.0745 -0.9535
  138MOL   H16936063   2.402   1.489   1.910 -0.9851  3.3201  2.6054
  138MOL   H17036064   2.500   1.474   2.058 -0.9048  1.1879 -0.1067
  138MOL   C17136065   2.284   1.459   2.076 -0.1332 -0.5113  0.6142
  138MOL   C17236066   2.262   1.611   2.097 -0.1579 -0.2982 -0.1842
  138MOL   C17336067   2.175   1.693   2.030  0.3808  0.6632 -0.2949
  138MOL   C17436068   2.079   1.646   1.922 -1.0544  0.7394 -0.0099
  138MOL   C17536069   2.152   1.835   2.074  0.3370 -0.1187 -0.0932
  138MOL   H17636070   2.280   1.404   2.170 -0.8163  0.3048  1.0789
  138MOL   H17736071   2.202   1.427   2.011  1.3211 -0.0356 -1.4997
  138MOL   H17836072   2.329   1.659   2.166 -1.2737  1.0688 -0.0233
  138MOL   H17936073   2.104   1.551   1.874  0.6563  0.7406  0.8512
  138MOL   H18036074   2.085   1.709   1.833  1.8321  1.5092  0.6726
  138MOL   H18136075   1.976   1.634   1.954 -0.6786 -1.1664  0.5452
  138MOL   H18236076   2.184   1.894   1.988 -0.0831 -1.3616 -1.1276
  138MOL   H18336077   2.219   1.856   2.157 -0.6136  1.1662  0.3588
  138MOL   C18436078   2.009   1.866   2.114  0.3554  0.2389 -0.5759
  138MOL   C18536079   1.975   1.788   2.243 -0.0277  0.4242 -0.2066
  138MOL   C18636080   1.861   1.719   2.281  0.1784 -0.3244  0.0669
  138MOL   C18736081   1.867   1.632   2.406  0.0852 -0.2290  0.0373
  138MOL   C18836082   1.731   1.717   2.194 -0.8436  0.3156  0.2583
  138MOL   H18936083   1.931   1.852   2.039  0.2909  0.8874 -0.6320
  138MOL   H19036084   2.002   1.971   2.141  0.1222  0.0115  0.2704
  138MOL   H19136085   2.064   1.774   2.303 -0.0264  0.4848 -0.1943
  138MOL   H19236086   1.809   1.684   2.482 -0.1723 -2.1375  1.1699
  138MOL   H19336087   1.968   1.627   2.448  0.7427  0.5451 -1.3997
  138MOL   H19436088   1.843   1.528   2.383  0.5233 -0.3908  0.3060
  138MOL   H19536089   1.704   1.618   2.160 -0.8161 -0.0834  1.3782
  138MOL   H19636090   1.753   1.782   2.109  2.3406  1.3509  1.7616
  138MOL   C19736091   1.598   1.764   2.266  0.5009 -0.8389  0.7904
  138MOL   C19836092   1.487   1.779   2.171 -0.1441  1.0855 -0.3406
  138MOL   C19936093   1.379   1.701   2.163  0.1143 -0.0001  0.1442
  138MOL   C20036094   1.281   1.718   2.050 -0.0823  0.0126  0.0412
  138MOL   C20136095   1.353   1.576   2.252  0.3265  0.1181 -0.2310
  138MOL   H20236096   1.621   1.859   2.315  0.1540 -1.0406  1.3471
  138MOL   H20336097   1.590   1.687   2.342 -3.5335 -1.5619 -0.2595
  138MOL   H20436098   1.503   1.847   2.088  0.0652  0.3499 -0.9097
  138MOL   H20536099   1.236   1.623   2.020 -1.2177 -0.3492  2.7787
  138MOL   H20636100   1.329   1.756   1.960  1.3901 -0.2550  0.6846
  138MOL   H20736101   1.194   1.777   2.079 -0.6078 -0.0660 -1.3642
  138MOL   H20836102   1.434   1.551   2.319  1.6561 -0.6351 -2.0820
  138MOL   H20936103   1.347   1.497   2.177  1.5272  0.5860 -0.8292
  138MOL   C21036104   1.223   1.590   2.335 -0.4095  0.2084  0.0694
  138MOL   C21136105   1.205   1.464   2.412 -0.0098 -0.5697  0.1721
  138MOL   C21236106   1.234   1.438   2.541  0.0309 -0.3584  0.7369
  138MOL   C21336107   1.232   1.297   2.596  0.1693 -1.0902 -0.4595
  138MOL   C21436108   1.282   1.538   2.646 -0.2391 -0.2058 -0.0859
  138MOL   H21536109   1.139   1.589   2.266 -0.0546 -2.3826 -0.3724
  138MOL   H21636110   1.241   1.680   2.395 -1.2002  0.5151 -0.1550
  138MOL   H21736111   1.167   1.389   2.346  0.3344 -2.1905  1.7830
  138MOL   H21836112   1.326   1.260   2.637 -0.2384 -3.0040 -1.1771
  138MOL   H21936113   1.198   1.236   2.512 -0.7051 -0.4084 -0.6124
  138MOL   H22036114   1.154   1.291   2.671  1.6426 -0.9279  1.1039
  138MOL   H22136115   1.269   1.639   2.606  0.6801 -0.4806 -1.1191
  138MOL   H22236116   1.390   1.531   2.655 -0.1047  1.5229 -0.0715
  138MOL   C22336117   1.215   1.525   2.786 -0.0212  0.3271  0.3927
  138MOL   C22436118   1.229   1.658   2.855 -0.5024  0.0083 -0.4956
  138MOL   C22536119   1.303   1.679   2.968 -0.1455 -0.0081 -0.0543
  138MOL   C22636120   1.323   1.817   3.024  0.3099 -0.0496  0.3353
  138MOL   C22736121   1.352   1.562   3.061 -0.1526  0.7304  0.3661
  138MOL   H22836122   1.262   1.441   2.838 -0.4931  0.3732  0.9016
  138MOL   H22936123   1.112   1.504   2.757  0.4525 -0.3040 -0.8785
  138MOL   H23036124   1.182   1.737   2.800 -0.9458 -0.7216 -1.1611
  138MOL   H23136125   1.260   1.849   3.106 -0.9438 -1.0497 -0.2165
  138MOL   H23236126   1.311   1.899   2.954 -1.5014 -0.7016 -0.1535
  138MOL   H23336127   1.424   1.826   3.063  1.1054 -0.2477 -1.5827
  138MOL   H23436128   1.304   1.469   3.028 -1.5001  1.1240  1.1958
  138MOL   H23536129   1.312   1.576   3.161 -1.4167  1.0834 -0.1790
  138MOL   C23636130   1.508   1.542   3.065  0.0842 -0.3932  0.0136
  138MOL   C23736131   1.572   1.556   2.933  0.5167  0.5636 -0.6379
  138MOL   C23836132   1.602   1.459   2.842  0.0538 -0.1258 -0.0361
  138MOL   C23936133   1.661   1.489   2.705  0.2209  0.2039  0.3515
  138MOL   C24036134   1.560   1.310   2.863 -0.1184  0.0187 -0.2804
  138MOL   H24136135   1.534   1.451   3.118 -0.3554  0.7865  2.3419
  138MOL   H24236136   1.540   1.620   3.135 -2.6858  1.5919 -0.8105
  138MOL   H24336137   1.623   1.649   2.912  3.0229 -1.0396 -1.9204
  138MOL   H24436138   1.752   1.435   2.679 -0.5579 -1.8853  1.8208
  138MOL   H24536139   1.672   1.594   2.676 -0.8458 -0.4695 -2.6893
  138MOL   H24636140   1.586   1.447   2.638  1.5432 -2.1217  0.3030
  138MOL   H24736141   1.520   1.278   2.767 -0.8688  2.0749 -0.6859
  138MOL   H24836142   1.472   1.315   2.927 -0.2225  1.1530 -0.5067
  138MOL   C24936143   1.675   1.226   2.918 -0.0599  0.3957 -0.0018
  138MOL   C25036144   1.629   1.075   2.922 -0.3863  0.6273 -0.2348
  138MOL   C25136145   1.683   0.970   2.989  0.9848  1.0408 -0.0598
  138MOL   C25236146   1.633   0.823   2.979 -0.0616  0.1771  0.0545
  138MOL   C25336147   1.810   0.986   3.063 -0.1508 -0.5958  0.6319
  138MOL   H25436148   1.711   1.260   3.016  2.4812 -0.7366 -0.4926
  138MOL   H25536149   1.761   1.235   2.851  0.7067  2.4853  1.2072
  138MOL   H25636150   1.551   1.048   2.852 -0.8570  0.8710  0.1948
  138MOL   H25736151   1.542   0.808   2.921 -0.2003 -1.7870  0.7406
  138MOL   H25836152   1.622   0.771   3.074 -2.5369  0.8440  0.1657
  138MOL   H25936153   1.702   0.762   2.922  1.6404  1.0869  1.1048
  138MOL   H26036154   1.839   0.893   3.111 -0.8940 -1.0249  0.2671
  138MOL   H26136155   1.811   1.069   3.133 -0.5217  0.0656 -0.1348
  138MOL   H26236156   1.883   1.001   2.983  2.0243  0.2070  2.7375
  139MOL     C136157   6.239   0.031   1.350  0.7647  0.0050  0.4134
  139MOL     C236158   6.285   0.066   1.208 -0.6466  0.3419  0.0039
  139MOL     C336159   6.228   0.148   1.115 -0.0712  0.1565 -0.3133
  139MOL     C436160   6.287   0.160   0.974  0.0446  0.3960  0.3948
  139MOL     C536161   6.084   0.197   1.138  0.0261 -0.2837 -0.4515
  139MOL     H636162   6.216   0.125   1.401 -1.0901  0.1452 -0.6280
  139MOL     H736163   6.160   7.838   1.335  0.9968 -0.0851 -0.4227
  139MOL     H836164   6.387   0.034   1.188 -0.4867  0.3411  0.8158
  139MOL     H936165   6.213   0.197   0.902  0.7873 -0.3768 -0.7859
  139MOL    H1036166   6.314   0.058   0.947 -1.8109  0.3653 -1.5468
  139MOL    H1136167   6.380   0.217   0.969  1.5182 -2.0141 -0.7193
  139MOL    H1236168   6.041   0.160   1.231 -0.8553  1.2631 -0.2369
  139MOL    H1336169   6.007   0.150   1.077 -2.2573 -0.7732  2.6910
  139MOL    H1436170   6.311   7.852   1.407  0.9314 -0.0312  0.1701
  139MOL    C1536171   6.087   0.353   1.133 -0.5282  0.2842  0.4679
  139MOL    C1636172   5.973   0.401   1.209  0.5392 -0.8258  0.1076
  139MOL    C1736173   5.856   0.461   1.172 -0.1824  0.2239  1.0442
  139MOL    C1836174   5.768   0.517   1.280 -0.5471  0.6335  0.0127
  139MOL    C1936175   5.809   0.480   1.028 -0.1697 -0.4008  0.1378
  139MOL    H2036176   6.093   0.395   1.033  2.0263  0.3553  0.6152
  139MOL    H2136177   6.177   0.397   1.176  0.5955 -1.4835 -0.0278
  139MOL    H2236178   5.987   0.394   1.316 -2.7108  0.8699  0.7031
  139MOL    H2336179   5.793   0.510   1.386  0.0043  2.2621  0.0129
  139MOL    H2436180   5.668   0.474   1.281 -1.0731  1.7432  3.5675
  139MOL    H2536181   5.755   0.622   1.252 -1.3279  0.4001 -0.5126
  139MOL    H2636182   5.894   0.467   0.961  0.4541 -2.0374  1.2191
  139MOL    H2736183   5.772   0.583   1.029 -1.6047 -0.9016  0.4978
  139MOL    C2836184   5.686   0.393   1.006  0.1300 -0.2433  0.0335
  139MOL    C2936185   5.647   0.379   0.859  0.3072 -0.0685  0.3705
  139MOL    C3036186   5.533   0.412   0.795  0.1704  0.1037 -0.2691
  139MOL    C3136187   5.524   0.414   0.643 -0.0435  0.5889  0.2740
  139MOL    C3236188   5.409   0.461   0.867 -0.3776  0.2564  0.0360
  139MOL    H3336189   5.604   0.435   1.064 -0.1762  0.6559 -1.0327
  139MOL    H3436190   5.715   0.293   1.038 -4.0826 -1.3624  0.7152
  139MOL    H3536191   5.726   0.355   0.789 -0.0016  3.7738 -1.4417
  139MOL    H3636192   5.626   0.401   0.605  0.4562  0.9799  1.4440
  139MOL    H3736193   5.473   0.501   0.602 -0.2238  0.5096  0.3317
  139MOL    H3836194   5.469   0.332   0.598  1.0965  0.2756 -0.5921
  139MOL    H3936195   5.403   0.404   0.960 -2.0904  1.0390  0.4249
  139MOL    H4036196   5.323   0.419   0.816 -0.7367 -1.1123  1.7271
  139MOL    C4136197   5.401   0.618   0.885 -0.0093  0.8355 -0.5299
  139MOL    C4236198   5.282   0.661   0.968 -0.2501 -1.0378 -0.4769
  139MOL    C4336199   5.207   0.766   0.942  0.4575 -0.5298 -0.1944
  139MOL    C4436200   5.090   0.814   1.033 -0.3363  0.3591  0.3932
  139MOL    C4536201   5.229   0.854   0.818  0.4584 -0.3580 -0.5937
  139MOL    H4636202   5.412   0.662   0.786  0.9592  2.1037  0.1190
  139MOL    H4736203   5.498   0.644   0.929 -0.6957  2.2713  0.1705
  139MOL    H4836204   5.261   0.604   1.058  1.9143 -2.2064 -0.6617
  139MOL    H4936205   5.070   0.738   1.108 -1.2492  1.8291  1.6859
  139MOL    H5036206   4.998   0.835   0.979  1.1519  0.4013 -2.2095
  139MOL    H5136207   5.121   0.907   1.082 -3.0526  0.5567  1.8398
  139MOL    H5236208   5.336   0.852   0.799  0.9617  1.1077  1.8469
  139MOL    H5336209   5.207   0.958   0.843  0.3072 -0.9855  1.9755
  139MOL    C5436210   5.160   0.799   0.700  0.2346  0.2056  0.4615
  139MOL    C5536211   5.178   0.885   0.577 -0.2905  0.8741  0.4444
  139MOL    C5636212   5.116   0.879   0.458  0.7078 -0.0012 -0.1650
  139MOL    C5736213   5.138   0.986   0.346 -0.4307  0.2402  0.0161
  139MOL    C5836214   5.022   0.762   0.421 -0.1373  0.1409 -0.1917
  139MOL    H5936215   5.053   0.806   0.720  0.6728 -1.3929  3.5700
  139MOL    H6036216   5.199   0.702   0.670 -0.1900  0.2116 -0.1280
  139MOL    H6136217   5.236   0.975   0.593  2.3051 -0.3387 -1.6043
  139MOL    H6236218   5.050   1.048   0.328  0.3049  1.3237  0.0998
  139MOL    H6336219   5.159   0.950   0.245 -1.1305  0.5074 -0.2258
  139MOL    H6436220   5.221   1.053   0.372 -1.4412  1.5837 -0.1633
  139MOL    H6536221   5.041   0.686   0.497 -3.7194 -1.7815 -1.0768
  139MOL    H6636222   5.052   0.712   0.329  1.0135  1.1042 -0.3517
  139MOL    C6736223   4.875   0.812   0.413 -0.1452 -0.3418 -0.4627
  139MOL    C6836224   4.781   0.711   0.345  0.0677  0.6785 -0.4476
  139MOL    C6936225   4.653   0.729   0.308 -0.1997  0.3089  0.0222
  139MOL    C7036226   4.571   0.625   0.233  0.1056  0.1043 -0.0320
  139MOL    C7136227   4.582   0.861   0.332  0.2054  0.1013 -0.0027
  139MOL    H7236228   4.865   0.908   0.363 -1.0244  0.0237  0.3951
  139MOL    H7336229   4.839   0.843   0.511 -1.3444 -0.2857 -0.9082
  139MOL    H7436230   4.834   0.620   0.322  0.6368  1.0194 -0.4935
  139MOL    H7536231   4.473   0.611   0.279 -0.4077 -0.9817 -1.4076
  139MOL    H7636232   4.621   0.528   0.232  1.0463  0.5888 -2.2332
  139MOL    H7736233   4.547   0.662   0.133  0.2688  2.0224  0.6266
  139MOL    H7836234   4.633   0.921   0.407 -0.6282  2.0567 -0.9700
  139MOL    H7936235   4.481   0.850   0.371 -0.8377  0.4921 -2.4772
  139MOL    C8036236   4.560   0.939   0.197  0.2840 -0.0073 -0.2593
  139MOL    C8136237   4.492   1.067   0.228  0.2268 -0.0565  0.1362
  139MOL    C8236238   4.478   1.165   0.134  0.2762  0.0808 -0.6095
  139MOL    C8336239   4.548   1.163   7.871  0.3192  0.3639  0.0544
  139MOL    C8436240   4.386   1.281   0.171 -0.0539 -0.5574 -0.6304
  139MOL    H8536241   4.483   0.880   0.148 -2.0972  1.0163  2.1606
  139MOL    H8636242   4.650   0.950   0.137 -0.9042  0.8645 -1.9171
  139MOL    H8736243   4.431   1.075   0.317  1.3020  0.3845  0.8461
  139MOL    H8836244   4.515   1.244   7.806  2.6107  2.7641  1.7714
  139MOL    H8936245   4.541   1.070   7.815 -0.6750  1.3262 -1.4722
  139MOL    H9036246   4.647   1.206   0.005  1.5164 -1.9775 -1.0382
  139MOL    H9136247   4.324   1.262   0.258  0.2153  2.2331  0.2186
  139MOL    H9236248   4.321   1.307   0.086  0.6729  0.7314 -0.8112
  139MOL    C9336249   4.455   1.410   0.185 -0.0806 -0.2861  0.0009
  139MOL    C9436250   4.365   1.528   0.221 -0.4667  0.0352 -0.9500
  139MOL    C9536251   4.412   1.639   0.286  0.0854 -0.7800 -0.1976
  139MOL    C9636252   4.311   1.748   0.337 -0.1653 -1.0508 -0.2649
  139MOL    C9736253   4.561   1.665   0.307  0.4653 -0.1532  0.2217
  139MOL    H9836254   4.496   1.431   0.086 -3.5830 -1.1727 -1.7033
  139MOL    H9936255   4.534   1.399   0.260  1.6120 -1.4862 -1.9038
  139MOL   H10036256   4.259   1.512   0.209 -0.3384 -2.5503  0.9216
  139MOL   H10136257   4.211   1.725   0.300 -0.9767  2.0953 -0.2126
  139MOL   H10236258   4.302   1.743   0.445  0.6520  0.5918 -0.0970
  139MOL   H10336259   4.335   1.848   0.299 -1.6102 -0.3159  0.7136
  139MOL   H10436260   4.578   1.763   0.262 -1.2860  0.3423  0.6275
  139MOL   H10536261   4.619   1.583   0.265  0.3711 -0.3829  0.5452
  139MOL   C10636262   4.606   1.686   0.456  0.3511  0.5817  0.5832
  139MOL   C10736263   4.756   1.709   0.459  0.3886  0.4094  0.1262
  139MOL   C10836264   4.825   1.743   0.574  0.0669  0.0081 -0.4713
  139MOL   C10936265   4.754   1.741   0.713  0.3527 -0.1403  0.5894
  139MOL   C11036266   4.977   1.747   0.583  0.8438 -0.4729 -0.3353
  139MOL   H11136267   4.590   1.589   0.503  0.3058  0.9045  1.2281
  139MOL   H11236268   4.553   1.769   0.503  1.4041  1.4346  0.2695
  139MOL   H11336269   4.811   1.699   0.367 -0.1822  2.9620 -0.5521
  139MOL   H11436270   4.805   1.809   0.781  1.2462 -0.0097 -0.1859
  139MOL   H11536271   4.649   1.767   0.706  0.5590  0.0630 -2.4726
  139MOL   H11636272   4.759   1.640   0.752  2.2894 -0.3790 -0.1975
  139MOL   H11736273   5.011   1.850   0.596  0.5306 -0.0193 -2.8053
  139MOL   H11836274   5.004   1.708   0.484  0.1275 -0.2781 -0.6085
  139MOL   C11936275   5.041   1.644   0.685 -0.5832 -0.2779 -0.4198
  139MOL   C12036276   5.059   1.506   0.631  0.2578 -0.2291 -0.1925
  139MOL   C12136277   5.067   1.390   0.699  0.3502  0.2951 -0.9145
  139MOL   C12236278   5.094   1.257   0.630 -0.4566 -0.1274  0.5176
  139MOL   C12336279   5.058   1.385   0.853 -0.1699 -0.1269 -0.6537
  139MOL   H12436280   4.996   1.642   0.784  0.4844 -0.0202  0.0759
  139MOL   H12536281   5.141   1.678   0.713 -0.9063 -0.5750  1.1107
  139MOL   H12636282   5.054   1.501   0.524 -2.8025 -1.9577 -0.0326
  139MOL   H12736283   5.062   1.269   0.526  5.6330  0.8545 -1.4289
  139MOL   H12836284   5.035   1.174   0.669  0.3177 -1.7407 -1.6378
  139MOL   H12936285   5.192   1.212   0.643  0.9982  2.6900 -0.2859
  139MOL   H13036286   5.004   1.293   0.873 -0.4967  0.4166  1.0248
  139MOL   H13136287   5.002   1.467   0.899  0.7874  0.2096 -0.0709
  139MOL   C13236288   5.191   1.370   0.920 -0.0942 -0.8946 -0.1521
  139MOL   C13336289   5.182   1.359   1.070  0.4720  0.0398 -0.8132
  139MOL   C13436290   5.242   1.268   1.152 -0.1506  0.6713  0.3183
  139MOL   C13536291   5.231   1.274   1.310 -0.2970 -0.3058  0.2306
  139MOL   C13636292   5.331   1.156   1.093 -0.2181  0.0980 -0.3168
  139MOL   H13736293   5.251   1.460   0.903  0.5428 -1.1479  0.7008
  139MOL   H13836294   5.246   1.295   0.863  2.2419  0.7789 -0.1977
  139MOL   H13936295   5.116   1.437   1.106 -2.2010 -2.1066 -0.9110
  139MOL   H14036296   5.146   1.336   1.339 -0.4184 -1.0857  1.6188
  139MOL   H14136297   5.326   1.311   1.347  0.9576 -2.5216 -0.6550
  139MOL   H14236298   5.200   1.177   1.351  0.8999 -1.0095 -0.5145
  139MOL   H14336299   5.300   1.126   0.993  0.1141 -3.0927  0.4731
  139MOL   H14436300   5.308   1.077   1.165 -0.7964  1.2920  0.8277
  139MOL   C14536301   5.473   1.185   1.103 -0.3766  0.5660 -0.1381
  139MOL   C14636302   5.555   1.069   1.053 -0.3444  0.2069  0.0021
  139MOL   C14736303   5.599   0.969   1.127  0.0290  0.9040 -0.4710
  139MOL   C14836304   5.665   0.853   1.069 -0.7186  0.0209  0.6485
  139MOL   C14936305   5.567   0.953   1.285 -0.0155  0.7434  1.1534
  139MOL   H15036306   5.514   1.223   1.197  2.4670  0.8981 -1.4537
  139MOL   H15136307   5.492   1.267   1.034  3.1595 -0.9867 -1.0971
  139MOL   H15236308   5.587   1.071   0.949 -1.5442  1.2318 -0.3636
  139MOL   H15336309   5.603   0.764   1.065  0.1510 -0.5020 -1.9394
  139MOL   H15436310   5.746   0.829   1.138  1.9228  4.2256 -0.8005
  139MOL   H15536311   5.696   0.873   0.966 -0.8428 -2.6161  0.0780
  139MOL   H15636312   5.523   1.047   1.320  0.5222  1.3261  0.2849
  139MOL   H15736313   5.654   0.938   1.348  0.0787 -2.0601  0.3970
  139MOL   C15836314   5.465   0.843   1.325 -0.1471  0.5491  0.2428
  139MOL   C15936315   5.417   0.853   1.469 -0.4434  0.0065 -0.0144
  139MOL   C16036316   5.289   0.875   1.506 -0.0635 -0.5721 -0.5778
  139MOL   C16136317   5.173   0.891   1.411  0.1581  0.1081  0.0012
  139MOL   C16236318   5.250   0.877   1.653  0.0038 -0.4887 -0.6728
  139MOL   H16336319   5.514   0.748   1.305 -1.6233 -0.1786  0.0863
  139MOL   H16436320   5.382   0.844   1.255  1.4339  2.6606 -1.7065
  139MOL   H16536321   5.495   0.843   1.543 -0.4260  1.9338  0.2502
  139MOL   H16636322   5.208   0.934   1.317  2.0393  0.6450  0.9253
  139MOL   H16736323   5.085   0.942   1.450  0.8969  0.9610  0.5785
  139MOL   H16836324   5.130   0.792   1.394 -0.1719  0.4554 -1.2344
  139MOL   H16936325   5.169   0.949   1.654  0.6071  0.1943  0.8783
  139MOL   H17036326   5.334   0.914   1.712 -0.2363 -0.3715 -0.4083
  139MOL   C17136327   5.220   0.744   1.717  0.1826  0.4450  0.5577
  139MOL   C17236328   5.172   0.770   1.855 -0.4376  0.0952 -0.2631
  139MOL   C17336329   5.040   0.791   1.898 -0.0110  0.0913 -0.4180
  139MOL   C17436330   4.937   0.820   1.792  0.4904  0.0166  0.1537
  139MOL   C17536331   4.996   0.824   2.040  0.6074 -0.2207 -0.3473
  139MOL   H17636332   5.296   0.666   1.728  0.2876  0.6416  1.2936
  139MOL   H17736333   5.137   0.693   1.669  1.2971 -1.4439  0.5543
  139MOL   H17836334   5.238   0.773   1.941 -1.6459 -2.3474  0.7657
  139MOL   H17936335   4.839   0.785   1.824  0.3605  0.6671  0.4816
  139MOL   H18036336   4.951   0.769   1.697  1.6446 -2.6242  1.6700
  139MOL   H18136337   4.919   0.927   1.789 -1.6967 -0.3599 -0.7846
  139MOL   H18236338   5.080   0.798   2.105  2.4335  0.3786 -2.3810
  139MOL   H18336339   4.912   0.763   2.073  0.8380  1.3205  3.2975
  139MOL   C18436340   4.957   0.972   2.063  1.0087  0.3059  0.1213
  139MOL   C18536341   5.072   1.076   2.048  0.7779 -0.9178 -0.3341
  139MOL   C18636342   5.073   1.183   1.971 -0.4526 -0.2814  0.4038
  139MOL   C18736343   5.195   1.279   1.975 -0.0352  0.1528  0.0443
  139MOL   C18836344   4.965   1.228   1.881 -0.6165  0.0780 -0.6202
  139MOL   H18936345   4.912   0.979   2.162 -0.3187  1.9049 -0.5487
  139MOL   H19036346   4.876   0.995   1.993  0.6370 -1.4391 -0.0292
  139MOL   H19136347   5.166   1.051   2.095  0.2871 -2.9293 -0.4069
  139MOL   H19236348   5.177   1.361   2.044  0.9282 -0.4715  1.0474
  139MOL   H19336349   5.230   1.317   1.879  0.7231  1.0215  0.6566
  139MOL   H19436350   5.281   1.234   2.026  0.3828  1.2079  0.2710
  139MOL   H19536351   4.899   1.142   1.864  1.4517 -2.0465  1.6297
  139MOL   H19636352   5.013   1.267   1.792  0.5582  3.5347  1.4642
  139MOL   C19736353   4.885   1.342   1.945  0.3413 -0.1229  0.1058
  139MOL   C19836354   4.775   1.377   1.842 -0.2540 -1.0976  0.6678
  139MOL   C19936355   4.746   1.492   1.775  0.2417 -0.3264 -0.4673
  139MOL   C20036356   4.612   1.510   1.704 -0.0676  0.6802  0.6147
  139MOL   C20136357   4.833   1.618   1.774 -0.3535 -0.0803 -0.0062
  139MOL   H20236358   4.953   1.426   1.960  1.6990 -1.7913  3.8187
  139MOL   H20336359   4.849   1.314   2.044  1.6895  0.5921  0.8130
  139MOL   H20436360   4.701   1.300   1.824 -0.2907 -0.2727 -3.0835
  139MOL   H20536361   4.638   1.533   1.600  4.0767  2.3794  1.8951
  139MOL   H20636362   4.553   1.593   1.744  1.6743  1.0957  2.4482
  139MOL   H20736363   4.558   1.416   1.702  1.4508 -0.2118 -2.1946
  139MOL   H20836364   4.895   1.632   1.862  0.9109 -0.8033 -0.7524
  139MOL   H20936365   4.766   1.703   1.766  0.3703  0.6171  1.3144
  139MOL   C21036366   4.909   1.615   1.640  0.9080 -0.6329 -0.2120
  139MOL   C21136367   4.995   1.741   1.634 -0.2598 -0.3259  0.2261
  139MOL   C21236368   5.126   1.741   1.650  0.6452 -0.4398  0.4163
  139MOL   C21336369   5.205   1.872   1.632 -0.1603  0.1626  0.2820
  139MOL   C21436370   5.210   1.626   1.698 -1.0392  0.7711 -0.1102
  139MOL   H21536371   4.833   1.627   1.563  1.5205 -0.2334 -0.7570
  139MOL   H21636372   4.962   1.521   1.625 -0.7208 -1.4097 -1.2175
  139MOL   H21736373   4.936   1.827   1.605 -0.8596 -0.1277  1.9719
  139MOL   H21836374   5.284   1.869   1.556  0.6173 -0.3947  1.0929
  139MOL   H21936375   5.248   1.913   1.723 -0.5104  2.7913 -0.7203
  139MOL   H22036376   5.128   1.944   1.605 -0.1319 -0.9380 -2.9458
  139MOL   H22136377   5.162   1.550   1.759  1.2106 -2.7655 -2.5790
  139MOL   H22236378   5.286   1.665   1.767 -1.2890 -0.0517  0.6324
  139MOL   C22336379   5.289   1.557   1.579  0.0070 -0.2412  0.2047
  139MOL   C22436380   5.323   1.417   1.628 -0.0305 -0.3483 -0.7172
  139MOL   C22536381   5.444   1.357   1.623  0.4681 -0.3994  0.6015
  139MOL   C22636382   5.463   1.215   1.656 -0.2818  0.1417  0.8800
  139MOL   C22736383   5.579   1.423   1.583 -0.3833 -0.2050 -0.5611
  139MOL   H22836384   5.368   1.621   1.539 -1.3677  1.3405 -0.0373
  139MOL   H22936385   5.215   1.553   1.499 -0.1731  1.6927  0.2480
  139MOL   H23036386   5.240   1.353   1.654  0.0731 -0.5750 -0.9293
  139MOL   H23136387   5.535   1.207   1.737  0.9127 -0.6514 -0.2544
  139MOL   H23236388   5.493   1.167   1.563 -2.5742 -2.3213  1.3581
  139MOL   H23336389   5.366   1.170   1.678 -0.4260 -1.6911 -3.0110
  139MOL   H23436390   5.664   1.387   1.640 -1.5340 -1.9026  0.1234
  139MOL   H23536391   5.570   1.527   1.615  1.5973 -0.5644  1.2821
  139MOL   C23636392   5.599   1.416   1.427 -0.2110  0.1844 -0.5968
  139MOL   C23736393   5.743   1.447   1.396 -0.1352  0.7039 -0.3718
  139MOL   C23836394   5.845   1.358   1.375  0.3869 -0.2193 -0.4919
  139MOL   C23936395   5.989   1.405   1.340 -0.7669  0.1337 -0.1249
  139MOL   C24036396   5.823   1.205   1.392 -0.3166  0.2874 -0.1847
  139MOL   H24136397   5.536   1.489   1.376  0.1487  0.9956  0.0986
  139MOL   H24236398   5.571   1.319   1.387 -0.2332  0.0184 -0.1856
  139MOL   H24336399   5.763   1.553   1.383 -1.6992  1.3298  1.8726
  139MOL   H24436400   6.071   1.369   1.401 -0.7038 -0.0804 -0.3368
  139MOL   H24536401   5.984   1.514   1.339 -2.2720  0.0737 -2.2493
  139MOL   H24636402   6.009   1.381   1.236  0.1269 -0.5995  0.2145
  139MOL   H24736403   5.868   1.163   1.302  1.1899 -0.7748  1.0369
  139MOL   H24836404   5.723   1.164   1.403 -0.1510 -0.2030 -0.4657
  139MOL   C24936405   5.901   1.151   1.510 -0.6786  0.3441 -0.1474
  139MOL   C25036406   5.934   1.003   1.473  0.3621  0.1395 -0.2070
  139MOL   C25136407   5.876   0.897   1.528 -0.1967  0.2199 -0.4073
  139MOL   C25236408   5.909   0.755   1.486  0.5276  0.1973  0.0374
  139MOL   C25336409   5.779   0.908   1.642 -0.4706 -0.4652 -0.4290
  139MOL   H25436410   5.854   1.148   1.608  0.6420 -2.1731  0.4648
  139MOL   H25536411   6.000   1.194   1.528  0.4383 -1.9510 -0.5736
  139MOL   H25636412   6.007   0.969   1.401  0.0650 -2.0559  0.4897
  139MOL   H25736413   5.817   0.699   1.471 -0.0898  0.7665  1.5619
  139MOL   H25836414   5.980   0.709   1.555  0.6084  0.5717  0.2049
  139MOL   H25936415   5.957   0.754   1.389  1.4563 -1.5573  0.4903
  139MOL   H26036416   5.713   0.821   1.634 -0.5452 -0.2393 -2.7481
  139MOL   H26136417   5.710   0.992   1.632 -1.0362 -1.0639 -1.7465
  139MOL   H26236418   5.825   0.902   1.740 -0.8871  1.1083 -0.1194
  140MOL     C136419   1.441   2.114   6.615  0.2291 -0.4600  0.1347
  140MOL     C236420   1.484   1.975   6.606 -0.5976 -0.1478  0.5343
  140MOL     C336421   1.515   1.887   6.702 -0.7438 -0.2761 -0.3150
  140MOL     C436422   1.549   1.746   6.652 -0.7214 -0.4177 -0.8353
  140MOL     C536423   1.512   1.911   6.852 -0.4928 -0.0046 -0.3183
  140MOL     H636424   1.518   2.184   6.580  2.5095 -2.6367  0.6322
  140MOL     H736425   1.347   2.125   6.561 -1.2038  1.5225  2.9534
  140MOL     H836426   1.479   1.934   6.506  1.5429  0.7302  0.0502
  140MOL     H936427   1.547   1.733   6.544 -0.2807  1.0964 -1.0372
  140MOL    H1036428   1.489   1.668   6.700  0.8876 -0.9851  0.2841
  140MOL    H1136429   1.651   1.716   6.673 -0.3094  1.6249  0.2987
  140MOL    H1236430   1.475   1.819   6.898  2.2034 -2.5062 -2.8699
  140MOL    H1336431   1.436   1.978   6.892 -0.7946 -0.2524 -0.4755
  140MOL    H1436432   1.420   2.135   6.719  0.1939 -0.9703  0.2318
  140MOL    C1536433   1.657   1.932   6.906  0.4703  0.5834 -0.0650
  140MOL    C1636434   1.663   1.941   7.055  0.3004 -0.5292  0.1730
  140MOL    C1736435   1.713   2.041   7.136 -0.3628 -0.2935  0.2830
  140MOL    C1836436   1.711   2.033   7.290  0.0808 -0.4208  0.7495
  140MOL    C1936437   1.756   2.177   7.082  0.6228  0.7464 -0.3687
  140MOL    H2036438   1.692   2.022   6.856  1.0998 -0.0794 -0.8220
  140MOL    H2136439   1.715   1.844   6.880 -0.6577  0.0177 -0.7164
  140MOL    H2236440   1.623   1.852   7.103  1.3925 -1.1110  0.0168
  140MOL    H2336441   1.686   1.930   7.314 -1.5935 -0.2506 -0.1572
  140MOL    H2436442   1.638   2.109   7.318  1.2726  1.2742 -0.6228
  140MOL    H2536443   1.806   2.058   7.336  0.7265  2.9729 -2.1372
  140MOL    H2636444   1.806   2.162   6.986 -0.3292  2.0837 -1.0844
  140MOL    H2736445   1.821   2.215   7.161  2.0247 -2.3006  0.0259
  140MOL    C2836446   1.630   2.261   7.059  0.1191  1.0955  0.1706
  140MOL    C2936447   1.662   2.409   7.067 -0.2386 -0.4552  0.3066
  140MOL    C3036448   1.625   2.501   6.973 -0.3473 -0.2711  0.1726
  140MOL    C3136449   1.660   2.649   6.988 -0.2803 -0.2284 -0.3304
  140MOL    C3236450   1.560   2.459   6.837 -0.4820 -0.1876  0.3981
  140MOL    H3336451   1.562   2.240   7.142  0.0480  1.8750  0.3086
  140MOL    H3436452   1.571   2.216   6.979  0.1937  0.4515  0.4736
  140MOL    H3536453   1.696   2.436   7.166  1.1885 -0.0543 -0.2803
  140MOL    H3636454   1.720   2.654   7.078 -0.8240 -0.2192  0.0378
  140MOL    H3736455   1.569   2.704   7.011  1.2122  1.7349  0.9952
  140MOL    H3836456   1.718   2.691   6.906  2.0649 -0.9743  0.9254
  140MOL    H3936457   1.540   2.354   6.820 -0.7711  0.0759 -0.9247
  140MOL    H4036458   1.638   2.473   6.762  0.3676 -0.2210  1.2588
  140MOL    C4136459   1.436   2.551   6.794 -0.1191 -0.2295 -0.4662
  140MOL    C4236460   1.343   2.473   6.702 -0.3552  0.8289 -0.8160
  140MOL    C4336461   1.209   2.496   6.689 -0.8039  0.1464 -0.1553
  140MOL    C4436462   1.132   2.408   6.593  0.5894 -0.1999  0.2256
  140MOL    C4536463   1.129   2.602   6.761 -1.0032 -0.4886  0.0767
  140MOL    H4636464   1.470   2.634   6.732  1.1031 -0.4698 -0.1273
  140MOL    H4736465   1.396   2.596   6.885 -0.7004  0.2577 -0.9609
  140MOL    H4836466   1.395   2.394   6.650 -1.4647  1.1551 -2.4720
  140MOL    H4936467   1.048   2.357   6.639 -0.3769  1.0519 -0.1113
  140MOL    H5036468   1.196   2.331   6.551  2.7493  0.7208  1.7415
  140MOL    H5136469   1.101   2.466   6.506  0.0027 -0.4820  0.2484
  140MOL    H5236470   1.091   2.664   6.679 -2.1561  2.6001  2.8322
  140MOL    H5336471   1.188   2.675   6.816  0.9675 -2.4567  0.6306
  140MOL    C5436472   1.000   2.562   6.838  0.2461 -0.2242  0.9454
  140MOL    C5536473   0.918   2.674   6.903 -0.8994 -0.3853 -0.1029
  140MOL    C5636474   0.791   2.712   6.877  0.5004  0.0055 -0.0845
  140MOL    C5736475   0.743   2.841   6.937 -0.4554 -0.1536 -0.1687
  140MOL    C5836476   0.706   2.648   6.778 -0.0674 -0.4286 -0.1550
  140MOL    H5936477   1.030   2.498   6.921  2.3427 -1.4475 -0.6970
  140MOL    H6036478   0.932   2.500   6.779 -1.0896  1.5528  0.5841
  140MOL    H6136479   0.982   2.741   6.959 -1.8023  1.3008 -1.0461
  140MOL    H6236480   0.805   2.854   7.025 -1.3578 -0.5521  0.5349
  140MOL    H6336481   0.635   2.843   6.956 -0.5596  1.2544 -0.8144
  140MOL    H6436482   0.760   2.914   6.858  1.7256 -0.4684 -0.0088
  140MOL    H6536483   0.606   2.641   6.819  0.2228  0.1965  0.6575
  140MOL    H6636484   0.740   2.547   6.755  2.3471  0.5021 -0.8113
  140MOL    C6736485   0.691   2.711   6.643 -0.4777 -0.0860 -0.4319
  140MOL    C6836486   0.824   2.698   6.564  0.2546 -0.7474  0.2236
  140MOL    C6936487   0.900   2.798   6.513 -0.2685 -0.0410  0.1482
  140MOL    C7036488   1.015   2.775   6.419 -0.0612 -0.0822 -0.0697
  140MOL    C7136489   0.862   2.943   6.544  0.2152 -0.2156 -0.4224
  140MOL    H7236490   0.655   2.813   6.656 -1.1929 -0.4645  0.5471
  140MOL    H7336491   0.625   2.652   6.580 -2.0289 -1.5680  2.4907
  140MOL    H7436492   0.854   2.598   6.537  1.3341 -0.7503  1.3608
  140MOL    H7536493   1.037   2.669   6.402  2.7803  0.6315 -1.0762
  140MOL    H7636494   1.101   2.819   6.469 -0.3908 -0.5987  0.9700
  140MOL    H7736495   0.991   2.822   6.324 -1.6911 -2.4187 -0.8586
  140MOL    H7836496   0.757   2.955   6.573  0.5608 -0.7199  1.0833
  140MOL    H7936497   0.868   3.011   6.459  3.3019  0.8798  0.6297
  140MOL    C8036498   0.948   3.011   6.655  0.3863  0.8008 -0.0814
  140MOL    C8136499   0.897   3.140   6.716  0.2307 -0.0920  0.5734
  140MOL    C8236500   0.948   3.259   6.701  0.2804 -0.1823 -0.7465
  140MOL    C8336501   1.067   3.297   6.622 -0.6632 -1.1794  0.6700
  140MOL    C8436502   0.883   3.379   6.763 -0.1714 -0.7467 -0.3914
  140MOL    H8536503   1.045   3.014   6.607  0.3198 -1.5453 -0.4278
  140MOL    H8636504   0.940   2.947   6.744 -0.5680  0.8401 -0.1245
  140MOL    H8736505   0.819   3.124   6.789  0.6097 -0.9904  0.7921
  140MOL    H8836506   1.053   3.384   6.557  2.4932 -1.3202 -0.2681
  140MOL    H8936507   1.087   3.210   6.559 -0.8318 -0.3317 -0.5779
  140MOL    H9036508   1.153   3.315   6.686 -0.7449  1.9811 -0.0236
  140MOL    H9136509   0.788   3.358   6.811 -1.0458  2.0335 -0.8019
  140MOL    H9236510   0.858   3.447   6.682 -1.9966  1.4141  1.8706
  140MOL    C9336511   0.962   3.448   6.870  0.3881 -0.1607 -0.2591
  140MOL    C9436512   0.900   3.573   6.923  0.7320  0.0432 -0.1048
  140MOL    C9536513   0.929   3.697   6.909 -0.4033 -0.0370 -0.1155
  140MOL    C9636514   0.849   3.804   6.982 -0.7589 -0.7726  0.7407
  140MOL    C9736515   1.044   3.745   6.832 -0.4602 -0.0266 -0.2270
  140MOL    H9836516   1.053   3.475   6.817 -0.6184 -0.7671 -2.3833
  140MOL    H9936517   0.987   3.379   6.950  0.7643 -0.1664 -0.3814
  140MOL   H10036518   0.815   3.557   6.988 -1.0944  0.0685 -2.4037
  140MOL   H10136519   0.800   3.759   7.068 -1.8862 -0.7383  0.1250
  140MOL   H10236520   0.904   3.890   7.020 -1.2314 -0.3778  0.5326
  140MOL   H10336521   0.773   3.848   6.918 -1.0119 -0.8234  1.0059
  140MOL   H10436522   1.127   3.677   6.815  1.0370  1.9459 -0.9109
  140MOL   H10536523   1.088   3.826   6.890 -0.8513 -1.0540  1.5674
  140MOL   C10636524   0.996   3.805   6.691 -0.4903 -0.4235 -0.4424
  140MOL   C10736525   1.108   3.885   6.622 -0.2452  0.3779  0.0572
  140MOL   C10836526   1.152   3.870   6.496 -0.3207  0.3375  0.4883
  140MOL   C10936527   1.092   3.760   6.413 -0.1309 -0.0289  0.2247
  140MOL   C11036528   1.264   3.951   6.433  0.1842  0.7346  0.3586
  140MOL   H11136529   0.909   3.868   6.706  1.3936  1.6818  2.0805
  140MOL   H11236530   0.967   3.731   6.616  1.3654 -0.8350 -0.7810
  140MOL   H11336531   1.149   3.962   6.685  0.2673  0.1188  0.0362
  140MOL   H11436532   0.984   3.744   6.406 -0.0634 -0.5093  0.2520
  140MOL   H11536533   1.097   3.805   6.314  1.7090 -0.1044  0.2780
  140MOL   H11636534   1.149   3.668   6.399  0.2383  0.0553  1.1611
  140MOL   H11736535   1.285   4.033   6.503  1.1046  0.5475  0.3018
  140MOL   H11836536   1.218   3.995   6.344  1.1971  3.1541  0.9787
  140MOL   C11936537   1.400   3.869   6.406 -0.0495  0.5705  0.3773
  140MOL   C12036538   1.477   3.924   6.285 -0.0554 -0.0962  0.4730
  140MOL   C12136539   1.599   3.895   6.239 -0.0616 -0.3925  0.3629
  140MOL   C12236540   1.662   3.969   6.121  0.0729  0.0461 -0.4949
  140MOL   C12336541   1.679   3.788   6.310 -0.6854  0.5543  0.1675
  140MOL   H12436542   1.373   3.769   6.371 -1.1978  1.3746 -1.0823
  140MOL   H12536543   1.472   3.863   6.488  0.9834  0.8691 -0.5023
  140MOL   H12636544   1.421   3.995   6.225  1.8009 -0.3565 -1.6445
  140MOL   H12736545   1.589   4.040   6.084  1.5459  0.7041 -2.2031
  140MOL   H12836546   1.688   3.896   6.044  0.3559 -0.2585 -0.1122
  140MOL   H12936547   1.754   4.022   6.147 -1.3850  1.2832  2.3016
  140MOL   H13036548   1.688   3.808   6.417  2.2382 -0.6321  0.1974
  140MOL   H13136549   1.781   3.794   6.272 -0.6001  2.2517  0.6257
  140MOL   C13236550   1.626   3.648   6.284  0.1700  0.4057 -0.5679
  140MOL   C13336551   1.690   3.547   6.374  0.1586  0.1029 -0.1762
  140MOL   C13436552   1.659   3.420   6.405 -0.4816  0.1254  0.0172
  140MOL   C13536553   1.741   3.322   6.488 -0.6087 -0.7902  0.3178
  140MOL   C13636554   1.539   3.351   6.334 -0.8194 -0.0049  0.6533
  140MOL   H13736555   1.646   3.631   6.178 -1.8549  0.2261 -0.9586
  140MOL   H13836556   1.517   3.642   6.290  0.1855  0.9441  0.2550
  140MOL   H13936557   1.782   3.585   6.414 -1.1104  4.1904 -0.9802
  140MOL   H14036558   1.827   3.370   6.534  1.7551 -3.7356 -0.8927
  140MOL   H14136559   1.782   3.239   6.431 -1.5911 -1.5740  0.7373
  140MOL   H14236560   1.690   3.277   6.573 -0.7256  2.1338  1.8757
  140MOL   H14336561   1.591   3.270   6.283  0.9735  0.1495  2.1633
  140MOL   H14436562   1.511   3.418   6.253 -0.9352 -0.6426  0.1620
  140MOL   C14536563   1.415   3.312   6.422 -0.1573  0.3070  0.0206
  140MOL   C14636564   1.329   3.205   6.355  0.0139  1.2761 -0.0103
  140MOL   C14736565   1.224   3.226   6.279  0.6539 -0.1354  0.5729
  140MOL   C14836566   1.144   3.108   6.234 -0.3741 -0.2369 -0.4403
  140MOL   C14936567   1.156   3.369   6.257  1.0353  0.3749 -0.1718
  140MOL   H15036568   1.362   3.407   6.432 -0.7327  0.0374 -0.4289
  140MOL   H15136569   1.443   3.282   6.522 -0.1934  1.3130  0.3361
  140MOL   H15236570   1.370   3.107   6.372 -2.8775  0.2079  0.9323
  140MOL   H15336571   1.063   3.095   6.306 -0.6289  0.1583 -0.6569
  140MOL   H15436572   1.205   3.017   6.230 -0.9175 -0.5809 -1.1997
  140MOL   H15536573   1.089   3.137   6.145 -0.4140 -0.3187 -0.4421
  140MOL   H15636574   1.184   3.435   6.339  0.4727 -0.0621  0.3832
  140MOL   H15736575   1.051   3.342   6.273  1.0070  0.1776 -0.6701
  140MOL   C15836576   1.178   3.438   6.125 -0.2535  0.5136 -0.9153
  140MOL   C15936577   1.106   3.575   6.105 -0.6825 -0.9348  0.2588
  140MOL   C16036578   1.162   3.693   6.063 -0.4267 -0.3707  0.3296
  140MOL   C16136579   1.311   3.699   6.046 -0.0936  0.0652 -0.2931
  140MOL   C16236580   1.085   3.825   6.053  0.6457 -0.0206  0.1019
  140MOL   H16336581   1.151   3.369   6.045 -0.5497  0.7278 -1.0000
  140MOL   H16436582   1.285   3.460   6.119  0.4914 -1.6292  3.0006
  140MOL   H16536583   1.001   3.571   6.129 -1.3470 -0.3479 -2.3300
  140MOL   H16636584   1.349   3.717   6.146 -2.7392  1.4072  0.5303
  140MOL   H16736585   1.336   3.783   5.981 -2.3913  1.0786  0.0827
  140MOL   H16836586   1.356   3.612   5.999  1.6629  0.4190  0.6934
  140MOL   H16936587   1.142   3.897   6.111 -1.7226  0.8921  1.3894
  140MOL   H17036588   0.992   3.809   6.108  0.7183  0.9531  0.5027
  140MOL   C17136589   1.062   3.890   5.916  0.7658 -0.8638  0.3463
  140MOL   C17236590   0.975   3.808   5.827  0.4673 -0.0100 -0.2087
  140MOL   C17336591   0.852   3.836   5.776  0.8386  0.4129  0.3075
  140MOL   C17436592   0.789   3.969   5.811  0.7551 -0.5543 -0.0816
  140MOL   C17536593   0.782   3.741   5.676  0.0094  0.8278  0.6947
  140MOL   H17636594   1.154   3.914   5.863 -0.3051  2.3460 -0.1866
  140MOL   H17736595   1.019   3.988   5.935  0.0091 -1.2327  0.5486
  140MOL   H17836596   1.014   3.716   5.786 -0.3384  0.1350 -1.3289
  140MOL   H17936597   0.841   4.049   5.757  0.0692 -0.3193 -0.3959
  140MOL   H18036598   0.775   3.981   5.919 -0.4677  0.8086 -0.3782
  140MOL   H18136599   0.690   3.978   5.768  0.6944 -0.0631  0.1585
  140MOL   H18236600   0.852   3.657   5.674  1.9439  2.4347 -1.7468
  140MOL   H18336601   0.788   3.785   5.577  3.3831 -0.1896  0.3577
  140MOL   C18436602   0.634   3.709   5.711  0.0867  0.6093  0.1300
  140MOL   C18536603   0.573   3.598   5.621 -0.3580  0.2075 -0.5607
  140MOL   C18636604   0.476   3.607   5.530 -0.0078  0.5062 -0.5897
  140MOL   C18736605   0.437   3.488   5.447 -0.3395  0.3275  1.1043
  140MOL   C18836606   0.402   3.738   5.489  0.3999 -0.3196  0.1370
  140MOL   H18936607   0.579   3.803   5.702  0.9794  0.9626 -2.0313
  140MOL   H19036608   0.624   3.682   5.815  0.3915 -1.8175 -0.4442
  140MOL   H19136609   0.627   3.504   5.625 -0.0977  0.4102  1.1976
  140MOL   H19236610   0.462   3.504   5.342  1.4817  2.0002  1.7666
  140MOL   H19336611   0.330   3.474   5.460 -0.3891 -0.1917  0.1902
  140MOL   H19436612   0.496   3.402   5.481  2.0034  1.2575 -0.4305
  140MOL   H19536613   0.416   3.824   5.554  0.7371 -1.3710  1.4670
  140MOL   H19636614   0.298   3.703   5.488 -0.0065  0.8589 -0.4759
  140MOL   C19736615   0.439   3.783   5.347 -0.2236  0.4740 -0.0375
  140MOL   C19836616   0.381   3.923   5.321 -0.0783  0.1648  0.4620
  140MOL   C19936617   0.284   3.954   5.230  0.3806 -0.2712  0.1985
  140MOL   C20036618   0.257   4.098   5.176 -0.1162 -0.2958 -0.1466
  140MOL   C20136619   0.216   3.845   5.145 -0.3071 -1.3078  0.9895
  140MOL   H20236620   0.406   3.708   5.275 -0.2393  0.5678 -0.1268
  140MOL   H20336621   0.548   3.792   5.346 -0.2874  1.3528  0.5851
  140MOL   H20436622   0.434   4.002   5.372 -1.3914  2.4925 -1.6998
  140MOL   H20536623   0.314   4.177   5.226  0.1980 -0.8105  0.3202
  140MOL   H20636624   0.156   4.122   5.208  0.2954  0.8263  0.3436
  140MOL   H20736625   0.266   4.113   5.069 -0.3781  1.6307  0.0868
  140MOL   H20836626   0.134   3.891   5.090  1.2991 -0.6378 -0.9143
  140MOL   H20936627   0.170   3.773   5.213 -2.9306  0.4214  1.1487
  140MOL   C21036628   0.307   3.790   5.033  0.0991  0.2186  0.1795
  140MOL   C21136629   0.298   3.865   4.902  0.6387 -0.0262 -0.5401
  140MOL   C21236630   0.252   3.820   4.784 -0.2398 -0.0198  0.1003
  140MOL   C21336631   0.278   3.898   4.659 -0.3810 -0.1038 -0.1203
  140MOL   C21436632   0.175   3.692   4.758 -0.1971  0.8444  0.1120
  140MOL   H21536633   0.293   3.684   5.015 -0.5764  0.6615 -2.0195
  140MOL   H21636634   0.411   3.801   5.063  0.0897 -0.3747  0.4314
  140MOL   H21736635   0.354   3.958   4.906 -1.2613  1.3395 -3.7003
  140MOL   H21836636   0.323   3.996   4.671 -0.5543 -0.2691  1.9068
  140MOL   H21936637   0.180   3.915   4.614  0.8908  1.5350 -2.3714
  140MOL   H22036638   0.342   3.839   4.593  1.6608  2.1368 -0.1948
  140MOL   H22136639   0.197   3.619   4.836  1.6274  0.7005 -0.5145
  140MOL   H22236640   0.217   3.650   4.666 -1.6924  0.7815 -0.5659
  140MOL   C22336641   0.028   3.725   4.729  0.0783  0.2692  0.6218
  140MOL   C22436642   7.821   3.599   4.740 -0.0220  0.0101 -0.4001
  140MOL   C22536643   7.779   3.545   4.852 -0.0268  0.6447  0.6462
  140MOL   C22636644   7.684   3.428   4.850 -0.7894 -0.2415  0.6683
  140MOL   C22736645   7.802   3.601   4.991 -0.8195  0.0344 -0.2939
  140MOL   H22836646   0.026   3.757   4.625 -1.0220 -1.3903  0.1079
  140MOL   H22936647   7.868   3.795   4.803  1.4486 -0.2760  1.8970
  140MOL   H23036648   7.784   3.561   4.645 -0.6064  2.2037 -1.0780
  140MOL   H23136649   7.602   3.461   4.914  2.2314  1.0238  4.0794
  140MOL   H23236650   7.731   3.343   4.900 -0.5524 -0.7587 -0.4233
  140MOL   H23336651   7.650   3.411   4.748  1.8583 -0.4105 -0.2266
  140MOL   H23436652   0.020   3.651   4.997 -0.2816 -1.0693  0.2008
  140MOL   H23536653   7.809   3.518   5.061 -0.0748 -1.1915 -1.8048
  140MOL   C23636654   7.684   3.691   5.030 -0.2362 -0.0185 -0.6950
  140MOL   C23736655   7.717   3.785   5.144  0.0196 -0.0039 -0.0107
  140MOL   C23836656   7.711   3.763   5.274  0.0340 -0.1625 -0.7945
  140MOL   C23936657   7.748   3.871   5.373  0.7287 -0.3127 -0.5156
  140MOL   C24036658   7.678   3.634   5.337  0.6488 -0.0041 -0.1157
  140MOL   H24136659   7.603   3.623   5.058  0.7687 -1.0240 -0.1596
  140MOL   H24236660   7.653   3.747   4.942 -1.6397 -1.3767 -1.0807
  140MOL   H24336661   7.754   3.882   5.113  0.3007 -0.2982 -0.6112
  140MOL   H24436662   7.855   3.858   5.394  0.3133 -0.9785  1.3171
  140MOL   H24536663   7.704   3.857   5.472  0.7196 -2.0937 -0.7588
  140MOL   H24636664   7.726   3.967   5.327  0.1111 -0.0189  0.3807
  140MOL   H24736665   7.655   3.564   5.256  1.2328 -2.9250  2.1380
  140MOL   H24836666   7.595   3.627   5.407 -0.8030 -0.8608 -1.8838
  140MOL   C24936667   7.805   3.580   5.408  0.5017 -0.3756 -0.4140
  140MOL   C25036668   7.790   3.439   5.446 -0.1419 -0.0591  0.0481
  140MOL   C25136669   7.837   3.332   5.383 -0.2576 -0.4799 -0.1239
  140MOL   C25236670   7.794   3.192   5.423 -0.1223 -0.7162  0.7117
  140MOL   C25336671   0.047   3.336   5.260  0.7138  0.0452 -0.4104
  140MOL   H25436672   7.837   3.634   5.497  0.7777 -0.4011 -0.4959
  140MOL   H25536673   0.018   3.599   5.352  3.3977 -0.0354  4.1809
  140MOL   H25636674   7.723   3.430   5.530  0.0873 -1.6946  0.0681
  140MOL   H25736675   0.008   3.141   5.448 -0.5758 -1.3953  1.0246
  140MOL   H25836676   7.746   3.146   5.336 -2.7389  1.6717  0.8150
  140MOL   H25936677   7.724   3.201   5.506 -1.5636 -0.0175 -0.5408
  140MOL   H26036678   7.871   3.311   5.169  2.0934 -2.9195 -0.4691
  140MOL   H26136679   0.121   3.256   5.256  0.9877  0.2184  1.1693
  140MOL   H26236680   0.092   3.433   5.237 -0.2503 -0.1191 -3.2571
  141MOL     C136681   6.726   6.852   5.895  0.2181  0.3279 -1.2412
  141MOL     C236682   6.724   7.006   5.885  0.2479  0.6602 -0.0060
  141MOL     C336683   6.727   7.098   5.984 -0.5855 -0.7128 -0.1763
  141MOL     C436684   6.751   7.247   5.960  0.6277  0.7342  0.4128
  141MOL     C536685   6.705   7.046   6.126  0.0869  0.3006 -0.1646
  141MOL     H636686   6.822   6.821   5.936  1.3564  2.1170 -2.5136
  141MOL     H736687   6.653   6.798   5.956  1.1296  0.1528 -0.2784
  141MOL     H836688   6.741   7.039   5.784 -0.2488 -1.3425 -0.7578
  141MOL     H936689   6.735   7.271   5.855 -1.8961  1.4833  0.9398
  141MOL    H1036690   6.858   7.260   5.977  1.0440 -0.5302 -1.0348
  141MOL    H1136691   6.688   7.314   6.017  1.5974 -0.3788  2.8590
  141MOL    H1236692   6.749   7.127   6.185  0.0822 -1.1388  1.8784
  141MOL    H1336693   6.751   6.948   6.135 -0.7048 -0.1578 -1.0174
  141MOL    H1436694   6.714   6.810   5.795 -2.6561 -0.1852 -0.7122
  141MOL    C1536695   6.556   7.037   6.155  0.3098 -0.1591 -0.1977
  141MOL    C1636696   6.525   7.009   6.302 -0.2506  0.2086 -0.1846
  141MOL    C1736697   6.484   7.095   6.393 -0.0598  0.0391  0.6145
  141MOL    C1836698   6.450   7.037   6.534 -0.1500 -0.3324  0.4665
  141MOL    C1936699   6.481   7.246   6.368  0.4017 -0.3269 -0.1387
  141MOL    H2036700   6.518   6.950   6.103 -0.8815 -0.2440  0.7784
  141MOL    H2136701   6.500   7.124   6.121  0.5377  0.5229  1.1021
  141MOL    H2236702   6.521   6.904   6.330 -1.6876  0.1252 -0.6557
  141MOL    H2336703   6.341   7.041   6.547 -0.6343 -1.0414 -2.9717
  141MOL    H2436704   6.503   7.089   6.614  0.5860 -2.2804  1.2689
  141MOL    H2536705   6.465   6.930   6.544 -0.1837 -0.7412 -3.2185
  141MOL    H2636706   6.540   7.273   6.281 -0.9177 -0.9949 -1.2566
  141MOL    H2736707   6.533   7.291   6.453  0.1455 -0.4207  0.0679
  141MOL    C2836708   6.338   7.306   6.352 -0.1156  0.1546 -0.7971
  141MOL    C2936709   6.280   7.250   6.222  0.2697 -0.5117 -0.0938
  141MOL    C3036710   6.224   7.315   6.115 -0.1618  0.0465 -0.1816
  141MOL    C3136711   6.155   7.241   6.001 -0.8697  0.5715 -0.3528
  141MOL    C3236712   6.232   7.459   6.100  0.4769 -0.4439  0.5692
  141MOL    H3336713   6.352   7.414   6.351  0.5239  0.1107  1.2541
  141MOL    H3436714   6.274   7.274   6.434  0.3405  0.3785 -0.3542
  141MOL    H3536715   6.270   7.143   6.221 -2.7139 -0.2650 -2.6431
  141MOL    H3636716   6.234   7.240   5.926 -0.5042 -2.0340  0.0142
  141MOL    H3736717   6.081   7.306   5.954 -1.2774  0.7092  0.4728
  141MOL    H3836718   6.111   7.143   6.021 -0.9265  0.8355  0.8237
  141MOL    H3936719   6.271   7.485   6.002 -1.5875 -1.1423 -0.4766
  141MOL    H4036720   6.316   7.502   6.154  0.2665  0.7207 -0.0045
  141MOL    C4136721   6.099   7.521   6.145  0.1929  0.1206 -0.8408
  141MOL    C4236722   6.115   7.672   6.175 -0.1055 -0.1556  0.4982
  141MOL    C4336723   6.014   7.758   6.177  1.1607 -0.2406 -0.5970
  141MOL    C4436724   6.034   0.017   6.225  0.2915  0.2450 -0.2273
  141MOL    C4536725   5.867   7.723   6.150  0.5308  0.1317  0.3388
  141MOL    H4636726   6.062   7.477   6.237 -1.7368  2.4429 -0.4331
  141MOL    H4736727   6.022   7.498   6.071 -0.4683  1.4835 -0.6025
  141MOL    H4836728   6.212   7.715   6.195 -0.3666 -0.2718  2.0911
  141MOL    H4936729   6.066   0.086   6.147  0.3147 -0.3921 -0.7877
  141MOL    H5036730   6.108   0.006   6.304  0.1105 -0.2655 -0.1296
  141MOL    H5136731   5.947   0.057   6.276  0.9963  1.0301  0.3807
  141MOL    H5236732   5.853   7.663   6.060 -2.1571  1.4515 -0.1977
  141MOL    H5336733   5.817   7.815   6.118  0.4495 -0.0846 -0.1510
  141MOL    C5436734   5.794   7.656   6.261  0.0003  0.0292 -0.4139
  141MOL    C5536735   5.776   7.745   6.376 -0.0089 -0.0509  0.2442
  141MOL    C5636736   5.806   7.716   6.507  0.1570  0.2826 -0.0971
  141MOL    C5736737   5.789   7.816   6.615 -0.2192  0.1257  0.0491
  141MOL    C5836738   5.839   7.579   6.546  0.7022 -0.2235 -0.3298
  141MOL    H5936739   5.851   7.568   6.293 -0.5821  0.2506  1.2737
  141MOL    H6036740   5.699   7.621   6.219 -0.8623  1.5792  0.1911
  141MOL    H6136741   5.745   7.847   6.359 -2.4130 -0.6404  1.0221
  141MOL    H6236742   5.879   7.811   6.677 -0.0384  0.0330 -0.2202
  141MOL    H6336743   5.705   7.801   6.683 -1.8217  1.2900 -1.6255
  141MOL    H6436744   5.785   0.038   6.574 -0.7225  0.8498  1.8198
  141MOL    H6536745   5.774   7.511   6.491 -0.1329 -0.4900  0.9715
  141MOL    H6636746   5.799   7.553   6.644  0.4181 -1.6090 -0.7954
  141MOL    C6736747   5.988   7.555   6.545  0.1777  0.4547  0.2588
  141MOL    C6836748   6.024   7.415   6.605  0.2790  0.2807  0.1050
  141MOL    C6936749   6.130   7.384   6.680 -0.0217  0.0262  0.0425
  141MOL    C7036750   6.151   7.239   6.726 -0.6717  0.2501  0.3222
  141MOL    C7136751   6.245   7.481   6.713 -0.3773 -0.2404 -0.0017
  141MOL    H7236752   6.049   7.633   6.590  0.7646  1.3755 -2.0350
  141MOL    H7336753   6.022   7.539   6.442 -0.9494  0.2255 -0.0888
  141MOL    H7436754   5.960   7.334   6.575  0.6994 -0.2417  0.6033
  141MOL    H7536755   6.064   7.179   6.699 -0.7042 -0.8768  2.7414
  141MOL    H7636756   6.169   7.232   6.833 -1.2487 -0.9289  0.3441
  141MOL    H7736757   6.238   7.198   6.675 -0.0692  1.9847 -0.0947
  141MOL    H7836758   6.250   7.573   6.655  0.7547 -0.7197 -0.6815
  141MOL    H7936759   6.332   7.419   6.691  0.9851  1.9046 -0.8650
  141MOL    C8036760   6.239   7.523   6.861 -0.3560  0.5146  0.3555
  141MOL    C8136761   6.154   7.646   6.890  0.4711 -0.3783  0.3249
  141MOL    C8236762   6.045   7.644   6.966  1.2127  0.1669 -0.1531
  141MOL    C8336763   5.979   7.516   7.019 -0.0499  0.2706 -0.6455
  141MOL    C8436764   5.954   7.766   6.997  0.0486 -0.3624 -0.4820
  141MOL    H8536765   6.341   7.530   6.898 -0.5010  0.4235  0.7772
  141MOL    H8636766   6.199   7.436   6.913  2.1963 -0.7068  0.3327
  141MOL    H8736767   6.187   7.736   6.841 -1.4498  1.4251  2.2235
  141MOL    H8836768   6.057   7.472   7.081 -0.9439 -1.4997 -0.7549
  141MOL    H8936769   5.949   7.446   6.940  0.6912 -0.6454 -0.1272
  141MOL    H9036770   5.884   7.529   7.069  0.1853  1.9970 -0.6288
  141MOL    H9136771   5.934   7.779   7.103 -2.0319 -0.0134 -0.9049
  141MOL    H9236772   5.856   7.755   6.952 -0.5485  0.9707  0.4549
  141MOL    C9336773   6.007   0.030   6.957 -0.0676 -0.0842  0.3962
  141MOL    C9436774   5.905   0.140   6.933 -0.4774  0.6452  0.0266
  141MOL    C9536775   5.917   0.269   6.961  0.1906 -0.0062 -0.1338
  141MOL    C9636776   5.805   0.370   6.928 -0.0747  0.3726  0.1255
  141MOL    C9736777   6.035   0.332   7.034  0.3435 -0.2872 -0.0316
  141MOL    H9836778   6.056   0.014   6.861  1.2731 -1.3019  1.2615
  141MOL    H9936779   6.084   0.060   7.028 -0.6872  3.2409 -0.2597
  141MOL   H10036780   5.815   0.108   6.883 -0.8736  1.2192  0.3710
  141MOL   H10136781   5.836   0.442   6.852 -0.3829 -0.6319 -0.9614
  141MOL   H10236782   5.719   0.318   6.887 -0.0668 -0.1197  0.7168
  141MOL   H10336783   5.775   0.427   7.016 -2.1832  0.2871 -0.5290
  141MOL   H10436784   6.072   0.420   6.980 -0.6586  0.3570  0.3220
  141MOL   H10536785   6.118   0.262   7.024 -1.2713 -2.0464 -1.6391
  141MOL   C10636786   6.015   0.352   7.186 -0.5603  0.4917 -0.3209
  141MOL   C10736787   6.146   0.398   7.247 -0.0010 -0.2652  0.6915
  141MOL   C10836788   6.182   0.403   7.375 -0.7390  0.1156  0.2272
  141MOL   C10936789   6.104   0.337   7.481 -0.0408  0.5558  0.3101
  141MOL   C11036790   6.311   0.468   7.417  0.1037  0.0664 -0.4426
  141MOL   H11136791   5.992   0.256   7.233 -0.9123 -0.2149 -1.8912
  141MOL   H11236792   5.936   0.422   7.213  0.3145  1.8851 -1.3114
  141MOL   H11336793   6.201   0.462   7.180 -0.2842 -1.2050 -0.4387
  141MOL   H11436794   6.145   0.236   7.480  0.6520  0.8287 -2.7376
  141MOL   H11536795   6.109   0.385   7.579  0.1258  1.3251 -0.0788
  141MOL   H11636796   6.000   0.339   7.450 -0.4509 -0.3360  1.5884
  141MOL   H11736797   6.286   0.549   7.486 -0.3542 -0.7649  0.3698
  141MOL   H11836798   6.348   0.509   7.323  0.9926 -1.6095 -0.8525
  141MOL   C11936799   6.416   0.370   7.484 -0.1741  1.1849 -0.6972
  141MOL   C12036800   6.540   0.448   7.516  0.1173  0.2537  0.2110
  141MOL   C12136801   6.649   0.456   7.434 -0.4834 -0.1328 -0.8103
  141MOL   C12236802   6.767   0.550   7.462 -0.1288 -0.3750 -0.4893
  141MOL   C12336803   6.656   0.386   7.301  0.4720  0.0945 -0.0408
  141MOL   H12436804   6.435   0.276   7.432  0.1676 -0.2562  1.9529
  141MOL   H12536805   6.382   0.353   7.586  0.5260  0.0015 -0.6539
  141MOL   H12636806   6.540   0.501   7.611  0.6760  0.4254  0.1143
  141MOL   H12736807   6.864   0.503   7.453 -0.3216 -0.6732 -1.0526
  141MOL   H12836808   6.755   0.588   7.564 -2.7989 -0.8140 -0.5999
  141MOL   H12936809   6.775   0.633   7.392  0.5688 -0.5541 -0.6230
  141MOL   H13036810   6.581   0.308   7.296 -0.4376  1.0323 -1.4755
  141MOL   H13136811   6.752   0.335   7.287 -0.1910 -1.1947  0.0972
  141MOL   C13236812   6.628   0.484   7.179 -0.4093  0.9202  0.0824
  141MOL   C13336813   6.660   0.416   7.046  0.2523 -0.0740  0.0304
  141MOL   C13436814   6.580   0.325   6.987  0.9899  1.4032 -0.2174
  141MOL   C13536815   6.630   0.252   6.864  0.1246 -0.1834 -0.0667
  141MOL   C13636816   6.444   0.274   7.043 -0.1645  0.1208  0.1146
  141MOL   H13736817   6.694   0.571   7.182 -1.1039  1.4055  2.1237
  141MOL   H13836818   6.524   0.516   7.189 -0.6426 -0.0516  0.8935
  141MOL   H13936819   6.759   0.433   7.009  0.2389 -0.5207 -0.2214
  141MOL   H14036820   6.550   0.232   6.793  0.0529 -0.7042  0.1583
  141MOL   H14136821   6.678   0.159   6.895 -1.2132 -1.3470 -1.4286
  141MOL   H14236822   6.701   0.313   6.810  0.9843  0.3829  1.6632
  141MOL   H14336823   6.373   0.289   6.963  0.6706  0.6832 -0.5318
  141MOL   H14436824   6.413   0.333   7.130  2.5307  1.1642  0.4196
  141MOL   C14536825   6.450   0.131   7.104  0.0336  0.4412  0.2675
  141MOL   C14636826   6.333   0.088   7.192  0.0438  0.5173  0.3545
  141MOL   C14736827   6.290   7.844   7.222 -0.4150 -0.0331 -0.1906
  141MOL   C14836828   6.165   7.830   7.311 -0.6236 -0.4082  0.0753
  141MOL   C14936829   6.355   7.716   7.174  0.0316 -0.0518  0.5128
  141MOL   H15036830   6.536   0.122   7.171 -1.1741  1.5138  2.0249
  141MOL   H15136831   6.459   0.060   7.022  0.7266  2.9587 -1.9285
  141MOL   H15236832   6.279   0.173   7.232 -0.6475 -0.4439  1.4537
  141MOL   H15336833   6.196   7.794   7.409  1.0542  1.0040  0.0816
  141MOL   H15436834   6.096   7.753   7.276 -2.6507  1.0007  0.8845
  141MOL   H15536835   6.113   0.046   7.327  0.2939  0.0203  0.5572
  141MOL   H15636836   6.417   7.731   7.086 -1.8171  0.1676 -0.7844
  141MOL   H15736837   6.277   7.643   7.151 -0.8481  0.8674  0.5429
  141MOL   C15836838   6.451   7.654   7.274 -0.3119 -0.0051  0.1533
  141MOL   C15936839   6.483   7.515   7.228  0.3717  0.4004  0.3671
  141MOL   C16036840   6.409   7.406   7.258  0.1955 -0.0917  0.2021
  141MOL   C16136841   6.281   7.410   7.345  0.4817  0.3284 -0.3039
  141MOL   C16236842   6.449   7.258   7.213  0.1570  0.5482 -0.3018
  141MOL   H16336843   6.404   7.656   7.372  1.4207  1.4208  0.9849
  141MOL   H16436844   6.549   7.702   7.282 -0.8427  1.2222 -0.6064
  141MOL   H16536845   6.571   7.514   7.164 -1.1416  1.7194 -1.8281
  141MOL   H16636846   6.259   7.508   7.388  1.6005 -0.2681  1.6991
  141MOL   H16736847   6.282   7.340   7.429  0.4747  2.6124  1.6662
  141MOL   H16836848   6.196   7.386   7.282 -0.0722 -1.4790  1.0789
  141MOL   H16936849   6.357   7.211   7.179  1.7813 -0.6432 -3.1894
  141MOL   H17036850   6.491   7.230   7.310  1.9327  0.9571 -0.9360
  141MOL   C17136851   6.560   7.230   7.109 -0.0159  0.0506 -0.4420
  141MOL   C17236852   6.633   7.103   7.137  0.1170  0.2587 -0.8818
  141MOL   C17336853   6.648   6.992   7.064  0.1538 -0.0950  0.1459
  141MOL   C17436854   6.595   6.977   6.923  0.0263  0.6421  0.0351
  141MOL   C17536855   6.717   6.872   7.124 -0.3936  0.5976  0.4262
  141MOL   H17636856   6.632   7.310   7.128 -2.4028  1.9652  0.9504
  141MOL   H17736857   6.516   7.246   7.011  1.7818  0.8528 -1.1334
  141MOL   H17836858   6.674   7.098   7.237 -2.6032  0.3852  0.2859
  141MOL   H17936859   6.506   6.914   6.920 -0.2770  1.0763 -0.2314
  141MOL   H18036860   6.662   6.930   6.852 -0.2873 -2.1149  1.4975
  141MOL   H18136861   6.564   7.074   6.884  1.3138  0.8146 -0.5550
  141MOL   H18236862   6.656   6.783   7.107 -1.0985  1.3144 -0.9514
  141MOL   H18336863   6.731   6.893   7.230 -2.9280 -0.3675  0.9980
  141MOL   C18436864   6.851   6.841   7.051  0.3857  0.0676 -0.4492
  141MOL   C18536865   6.947   6.760   7.143  0.1240 -0.2566  0.9321
  141MOL   C18636866   7.065   6.798   7.192  0.7750 -0.8545  0.2569
  141MOL   C18736867   7.143   6.704   7.278 -0.0716 -0.0574  0.2202
  141MOL   C18836868   7.116   6.939   7.183 -0.6676  0.1214  0.5029
  141MOL   H18936869   6.899   6.935   7.024  0.0113  0.6095  0.7799
  141MOL   H19036870   6.821   6.791   6.959  1.4199  0.0306 -0.7739
  141MOL   H19136871   6.901   6.665   7.169  0.5181 -0.8167 -0.3613
  141MOL   H19236872   7.176   6.753   7.370 -0.1531  0.3907  0.0139
  141MOL   H19336873   7.225   6.670   7.216  0.5320  0.5877  0.6525
  141MOL   H19436874   7.085   6.614   7.300  1.5422 -1.6530 -1.9035
  141MOL   H19536875   7.172   6.972   7.270  1.0234  0.6584 -0.7558
  141MOL   H19636876   7.041   7.018   7.174  0.4079  1.3182  1.6727
  141MOL   C19736877   7.202   6.960   7.055 -0.2998 -0.5672  0.6133
  141MOL   C19836878   7.265   7.100   7.050 -0.3145  0.2275  0.4688
  141MOL   C19936879   7.214   7.200   6.976 -0.6627 -0.1538 -0.1559
  141MOL   C20036880   7.285   7.338   6.984  0.0047  0.5849  0.2315
  141MOL   C20136881   7.090   7.193   6.893 -0.1980 -0.9077  0.3719
  141MOL   H20236882   7.140   6.936   6.969  0.8572  0.5980 -0.5710
  141MOL   H20336883   7.286   6.891   7.052 -1.4237 -1.9709  0.8487
  141MOL   H20436884   7.348   7.111   7.119  0.3385  0.0197 -0.2748
  141MOL   H20536885   7.232   7.405   7.051  0.8591  1.1132  0.3772
  141MOL   H20636886   7.293   7.386   6.886 -0.4886 -0.9553 -0.5868
  141MOL   H20736887   7.388   7.331   7.018  0.8048  1.4526 -1.8964
  141MOL   H20836888   7.026   7.281   6.904  0.6542 -0.4296  1.5628
  141MOL   H20936889   7.024   7.116   6.934 -1.1190  0.3506  1.2892
  141MOL   C21036890   7.119   7.178   6.739  0.5994  0.2835  0.3615
  141MOL   C21136891   6.999   7.120   6.667 -0.6244  0.5942 -0.0511
  141MOL   C21236892   6.916   7.181   6.581  0.2930 -0.4881 -0.1379
  141MOL   C21336893   6.795   7.107   6.527  0.0006 -0.1589  0.7121
  141MOL   C21436894   6.921   7.330   6.533 -0.5045  0.3945 -0.3932
  141MOL   H21536895   7.207   7.120   6.713  0.0271 -0.9626  1.1362
  141MOL   H21636896   7.147   7.276   6.700  0.3770 -0.1193 -0.8291
  141MOL   H21736897   6.970   7.021   6.698 -0.4686  0.0086 -1.7555
  141MOL   H21836898   6.782   7.006   6.565 -2.7674  0.7222  2.2475
  141MOL   H21936899   6.785   7.104   6.418  1.2165 -0.1633  0.5946
  141MOL   H22036900   6.705   7.149   6.570  0.2961 -0.1695  1.3445
  141MOL   H22136901   6.899   7.330   6.426  3.2848  1.5325 -1.2651
  141MOL   H22236902   7.022   7.366   6.553 -0.8744  0.8019  0.7892
  141MOL   C22336903   6.816   7.419   6.607  0.2144  0.1689  0.3383
  141MOL   C22436904   6.849   7.464   6.745  0.6725 -0.4114  0.1013
  141MOL   C22536905   6.780   7.529   6.835  0.2059 -0.5675  0.6227
  141MOL   C22636906   6.830   7.558   6.968  0.1905  0.2436 -0.7219
  141MOL   C22736907   6.640   7.578   6.796 -0.7946 -0.2023  0.5427
  141MOL   H22836908   6.717   7.375   6.614  0.6843 -0.8578  0.5908
  141MOL   H22936909   6.803   7.512   6.551  1.2293 -0.2595 -0.6364
  141MOL   H23036910   6.951   7.442   6.775  0.0518 -2.2982  0.8699
  141MOL   H23136911   6.930   7.517   6.982  0.3490  0.6305 -0.7255
  141MOL   H23236912   6.757   7.501   7.026 -0.5581 -1.3558 -3.1314
  141MOL   H23336913   6.836   7.661   7.003  0.3420 -0.2824  0.8114
  141MOL   H23436914   6.570   7.567   6.879 -0.0035  1.6224  1.4872
  141MOL   H23536915   6.595   7.517   6.717  0.0518  2.2593 -1.9254
  141MOL   C23636916   6.651   7.719   6.758  0.8102  0.3118 -0.2653
  141MOL   C23736917   6.521   7.781   6.714 -0.1544 -0.3731  0.2189
  141MOL   C23836918   6.467   7.776   6.595  0.1206 -0.1892 -0.3112
  141MOL   C23936919   6.332   7.832   6.566 -0.1931 -0.3741  0.3030
  141MOL   C24036920   6.529   7.694   6.480  1.7246 -0.7933  0.1515
  141MOL   H24136921   6.735   7.731   6.690  1.6460  0.2030  0.7271
  141MOL   H24236922   6.695   7.773   6.843  0.0189  2.5378 -1.2209
  141MOL   H24336923   6.460   7.824   6.792 -0.0107 -0.5345  0.4228
  141MOL   H24436924   6.324   0.047   6.511  0.4430 -0.1136  0.6519
  141MOL   H24536925   6.274   7.836   6.658  0.9443  2.9983  0.9457
  141MOL   H24636926   6.283   7.759   6.502 -1.2104 -1.1184  1.9134
  141MOL   H24736927   6.447   7.629   6.451  0.9139  0.7638 -1.1109
  141MOL   H24836928   6.609   7.630   6.519  0.9397 -1.1195  1.2591
  141MOL   C24936929   6.580   7.774   6.357 -0.0866 -0.1138  0.6683
  141MOL   C25036930   6.646   7.691   6.248 -0.2385  0.7857 -0.2752
  141MOL   C25136931   6.599   7.669   6.121  0.3973  0.0109 -0.6431
  141MOL   C25236932   6.673   7.579   6.021  0.1619 -0.0911 -0.3153
  141MOL   C25336933   6.493   7.757   6.060 -0.0992 -0.4390  0.4460
  141MOL   H25436934   6.657   7.843   6.392 -0.8412  2.1395 -1.8785
  141MOL   H25536935   6.493   7.831   6.322  0.5887  1.4334  1.4521
  141MOL   H25636936   6.739   7.643   6.272  0.2266  1.2208 -1.2143
  141MOL   H25736937   6.600   7.508   5.981 -0.7771 -0.7642  2.4765
  141MOL   H25836938   6.752   7.526   6.073  3.1410  2.6095 -1.9340
  141MOL   H25936939   6.714   7.633   5.935  0.4930  0.6574  0.3064
  141MOL   H26036940   6.417   7.682   6.040 -0.4421 -0.1965  0.8615
  141MOL   H26136941   6.522   7.794   5.961  2.3140 -0.4125  1.1138
  141MOL   H26236942   6.453   7.842   6.115  0.3091  0.4594 -0.6247
  142MOL     C136943   2.862   5.359   5.138 -0.0448 -0.3501 -0.1281
  142MOL     C236944   2.922   5.295   5.022  0.3849 -0.0722 -0.0552
  142MOL     C336945   3.053   5.278   4.993 -0.4051  0.2502 -0.7008
  142MOL     C436946   3.107   5.195   4.873 -0.1843  0.2670  0.0923
  142MOL     C536947   3.162   5.333   5.083  0.3675 -0.8149 -0.1350
  142MOL     H636948   2.793   5.296   5.193  0.0640 -0.5411 -0.2111
  142MOL     H736949   2.929   5.402   5.212  0.2909 -0.6084 -0.2777
  142MOL     H836950   2.846   5.260   4.954  0.7507 -1.3603  0.1906
  142MOL     H936951   3.029   5.130   4.832 -0.1197 -1.9190  3.2282
  142MOL    H1036952   3.185   5.126   4.903  1.2547  1.9162  0.1904
  142MOL    H1136953   3.146   5.257   4.792  0.8894  0.9404  1.1134
  142MOL    H1236954   3.138   5.432   5.120  0.8355 -0.1482 -1.5531
  142MOL    H1336955   3.252   5.362   5.029 -0.7818  1.6418 -0.8135
  142MOL    H1436956   2.805   5.446   5.103  1.4809  0.5436 -0.4154
  142MOL    C1536957   3.194   5.235   5.195  0.0380 -0.0723 -0.0684
  142MOL    C1636958   3.327   5.278   5.268 -0.3804 -0.7074  0.5596
  142MOL    C1736959   3.341   5.348   5.386 -0.1969 -0.6882  0.3088
  142MOL    C1836960   3.473   5.363   5.455 -0.5124 -0.2094 -0.3200
  142MOL    C1936961   3.232   5.412   5.472  0.1472  0.0844  0.4909
  142MOL    H2036962   3.221   5.141   5.149  0.3792 -1.3004  2.5138
  142MOL    H2136963   3.117   5.210   5.268  1.0706  0.7212  1.3369
  142MOL    H2236964   3.414   5.237   5.219  0.7031 -0.3016  2.1376
  142MOL    H2336965   3.549   5.313   5.394  1.0178  1.0970  0.4758
  142MOL    H2436966   3.475   5.304   5.546  1.6471 -0.3089 -0.4019
  142MOL    H2536967   3.492   5.469   5.471  1.5827 -0.7954  1.2776
  142MOL    H2636968   3.267   5.422   5.575 -0.4725 -2.6442  1.0303
  142MOL    H2736969   3.159   5.331   5.464  1.5967 -1.3837  1.6576
  142MOL    C2836970   3.180   5.543   5.426 -0.1092 -0.0517  0.1065
  142MOL    C2936971   3.040   5.560   5.493 -0.2132 -0.1600  0.2017
  142MOL    C3036972   2.988   5.660   5.565  0.8218 -0.8350  0.2443
  142MOL    C3136973   2.840   5.643   5.589  0.2342  0.1594  0.6478
  142MOL    C3236974   3.071   5.782   5.603 -0.1514 -0.1265 -0.0894
  142MOL    H3336975   3.174   5.542   5.318  1.1595 -0.9753  0.0488
  142MOL    H3436976   3.244   5.630   5.443  1.0304 -0.3814 -2.3752
  142MOL    H3536977   2.970   5.484   5.461  0.5063 -0.7543  0.0173
  142MOL    H3636978   2.802   5.556   5.535 -1.5148  0.7277  0.9316
  142MOL    H3736979   2.792   5.722   5.531 -0.2193 -1.8393 -1.7777
  142MOL    H3836980   2.818   5.653   5.695  1.3928 -1.4932  1.0581
  142MOL    H3936981   3.179   5.768   5.597 -0.0632  0.2419  0.5955
  142MOL    H4036982   3.046   5.820   5.702 -2.3964 -0.1659 -0.6266
  142MOL    C4136983   3.054   5.892   5.494 -1.0184  0.1094 -0.1038
  142MOL    C4236984   3.153   6.012   5.515  0.2448  0.5010 -1.1619
  142MOL    C4336985   3.251   6.058   5.437 -0.1982  0.1403  0.8272
  142MOL    C4436986   3.318   6.190   5.463 -0.5824 -0.6209 -0.6661
  142MOL    C4536987   3.294   5.994   5.308 -0.3095 -0.1492  0.1956
  142MOL    H4636988   2.953   5.928   5.480 -1.1637 -0.5864 -0.8591
  142MOL    H4736989   3.072   5.834   5.404 -0.3313 -0.5318  0.4386
  142MOL    H4836990   3.140   6.075   5.602  0.8389 -0.1869 -0.5611
  142MOL    H4936991   3.285   6.241   5.553  0.4828 -0.7478 -0.1887
  142MOL    H5036992   3.316   6.260   5.380 -0.7030 -0.5731 -0.6217
  142MOL    H5136993   3.422   6.174   5.491 -0.6005  0.7657  0.2075
  142MOL    H5236994   3.316   6.072   5.235 -0.2653  0.7029  1.0956
  142MOL    H5336995   3.210   5.940   5.264 -1.7926  0.5519  2.0749
  142MOL    C5436996   3.412   5.902   5.328 -0.1959 -0.0448  0.6336
  142MOL    C5536997   3.428   5.809   5.202 -0.0864 -0.2028 -0.1403
  142MOL    C5636998   3.539   5.751   5.151  0.0815 -0.1689 -0.1056
  142MOL    C5736999   3.539   5.657   5.034 -0.6622  0.8198 -0.0073
  142MOL    C5837000   3.681   5.769   5.208 -0.0496  0.4032  0.1187
  142MOL    H5937001   3.385   5.833   5.408  0.9313 -2.5640 -1.1005
  142MOL    H6037002   3.507   5.950   5.350  0.8606 -1.1273 -1.4598
  142MOL    H6137003   3.336   5.781   5.154 -0.6645  0.7354  0.4163
  142MOL    H6237004   3.435   5.652   5.000 -0.5426  1.3647 -0.4664
  142MOL    H6337005   3.576   5.556   5.051  1.3246  1.5356  0.0007
  142MOL    H6437006   3.590   5.701   4.949 -1.3380  0.2274 -0.7315
  142MOL    H6537007   3.675   5.853   5.278  2.6189  0.7076  0.0422
  142MOL    H6637008   3.757   5.795   5.135  1.0946 -0.3543  1.0312
  142MOL    C6737009   3.732   5.648   5.291  0.4317 -0.8398 -0.7923
  142MOL    C6837010   3.868   5.679   5.351 -0.3360  0.0253  0.3129
  142MOL    C6937011   3.948   5.600   5.422  0.6349  0.0184 -0.1897
  142MOL    C7037012   4.097   5.624   5.429 -0.8924 -0.6843 -0.4049
  142MOL    C7137013   3.900   5.465   5.470 -0.0608 -0.3057 -0.2294
  142MOL    H7237014   3.756   5.567   5.222  1.4244 -0.7578 -0.5594
  142MOL    H7337015   3.665   5.613   5.369 -0.3336 -0.8765 -1.4566
  142MOL    H7437016   3.907   5.774   5.317  3.3707 -1.0672  1.2884
  142MOL    H7537017   4.142   5.607   5.527 -0.6741 -2.4392 -0.8071
  142MOL    H7637018   4.129   5.722   5.392  0.9389 -1.7160 -1.6539
  142MOL    H7737019   4.147   5.553   5.363 -0.1752  0.1975 -0.8335
  142MOL    H7837020   3.914   5.409   5.378 -1.3133 -1.8929  0.5188
  142MOL    H7937021   3.794   5.460   5.494 -0.2415  0.7648 -0.7767
  142MOL    C8037022   3.982   5.407   5.585  0.0376  0.7871  0.1699
  142MOL    C8137023   3.920   5.274   5.622 -0.2107 -0.7082 -0.5389
  142MOL    C8237024   3.816   5.250   5.703 -0.3959  0.8028 -0.1836
  142MOL    C8337025   3.748   5.355   5.789  0.2598 -0.5848  0.2656
  142MOL    C8437026   3.775   5.108   5.741 -0.5763 -0.2317 -0.0803
  142MOL    H8537027   3.972   5.475   5.670  1.4111  0.2688  0.7482
  142MOL    H8637028   4.089   5.398   5.570  0.0871  2.7295 -0.7690
  142MOL    H8737029   3.965   5.190   5.571 -2.2022 -0.7251 -2.3484
  142MOL    H8837030   3.751   5.454   5.742 -0.6860 -0.6843 -0.0212
  142MOL    H8937031   3.792   5.375   5.886  2.5549  3.1003 -1.4091
  142MOL    H9037032   3.642   5.337   5.804 -0.0595  1.4811  0.6436
  142MOL    H9137033   3.812   5.031   5.673 -0.3964  0.1362 -0.3969
  142MOL    H9237034   3.667   5.098   5.728 -0.6957  1.6511 -0.6396
  142MOL    C9337035   3.816   5.082   5.884  0.1802  0.1641 -0.3130
  142MOL    C9437036   3.833   4.928   5.901  1.0017 -0.2496 -0.6273
  142MOL    C9537037   3.938   4.857   5.956  0.0991 -0.2669 -0.2918
  142MOL    C9637038   3.940   4.706   5.954  0.5992  0.5158  0.2002
  142MOL    C9737039   4.060   4.927   6.024  0.0751  0.0257  0.2640
  142MOL    H9837040   3.741   5.117   5.956 -1.4280 -0.5270 -1.6164
  142MOL    H9937041   3.908   5.138   5.899 -1.0511  2.4749 -1.0479
  142MOL   H10037042   3.754   4.878   5.848 -1.7510 -0.3211  3.3111
  142MOL   H10137043   4.036   4.678   5.911  0.3653  1.3661 -0.9105
  142MOL   H10237044   3.918   4.661   6.050 -0.2649  1.0610  0.2669
  142MOL   H10337045   3.857   4.671   5.893  2.3996 -3.2855 -0.2453
  142MOL   H10437046   4.085   4.862   6.108  3.7078 -0.7360 -1.2977
  142MOL   H10537047   4.035   5.022   6.071  1.3216 -0.6725  2.4151
  142MOL   C10637048   4.195   4.931   5.933  0.7157  0.1216 -0.7639
  142MOL   C10737049   4.312   4.970   6.015 -0.7081  0.4435  0.4333
  142MOL   C10837050   4.415   4.904   6.067 -0.1742 -0.2204  0.2878
  142MOL   C10937051   4.445   4.756   6.047  0.4656 -0.6485  0.2256
  142MOL   C11037052   4.521   4.983   6.143 -0.0707 -0.0111  0.0060
  142MOL   H11137053   4.181   5.014   5.863 -1.5219  1.6848  1.4513
  142MOL   H11237054   4.200   4.834   5.884 -0.7830 -0.5059  0.3060
  142MOL   H11337055   4.311   5.073   6.049  0.4471  0.3618  0.7322
  142MOL   H11437056   4.549   4.743   6.018  1.0139  0.5955  1.5779
  142MOL   H11537057   4.426   4.688   6.131  1.3132  0.0811  1.0216
  142MOL   H11637058   4.389   4.714   5.964  1.8600  0.7031 -1.4173
  142MOL   H11737059   4.599   4.914   6.175  1.1544  0.8867 -0.9704
  142MOL   H11837060   4.466   5.034   6.222  1.3853  0.8536  0.4947
  142MOL   C11937061   4.594   5.095   6.064  0.1733 -0.4142  0.3408
  142MOL   C12037062   4.732   5.130   6.133 -0.1730  0.5825  0.6619
  142MOL   C12137063   4.856   5.164   6.081 -0.6927  0.1724 -0.3836
  142MOL   C12237064   4.976   5.201   6.164  0.6687  0.4376  0.1092
  142MOL   C12337065   4.875   5.177   5.932  0.1958  0.7309 -0.2365
  142MOL   H12437066   4.523   5.177   6.053  0.1395 -0.3507  1.0643
  142MOL   H12537067   4.609   5.072   5.958 -0.1643  0.0404  0.1941
  142MOL   H12637068   4.698   5.142   6.235 -1.7249 -0.2726  0.2632
  142MOL   H12737069   5.011   5.295   6.123  1.6658  0.2521  0.5156
  142MOL   H12837070   5.051   5.128   6.134 -0.3321 -1.8332  2.8403
  142MOL   H12937071   4.978   5.205   6.273  0.4264  0.5611  0.1098
  142MOL   H13037072   4.927   5.270   5.909  0.3900  0.7093  0.1162
  142MOL   H13137073   4.780   5.186   5.879  0.1516 -0.7853 -0.4236
  142MOL   C13237074   4.957   5.058   5.866  0.0495  0.9193  0.3199
  142MOL   C13337075   4.884   4.930   5.900  0.3581 -0.6759 -0.9012
  142MOL   C13437076   4.821   4.850   5.822  0.4378  0.3591  0.8024
  142MOL   C13537077   4.761   4.716   5.869 -0.0501  0.0898 -0.6048
  142MOL   C13637078   4.807   4.866   5.665 -0.5153 -0.3931 -0.1493
  142MOL   H13737079   5.060   5.044   5.899  1.0380  0.9953 -2.6440
  142MOL   H13837080   4.958   5.084   5.760 -0.4929  3.9012  0.9803
  142MOL   H13937081   4.901   4.898   6.002  0.0439 -1.9604 -1.2501
  142MOL   H14037082   4.831   4.639   5.837 -0.7794 -0.7148 -0.2696
  142MOL   H14137083   4.662   4.690   5.831  1.2282 -2.5476 -2.2859
  142MOL   H14237084   4.763   4.718   5.978 -0.4398 -2.5778 -0.5091
  142MOL   H14337085   4.809   4.766   5.621 -0.1285  0.2376 -1.5940
  142MOL   H14437086   4.892   4.917   5.620  1.3989 -2.8290  0.5842
  142MOL   C14537087   4.673   4.942   5.621  1.0903 -0.7911 -0.3368
  142MOL   C14637088   4.657   4.995   5.476  0.3181 -0.1249  0.3663
  142MOL   C14737089   4.573   4.946   5.377  0.7139  0.2882  0.3790
  142MOL   C14837090   4.562   5.017   5.238 -0.1188  0.1599 -0.1500
  142MOL   C14937091   4.474   4.831   5.397 -0.7808  0.0057  0.4213
  142MOL   H15037092   4.642   5.013   5.698  1.3504 -1.9125  0.8309
  142MOL   H15137093   4.601   4.864   5.646  0.3830  0.4026  1.4603
  142MOL   H15237094   4.723   5.077   5.452  0.7159 -0.9268 -1.4010
  142MOL   H15337095   4.472   5.078   5.230 -0.6757 -0.8999 -2.5394
  142MOL   H15437096   4.568   4.959   5.146 -3.5916  0.9870 -0.9909
  142MOL   H15537097   4.645   5.087   5.241  1.9312 -2.2245  0.5288
  142MOL   H15637098   4.489   4.774   5.488 -1.4888  0.2249  0.6773
  142MOL   H15737099   4.482   4.762   5.313 -0.4577 -0.4694  0.8440
  142MOL   C15837100   4.332   4.884   5.389 -0.0514  0.0804 -0.5770
  142MOL   C15937101   4.230   4.776   5.382 -0.4355  0.0896  0.3599
  142MOL   C16037102   4.144   4.746   5.480 -0.6489  0.7285 -0.4316
  142MOL   C16137103   4.126   4.818   5.616  0.2184 -0.3037 -0.2708
  142MOL   C16237104   4.040   4.637   5.459 -0.1832  0.2359  0.2278
  142MOL   H16337105   4.332   4.960   5.311  1.8390  0.9847  0.2554
  142MOL   H16437106   4.306   4.945   5.476 -3.4142 -1.6881 -0.2779
  142MOL   H16537107   4.240   4.706   5.300  0.2973  0.6254 -0.0109
  142MOL   H16637108   4.228   4.815   5.654 -0.3653  0.2366  1.3710
  142MOL   H16737109   4.064   4.757   5.681  1.9103 -1.1654  0.5746
  142MOL   H16837110   4.098   4.923   5.618 -0.2931 -0.4517  0.4025
  142MOL   H16937111   4.043   4.613   5.353 -0.0580  0.0575  0.2721
  142MOL   H17037112   3.944   4.674   5.496 -0.7588 -1.2253  0.2319
  142MOL   C17137113   4.073   4.518   5.548  0.0514  0.0088  0.1787
  142MOL   C17237114   4.208   4.455   5.505 -0.9005 -0.0930  0.0533
  142MOL   C17337115   4.317   4.428   5.574  0.1548 -0.4214  0.2994
  142MOL   C17437116   4.319   4.466   5.725  0.5803 -0.2190 -0.3605
  142MOL   C17537117   4.428   4.336   5.523 -0.6840  0.1257 -0.2303
  142MOL   H17637118   4.004   4.434   5.537  0.1375  0.0211 -0.4875
  142MOL   H17737119   4.072   4.548   5.653 -1.2830  1.7386 -0.3112
  142MOL   H17837120   4.213   4.412   5.406  2.7633 -0.2740  0.2188
  142MOL   H17937121   4.294   4.570   5.743  0.6889 -0.6418  2.4343
  142MOL   H18037122   4.419   4.450   5.766  0.2063 -0.1624  0.5857
  142MOL   H18137123   4.241   4.403   5.768  0.1980  0.6977  0.2809
  142MOL   H18237124   4.524   4.372   5.560  1.0288 -2.5211 -1.8607
  142MOL   H18337125   4.425   4.340   5.414 -2.4446 -1.3412 -0.2558
  142MOL   C18437126   4.411   4.188   5.560  0.0321  0.0421 -0.0367
  142MOL   C18537127   4.519   4.095   5.493 -0.8667  0.2031 -0.6558
  142MOL   C18637128   4.504   3.970   5.450  0.0425  0.0841  0.4958
  142MOL   C18737129   4.619   3.902   5.384 -0.0551  0.0730  0.2739
  142MOL   C18837130   4.366   3.904   5.459 -0.0901 -0.0858 -0.0199
  142MOL   H18937131   4.311   4.145   5.552 -0.2325  0.4399  1.0617
  142MOL   H19037132   4.424   4.177   5.668  0.3117  2.2526  0.1978
  142MOL   H19137133   4.618   4.135   5.503 -0.5933 -0.8744  1.2865
  142MOL   H19237134   4.612   3.905   5.276 -0.9298  1.0148  0.3520
  142MOL   H19337135   4.629   3.795   5.403  0.1525  0.5191  2.9419
  142MOL   H19437136   4.719   3.941   5.402 -1.0598  3.1470 -0.5494
  142MOL   H19537137   4.311   3.930   5.550  0.3211  2.3429 -0.4341
  142MOL   H19637138   4.373   3.796   5.471 -0.2637  0.1778  2.9847
  142MOL   C19737139   4.278   3.939   5.338 -0.3629  0.3417  0.8291
  142MOL   C19837140   4.142   3.874   5.338  0.1061  0.2396  0.2339
  142MOL   C19937141   4.015   3.916   5.312  0.2173 -0.2271 -0.6111
  142MOL   C20037142   3.901   3.822   5.312 -0.3427 -0.2960  0.3128
  142MOL   C20137143   3.993   4.062   5.270  0.7511 -0.5228  0.4276
  142MOL   H20237144   4.326   3.901   5.247 -0.0685  0.2276  1.0331
  142MOL   H20337145   4.273   4.046   5.317  1.1947  0.3842  0.6135
  142MOL   H20437146   4.154   3.769   5.358  3.7106  0.3071 -1.1785
  142MOL   H20537147   3.820   3.862   5.373 -1.9285 -2.4651 -0.2944
  142MOL   H20637148   3.946   3.730   5.352  0.4463 -0.2416 -0.4470
  142MOL   H20737149   3.864   3.793   5.214 -0.8726 -2.3519  1.0809
  142MOL   H20837150   3.901   4.075   5.214  0.3214  0.7237  1.4048
  142MOL   H20937151   4.064   4.096   5.195 -1.7124  0.7297 -1.3896
  142MOL   C21037152   3.990   4.161   5.382 -0.1259  0.3645 -0.0947
  142MOL   C21137153   3.874   4.142   5.472 -0.5940 -0.3189 -0.9336
  142MOL   C21237154   3.755   4.204   5.473  0.1377 -0.3419  0.1963
  142MOL   C21337155   3.647   4.170   5.577  0.0311 -0.3099  0.8422
  142MOL   C21437156   3.711   4.310   5.379  0.2001  0.0416  0.1124
  142MOL   H21537157   3.998   4.260   5.338  2.2202  0.6111  0.8265
  142MOL   H21637158   4.080   4.158   5.444 -1.2769  1.5648  1.6868
  142MOL   H21737159   3.885   4.068   5.549 -0.6652 -1.3726 -1.9274
  142MOL   H21837160   3.571   4.114   5.522  0.5547  0.9768 -1.2860
  142MOL   H21937161   3.595   4.259   5.612  1.5479  1.0355 -0.2378
  142MOL   H22037162   3.666   4.104   5.661  0.3991 -1.3940 -0.0706
  142MOL   H22137163   3.795   4.377   5.361  1.4412 -0.9037  2.2266
  142MOL   H22237164   3.645   4.378   5.432 -0.3637  1.0918 -1.8662
  142MOL   C22337165   3.632   4.256   5.253  0.8088 -0.3958 -0.9186
  142MOL   C22437166   3.487   4.241   5.274  0.0182 -0.3209 -0.7655
  142MOL   C22537167   3.383   4.321   5.239  0.3107  0.2366  0.2940
  142MOL   C22637168   3.235   4.295   5.268 -0.7112 -0.2078  0.9547
  142MOL   C22737169   3.395   4.448   5.161  0.1831  0.3454 -0.2551
  142MOL   H22837170   3.671   4.158   5.226  2.8047 -0.4992  2.1084
  142MOL   H22937171   3.650   4.314   5.163 -0.8612  2.5024  0.5377
  142MOL   H23037172   3.470   4.146   5.322 -0.1353  0.1852  0.1972
  142MOL   H23137173   3.163   4.369   5.303 -1.1655  0.1969 -0.7877
  142MOL   H23237174   3.227   4.213   5.340  0.7903 -0.2444  1.0965
  142MOL   H23337175   3.194   4.249   5.178 -0.3360 -0.3350  0.8509
  142MOL   H23437176   3.322   4.461   5.080  0.8968 -2.0447 -1.3295
  142MOL   H23537177   3.492   4.446   5.111  0.3758  0.5167  0.1125
  142MOL   C23637178   3.404   4.566   5.261 -0.3263  0.0440 -0.5598
  142MOL   C23737179   3.457   4.694   5.196  0.2770  0.3951 -0.1662
  142MOL   C23837180   3.395   4.814   5.186 -0.2572  0.4047 -0.0815
  142MOL   C23937181   3.456   4.939   5.113  0.0259  0.1671 -0.5974
  142MOL   C24037182   3.260   4.843   5.240  0.5441 -0.2625  0.0618
  142MOL   H24137183   3.467   4.533   5.343 -1.5446  1.2540  0.8904
  142MOL   H24237184   3.307   4.578   5.309  0.2336 -2.1500  1.2004
  142MOL   H24337185   3.551   4.678   5.145  0.9655 -1.5058  1.6291
  142MOL   H24437186   3.386   4.947   5.029 -0.2794 -1.8793 -0.5775
  142MOL   H24537187   3.555   4.910   5.079  0.1197 -1.0410  0.6945
  142MOL   H24637188   3.449   5.030   5.172  2.0461 -0.3768  0.5056
  142MOL   H24737189   3.258   4.945   5.279  0.2598  0.8323 -2.7431
  142MOL   H24837190   3.245   4.790   5.334 -0.3759  1.1607  0.7406
  142MOL   C24937191   3.147   4.801   5.142 -0.3280  0.4003 -0.3012
  142MOL   C25037192   3.016   4.785   5.218  0.4252  0.6664 -0.0347
  142MOL   C25137193   2.906   4.859   5.217  0.7580 -0.6790 -0.0360
  142MOL   C25237194   2.779   4.823   5.293 -0.4940  0.2921  0.7351
  142MOL   C25337195   2.894   4.984   5.130  0.9585  0.0415  0.5692
  142MOL   H25437196   3.181   4.706   5.103  0.7839 -0.7525  3.2789
  142MOL   H25537197   3.144   4.858   5.049  0.8429 -1.4774 -1.5243
  142MOL   H25637198   3.021   4.692   5.273 -1.1369  0.9104  0.5341
  142MOL   H25737199   2.749   4.893   5.372  0.5486 -0.4469  1.7997
  142MOL   H25837200   2.805   4.731   5.345  1.1020  1.4189  1.9820
  142MOL   H25937201   2.700   4.799   5.222  0.7247 -1.1339 -0.1432
  142MOL   H26037202   2.991   5.034   5.124  2.3988 -2.5368  1.7028
  142MOL   H26137203   2.823   5.055   5.172 -0.9592 -0.4784 -1.7364
  142MOL   H26237204   2.855   4.966   5.030  1.2234 -1.3697  0.7043
  143MOL     C137205   3.238   1.338   1.891 -1.2534 -0.3878  0.2358
  143MOL     C237206   3.301   1.343   2.032  0.6353  0.8233 -0.7171
  143MOL     C337207   3.277   1.432   2.127  0.4565 -0.1672 -0.3634
  143MOL     C437208   3.360   1.425   2.253 -0.3708 -0.2976  0.1933
  143MOL     C537209   3.175   1.542   2.126 -0.9043  0.5361  0.8154
  143MOL     H637210   3.152   1.271   1.887 -2.0689  0.6133  0.7330
  143MOL     H737211   3.202   1.436   1.860 -0.7120  0.4358  2.1230
  143MOL     H837212   3.368   1.262   2.056  0.2576  0.2731 -1.4807
  143MOL     H937213   3.299   1.427   2.344 -2.3288 -0.1154 -1.0859
  143MOL    H1037214   3.431   1.508   2.254 -1.8696  1.0294 -0.5897
  143MOL    H1137215   3.423   1.338   2.267 -1.9093 -1.0830  2.6278
  143MOL    H1237216   3.108   1.534   2.212 -0.1249 -1.8232  1.2556
  143MOL    H1337217   3.097   1.521   2.053  0.1249 -0.5971  0.0271
  143MOL    H1437218   3.321   1.306   1.828 -2.1434 -2.1941 -0.0463
  143MOL    C1537219   3.242   1.681   2.121 -0.7467  0.3719  0.3659
  143MOL    C1637220   3.132   1.786   2.142  0.3744 -0.8078  0.0205
  143MOL    C1737221   3.137   1.896   2.212  0.7091 -0.2300  0.0854
  143MOL    C1837222   3.025   1.994   2.231  0.6920 -0.2071  0.1764
  143MOL    C1937223   3.264   1.943   2.292 -0.0997  0.3481 -0.2060
  143MOL    H2037224   3.296   1.691   2.027  0.7395 -2.6003  0.8335
  143MOL    H2137225   3.323   1.691   2.194  0.2486 -0.4323 -0.6078
  143MOL    H2237226   3.043   1.766   2.085  1.2643  0.0559 -1.7164
  143MOL    H2337227   3.035   2.084   2.171  2.6150 -0.1116  0.6278
  143MOL    H2437228   3.005   2.020   2.335 -2.6099 -0.5511 -0.2907
  143MOL    H2537229   2.930   1.956   2.191 -0.2209 -0.8977  2.8986
  143MOL    H2637230   3.281   2.047   2.262 -0.6196  1.0162  1.7442
  143MOL    H2737231   3.343   1.885   2.244  0.0614  1.7198 -1.6598
  143MOL    C2837232   3.266   1.928   2.440  0.0299  0.6286  0.5397
  143MOL    C2937233   3.227   1.783   2.478 -0.1114 -0.0314 -0.0494
  143MOL    C3037234   3.163   1.743   2.589 -0.0495 -0.4276 -0.1281
  143MOL    C3137235   3.141   1.597   2.610  1.2149 -0.1577  0.5148
  143MOL    C3237236   3.105   1.822   2.703 -0.0443 -0.2510  0.3414
  143MOL    H3337237   3.188   1.991   2.483 -1.0435  0.0147 -0.4783
  143MOL    H3437238   3.362   1.954   2.486 -1.0759  2.7542  1.7697
  143MOL    H3537239   3.247   1.709   2.402 -0.2582 -0.9967  0.8295
  143MOL    H3637240   3.212   1.559   2.683  0.7028  1.7777  2.0582
  143MOL    H3737241   3.143   1.543   2.515 -1.5209  0.7620 -0.1210
  143MOL    H3837242   3.036   1.589   2.637  0.8622  1.0787 -0.3962
  143MOL    H3937243   3.001   1.792   2.716 -0.6367  2.2585  1.5738
  143MOL    H4037244   3.091   1.925   2.671  0.0975 -0.8412 -1.7565
  143MOL    C4137245   3.196   1.817   2.830  0.4480 -0.1709 -0.3000
  143MOL    C4237246   3.122   1.855   2.958  0.8148 -0.2150 -0.2009
  143MOL    C4337247   3.183   1.882   3.080 -0.0208  0.1024  0.2968
  143MOL    C4437248   3.102   1.916   3.205  0.6196  0.0312  0.4717
  143MOL    C4537249   3.335   1.891   3.108 -0.5749 -0.6775 -0.1532
  143MOL    H4637250   3.279   1.887   2.820  0.0668  0.8937  3.1674
  143MOL    H4737251   3.236   1.716   2.840  0.6512 -0.2537 -1.8388
  143MOL    H4837252   3.014   1.856   2.953  0.8217  0.6385 -0.2822
  143MOL    H4937253   3.126   1.843   3.282  0.3243 -0.8105 -0.2224
  143MOL    H5037254   2.993   1.916   3.191  0.6976 -0.4834 -0.1643
  143MOL    H5137255   3.132   2.013   3.244 -1.3269  0.0006  2.1298
  143MOL    H5237256   3.360   1.955   3.193  0.6042 -2.9108  1.2445
  143MOL    H5337257   3.384   1.935   3.022 -0.2182 -1.8553 -0.5658
  143MOL    C5437258   3.395   1.745   3.138 -0.0830 -0.6434  0.5448
  143MOL    C5537259   3.549   1.733   3.148  0.1263  1.1280 -0.7214
  143MOL    C5637260   3.630   1.780   3.242  0.3765 -1.0649 -0.0957
  143MOL    C5737261   3.777   1.775   3.235 -0.0276  0.3744  0.5059
  143MOL    C5837262   3.584   1.845   3.374  0.2299  0.0679  0.0136
  143MOL    H5937263   3.369   1.668   3.065 -0.4647 -0.9153  0.9639
  143MOL    H6037264   3.342   1.705   3.225 -0.6244  0.9028  0.9363
  143MOL    H6137265   3.598   1.683   3.065  2.5204 -1.1550  1.9475
  143MOL    H6237266   3.821   1.862   3.284  1.9303 -0.1780 -0.2141
  143MOL    H6337267   3.802   1.759   3.131 -1.0236  2.2955 -0.0628
  143MOL    H6437268   3.820   1.695   3.295 -0.4979  0.0113  0.3571
  143MOL    H6537269   3.494   1.906   3.361  0.6147  0.9971  1.6002
  143MOL    H6637270   3.652   1.924   3.406  0.5123 -1.2052  2.6446
  143MOL    C6737271   3.556   1.743   3.486  0.1706 -0.1622  0.4328
  143MOL    C6837272   3.547   1.805   3.627  0.1015 -0.0939 -0.1639
  143MOL    C6937273   3.436   1.851   3.685 -0.5416  0.1045  0.1883
  143MOL    C7037274   3.453   1.910   3.824 -0.0671  0.2342  0.6074
  143MOL    C7137275   3.294   1.837   3.632 -0.7546 -0.7809 -0.0011
  143MOL    H7237276   3.649   1.685   3.484  1.1199  1.2529  2.2620
  143MOL    H7337277   3.483   1.664   3.467 -0.5420  0.9433 -1.5577
  143MOL    H7437278   3.647   1.827   3.663  0.5896 -2.5671  0.0446
  143MOL    H7537279   3.396   1.856   3.899 -1.2261  0.3502 -0.1934
  143MOL    H7637280   3.399   2.005   3.831  0.5386  0.9225 -2.8736
  143MOL    H7737281   3.558   1.930   3.848  0.1155 -1.1949  0.9936
  143MOL    H7837282   3.237   1.816   3.722  2.9221 -0.4991  2.4914
  143MOL    H7937283   3.288   1.755   3.560  0.6480 -1.3749  0.5381
  143MOL    C8037284   3.240   1.962   3.552  0.8775  0.0397  0.2498
  143MOL    C8137285   3.090   1.949   3.562 -0.2345  0.2346  0.5566
  143MOL    C8237286   3.001   2.044   3.599  0.2490  0.5373 -0.3731
  143MOL    C8337287   3.042   2.192   3.606  0.4680  0.3886 -0.2782
  143MOL    C8437288   2.863   2.015   3.647  0.5460 -0.0036 -0.2742
  143MOL    H8537289   3.278   1.970   3.450 -0.1990 -3.3661 -0.5078
  143MOL    H8637290   3.280   2.053   3.597  1.3971  0.1545 -0.4361
  143MOL    H8737291   3.066   1.844   3.554  2.9034 -0.4989  0.2174
  143MOL    H8837292   3.046   2.222   3.711 -0.0075 -0.3319 -0.0489
  143MOL    H8937293   2.973   2.264   3.564 -1.0440 -0.9605 -0.1776
  143MOL    H9037294   3.139   2.211   3.560  1.3492 -3.0244 -0.0335
  143MOL    H9137295   2.805   2.093   3.597  1.1596 -0.5207 -1.8468
  143MOL    H9237296   2.849   2.036   3.753 -1.5162  2.4041 -0.9791
  143MOL    C9337297   2.799   1.877   3.623 -0.3957 -0.7417  0.1127
  143MOL    C9437298   2.799   1.820   3.491  0.0939  0.2633  0.5344
  143MOL    C9537299   2.837   1.697   3.456 -0.2504 -0.0239  0.9255
  143MOL    C9637300   2.837   1.670   3.305 -0.0368 -0.1186 -0.0839
  143MOL    C9737301   2.879   1.583   3.544 -0.4390 -0.8055 -0.6162
  143MOL    H9837302   2.697   1.896   3.659  0.2321  0.0515  1.4956
  143MOL    H9937303   2.844   1.799   3.685  0.8431 -1.6263 -1.8429
  143MOL   H10037304   2.770   1.893   3.415 -1.4754  2.1035  2.8269
  143MOL   H10137305   2.771   1.741   3.254 -1.8435  0.3761  2.8105
  143MOL   H10237306   2.935   1.686   3.260 -0.6679  2.1344 -0.7446
  143MOL   H10337307   2.802   1.568   3.294  1.6845 -1.0758  2.7998
  143MOL   H10437308   2.924   1.608   3.640 -0.9248 -1.8739 -0.0995
  143MOL   H10537309   2.964   1.545   3.486  0.2011  0.5810 -0.6165
  143MOL   C10637310   2.764   1.478   3.567  0.2951  1.3801  0.0636
  143MOL   C10737311   2.815   1.351   3.640  0.0085  0.9971 -0.2653
  143MOL   C10837312   2.814   1.224   3.595 -0.0750 -0.8115 -0.0659
  143MOL   C10937313   2.753   1.170   3.471 -0.0681  0.1335 -0.1874
  143MOL   C11037314   2.880   1.113   3.678 -0.1795 -0.7717  0.4675
  143MOL   H11137315   2.738   1.457   3.464  0.0500  0.4212  0.3082
  143MOL   H11237316   2.672   1.518   3.612  0.4151  1.6851  0.0377
  143MOL   H11337317   2.862   1.367   3.736  0.9101  2.3849 -0.9240
  143MOL   H11437318   2.671   1.097   3.474 -0.6085  0.7289 -0.3625
  143MOL   H11537319   2.696   1.251   3.424  1.1765  0.7417 -0.6608
  143MOL   H11637320   2.819   1.135   3.392  0.7792  1.2408  0.0241
  143MOL   H11737321   2.918   1.157   3.770  0.0645  1.4443 -0.6447
  143MOL   H11837322   2.966   1.085   3.617 -0.7086  0.5016 -0.9181
  143MOL   C11937323   2.804   0.987   3.705 -0.0320 -0.1505  0.2949
  143MOL   C12037324   2.877   0.901   3.808  0.6271 -0.0441  0.7132
  143MOL   C12137325   2.815   0.830   3.906 -0.9943 -0.4127  0.4625
  143MOL   C12237326   2.888   0.744   4.009 -0.1716  0.7918  1.4752
  143MOL   C12337327   2.667   0.815   3.906 -0.4072 -0.4428 -0.0014
  143MOL   H12437328   2.772   0.941   3.612  0.8441  1.5403 -0.8695
  143MOL   H12537329   2.710   1.022   3.746  1.1508  3.4578  0.0887
  143MOL   H12637330   2.983   0.901   3.792  0.9811  1.1905  3.0140
  143MOL   H12737331   2.887   0.791   4.107  2.6687  1.2043  1.3621
  143MOL   H12837332   2.996   0.747   3.989 -0.1504 -0.5507  1.3186
  143MOL   H12937333   2.839   0.647   4.006  0.1407  0.6472  0.9897
  143MOL   H13037334   2.652   0.708   3.915  0.3199 -0.5154  0.4517
  143MOL   H13137335   2.620   0.843   3.812  1.5790 -0.4156 -1.0297
  143MOL   C13237336   2.597   0.893   4.019 -0.1147 -0.5400 -0.0999
  143MOL   C13337337   2.457   0.854   4.022  0.4544  0.2278 -0.0946
  143MOL   C13437338   2.348   0.922   4.062  1.0490  0.4328 -0.4428
  143MOL   C13537339   2.209   0.863   4.057  0.8506 -0.2868  0.3048
  143MOL   C13637340   2.355   1.056   4.129 -0.2532 -0.6175  0.8418
  143MOL   H13737341   2.599   1.001   4.016  2.5319 -0.5675 -0.5161
  143MOL   H13837342   2.639   0.870   4.117 -0.3961  0.6513  0.2988
  143MOL   H13937343   2.441   0.753   3.989  1.9025  0.0810 -0.3557
  143MOL   H14037344   2.168   0.840   4.156  1.0963 -0.6119  0.3307
  143MOL   H14137345   2.220   0.766   4.008  3.3894  0.9079 -1.6009
  143MOL   H14237346   2.141   0.928   4.002  0.6134 -0.9416 -0.1867
  143MOL   H14337347   2.283   1.130   4.092 -0.2151 -0.5659  0.8721
  143MOL   H14437348   2.441   1.113   4.096 -0.6006  0.0523  1.0797
  143MOL   C14537349   2.352   1.039   4.284 -0.5579  0.2109 -0.8194
  143MOL   C14637350   2.377   1.170   4.357  0.5339 -1.0437 -0.9117
  143MOL   C14737351   2.277   1.234   4.431  0.0512  0.0180  0.5089
  143MOL   C14837352   2.298   1.377   4.486 -0.1878 -0.1569  0.2152
  143MOL   C14937353   2.148   1.171   4.474 -0.1847 -0.0643  0.0362
  143MOL   H15037354   2.439   0.978   4.306 -0.4518  0.7510  0.3121
  143MOL   H15137355   2.264   0.985   4.319 -1.3689  2.0080  0.0129
  143MOL   H15237356   2.463   1.229   4.328 -1.8094  2.5748 -0.8628
  143MOL   H15337357   2.360   1.431   4.414 -1.4489  1.1234  0.0775
  143MOL   H15437358   2.333   1.381   4.589  1.6939 -1.3696 -0.3383
  143MOL   H15537359   2.205   1.433   4.493 -0.1562  0.1190 -1.3932
  143MOL   H15637360   2.159   1.063   4.463  0.2552  0.0095 -0.2760
  143MOL   H15737361   2.062   1.214   4.422 -0.6934 -1.0952  0.0189
  143MOL   C15837362   2.117   1.184   4.623  0.0233 -0.0916 -0.6843
  143MOL   C15937363   1.993   1.107   4.669 -0.3362 -0.1933 -0.1661
  143MOL   C16037364   1.968   1.035   4.779  0.2888  0.1291  0.3980
  143MOL   C16137365   2.070   1.019   4.887  0.7643 -0.5487 -0.5694
  143MOL   C16237366   1.828   0.976   4.800 -0.3955  0.0349  0.1882
  143MOL   H16337367   2.096   1.290   4.639 -0.3266  0.0628 -2.0609
  143MOL   H16437368   2.196   1.150   4.690 -1.3436 -0.1140  0.9422
  143MOL   H16537369   1.904   1.118   4.609  0.2198 -0.7873 -1.1101
  143MOL   H16637370   2.105   0.916   4.898 -1.4409 -1.2210  0.5333
  143MOL   H16737371   2.032   1.043   4.986  1.0661 -1.2315 -0.2855
  143MOL   H16837372   2.162   1.074   4.872 -0.0346  0.4851 -1.7990
  143MOL   H16937373   1.764   1.011   4.719  0.3327 -1.0527 -0.8874
  143MOL   H17037374   1.793   1.035   4.884  2.2827  0.7122  0.8918
  143MOL   C17137375   1.833   0.826   4.820  0.7251 -0.1843 -0.3023
  143MOL   C17237376   1.715   0.764   4.890 -0.4103 -0.1101  0.1079
  143MOL   C17337377   1.683   0.634   4.900  0.4700  0.1374 -0.6898
  143MOL   C17437378   1.764   0.516   4.843  0.3057 -0.1748 -0.0220
  143MOL   C17537379   1.558   0.594   4.979 -0.2451  0.1364  0.7490
  143MOL   H17637380   1.912   0.797   4.889  1.8730  0.2717 -1.4212
  143MOL   H17737381   1.854   0.790   4.720 -2.0544 -0.2741 -0.8940
  143MOL   H17837382   1.655   0.829   4.951  0.2503 -1.1928  1.9619
  143MOL   H17937383   1.838   0.557   4.775  1.0349 -0.9508  0.2893
  143MOL   H18037384   1.691   0.470   4.776  1.3077  1.6677 -2.4384
  143MOL   H18137385   1.810   0.449   4.915 -0.5539 -0.1919  0.5174
  143MOL   H18237386   1.566   0.649   5.073 -0.2264  0.7873  0.3700
  143MOL   H18337387   1.577   0.490   5.003  1.0014  0.4073  0.9865
  143MOL   C18437388   1.428   0.610   4.895  0.1736  0.1938 -0.7023
  143MOL   C18537389   1.297   0.578   4.957  0.0284 -0.6060  0.9158
  143MOL   C18637390   1.226   0.468   4.957  0.0763 -0.7056  0.0095
  143MOL   C18737391   1.085   0.454   5.009  0.1465  0.0933  0.1500
  143MOL   C18837392   1.279   0.334   4.900 -0.2825 -0.2126  0.0066
  143MOL   H18937393   1.442   0.544   4.809 -0.6679 -0.5203 -0.3015
  143MOL   H19037394   1.423   0.710   4.852 -0.2914  1.0537  1.3083
  143MOL   H19137395   1.242   0.662   4.998 -0.3376 -0.8996  1.0231
  143MOL   H19237396   1.076   0.397   5.101 -3.1782 -0.1551 -0.2851
  143MOL   H19337397   1.027   0.413   4.927 -1.5041 -0.7729  1.7282
  143MOL   H19437398   1.038   0.552   5.023 -1.2676 -0.9643  3.1792
  143MOL   H19537399   1.239   0.249   4.955  1.5266 -0.6592  0.6684
  143MOL   H19637400   1.384   0.332   4.930 -0.3521 -1.2150  0.2126
  143MOL   C19737401   1.271   0.322   4.747 -0.0252 -0.0949 -0.1645
  143MOL   C19837402   1.337   0.193   4.687  0.8639  0.1855  0.2710
  143MOL   C19937403   1.395   0.189   4.561 -0.7160 -0.3565 -0.5465
  143MOL   C20037404   1.439   0.057   4.489 -0.3261 -0.1310 -0.3357
  143MOL   C20137405   1.422   0.321   4.481  0.6683  0.4230  0.1669
  143MOL   H20237406   1.310   0.411   4.699  0.5339  0.4357  1.2242
  143MOL   H20337407   1.165   0.320   4.726  0.0419 -1.8869 -0.4428
  143MOL   H20437408   1.333   0.101   4.743 -0.3691 -0.0781 -0.2232
  143MOL   H20537409   1.377   0.029   4.404 -1.7216 -4.2041  1.8720
  143MOL   H20637410   1.431   7.855   4.563  1.6383  1.1150  1.2882
  143MOL   H20737411   1.540   0.076   4.454  0.1891 -1.6447  0.2872
  143MOL   H20837412   1.336   0.388   4.480  0.1665 -0.2196 -0.0890
  143MOL   H20937413   1.441   0.293   4.377 -0.4035  2.9949 -0.7852
  143MOL   C21037414   1.549   0.397   4.540 -0.4683  0.0332  0.3107
  143MOL   C21137415   1.590   0.497   4.433  0.4658  0.8664  0.1352
  143MOL   C21237416   1.710   0.506   4.366  0.3034  0.0577 -0.2797
  143MOL   C21337417   1.725   0.605   4.248  0.7406 -0.3229  0.5899
  143MOL   C21437418   1.821   0.403   4.377  0.4705  0.2711  0.7395
  143MOL   H21537419   1.629   0.326   4.559 -0.8274 -0.8451 -1.3691
  143MOL   H21637420   1.533   0.448   4.634 -2.1518  2.1152 -1.0583
  143MOL   H21737421   1.514   0.560   4.388 -0.0311  1.2442  1.4755
  143MOL   H21837422   1.825   0.642   4.228  0.9219 -0.9634  0.2904
  143MOL   H21937423   1.645   0.678   4.257  0.9919  0.2522 -1.6767
  143MOL   H22037424   1.702   0.545   4.160 -0.3144 -0.3052  0.8480
  143MOL   H22137425   1.879   0.396   4.285 -0.1029 -2.1772  0.5536
  143MOL   H22237426   1.766   0.310   4.386  1.1486 -0.0026  2.2627
  143MOL   C22337427   1.918   0.433   4.492  0.0393 -0.3011  0.5423
  143MOL   C22437428   1.970   0.580   4.496  0.3063  0.0909  0.0313
  143MOL   C22537429   2.086   0.630   4.456  0.2124 -0.1439  0.0327
  143MOL   C22637430   2.122   0.773   4.471  0.7259 -0.1898 -0.5611
  143MOL   C22737431   2.188   0.551   4.373 -0.0065 -0.9795  0.0847
  143MOL   H22837432   2.000   0.362   4.476 -1.1000 -1.5232  0.0574
  143MOL   H22937433   1.867   0.410   4.585 -2.2682 -1.1508 -0.9005
  143MOL   H23037434   1.901   0.647   4.545 -1.8157 -0.1155 -2.5085
  143MOL   H23137435   2.089   0.831   4.385  0.6027  2.5712  1.2783
  143MOL   H23237436   2.229   0.793   4.482  0.9272 -0.7736 -1.4036
  143MOL   H23337437   2.067   0.809   4.558 -0.0822 -2.3307 -0.1402
  143MOL   H23437438   2.220   0.614   4.289  0.3639 -3.0831 -1.3975
  143MOL   H23537439   2.149   0.465   4.318  2.9038 -1.7321 -0.9349
  143MOL   C23637440   2.300   0.508   4.470  0.0020 -0.0450  0.0255
  143MOL   C23737441   2.430   0.447   4.417  0.1235 -0.3593  0.4632
  143MOL   C23837442   2.531   0.522   4.371 -0.5894  0.6295 -0.2750
  143MOL   C23937443   2.639   0.464   4.279 -0.2599  0.5301 -0.4576
  143MOL   C24037444   2.547   0.668   4.406 -0.1715 -0.2328 -0.8101
  143MOL   H24137445   2.251   0.429   4.527 -1.5579  0.9299  0.0812
  143MOL   H24237446   2.340   0.590   4.528  1.3015 -1.7663  1.6225
  143MOL   H24337447   2.439   0.341   4.399  0.5918  0.0452 -1.8057
  143MOL   H24437448   2.629   0.355   4.274 -0.7643  0.2961  3.8443
  143MOL   H24537449   2.736   0.473   4.327 -1.7067  1.3971  2.4204
  143MOL   H24637450   2.639   0.503   4.177 -1.1801 -0.1383 -0.7174
  143MOL   H24737451   2.463   0.730   4.377  0.0415  0.4931  0.1061
  143MOL   H24837452   2.628   0.700   4.340  1.0559 -0.8361  0.3705
  143MOL   C24937453   2.587   0.704   4.544  0.1593 -0.7191 -0.0761
  143MOL   C25037454   2.614   0.855   4.556 -0.1017  0.2737  0.0333
  143MOL   C25137455   2.551   0.950   4.633 -0.2252  0.3345  0.4464
  143MOL   C25237456   2.601   1.092   4.629  0.3590  0.3305 -0.5338
  143MOL   C25337457   2.434   0.918   4.728 -0.0094 -0.2309 -0.0429
  143MOL   H25437458   2.678   0.653   4.576 -0.0859 -0.5540  0.8804
  143MOL   H25537459   2.511   0.681   4.619 -0.8646  3.3725  0.2718
  143MOL   H25637460   2.701   0.889   4.502  1.3406  0.3002  2.2811
  143MOL   H25737461   2.521   1.160   4.598 -0.4452 -0.1406  0.4709
  143MOL   H25837462   2.685   1.114   4.564 -0.0710  1.5203 -0.7045
  143MOL   H25937463   2.636   1.127   4.726 -1.5060 -1.2767  0.7626
  143MOL   H26037464   2.358   0.997   4.730 -3.2779 -3.2664  0.0294
  143MOL   H26137465   2.471   0.900   4.829 -0.1091 -2.1352 -0.3339
  143MOL   H26237466   2.375   0.834   4.691  0.3316 -0.0252 -1.0772
  144MOL     C137467   3.841   3.213   0.220 -0.6285 -0.1845  0.0449
  144MOL     C237468   3.871   3.344   0.290  0.5152  0.0992 -0.0999
  144MOL     C337469   3.892   3.357   0.419 -0.4727  0.3458  0.4640
  144MOL     C437470   3.921   3.479   0.493 -0.2572  0.5979  0.6422
  144MOL     C537471   3.869   3.239   0.516 -0.2431 -0.4905 -0.4380
  144MOL     H637472   3.844   3.220   0.111  1.1271  1.4064  0.1685
  144MOL     H737473   3.919   3.142   0.246  0.3448  0.6378 -0.5581
  144MOL     H837474   3.872   3.425   0.219 -1.0618 -1.2070 -1.6793
  144MOL     H937475   3.871   3.570   0.461 -1.3457 -0.0437  0.4587
  144MOL    H1037476   4.029   3.485   0.507 -0.0196 -0.2898 -0.6309
  144MOL    H1137477   3.880   3.468   0.593 -0.3016 -0.4319  0.5192
  144MOL    H1237478   3.817   3.161   0.461  0.7642  0.7373 -3.2263
  144MOL    H1337479   3.793   3.260   0.591  2.1980  1.0941  1.7024
  144MOL    H1437480   3.743   3.175   0.246 -0.9292 -0.1976 -1.0688
  144MOL    C1537481   4.007   3.180   0.563 -0.1849 -0.6402  0.0264
  144MOL    C1637482   4.057   3.264   0.679  0.0834 -0.5929  0.4900
  144MOL    C1737483   4.187   3.283   0.713  0.5584 -0.4443 -0.4771
  144MOL    C1837484   4.228   3.360   0.835 -0.6474 -0.6647 -0.0127
  144MOL    C1937485   4.292   3.212   0.641 -0.3788 -0.2782  0.6100
  144MOL    H2037486   4.081   3.185   0.483  0.3444 -1.5153  0.4538
  144MOL    H2137487   3.996   3.078   0.602  1.6059 -0.3545  1.3426
  144MOL    H2237488   3.978   3.306   0.739  2.1833  1.7975  1.6359
  144MOL    H2337489   4.314   3.426   0.819 -0.3503 -1.0135  0.1472
  144MOL    H2437490   4.260   3.299   0.920 -0.5371 -3.6693 -2.1552
  144MOL    H2537491   4.151   3.430   0.868 -1.1633  0.3466 -3.1917
  144MOL    H2637492   4.260   3.126   0.582  2.2079  0.6016 -2.1968
  144MOL    H2737493   4.365   3.176   0.713 -0.6249 -3.4334 -0.6584
  144MOL    C2837494   4.380   3.295   0.544 -0.3613  0.1583 -0.4591
  144MOL    C2937495   4.310   3.341   0.419  0.2939  0.5133  0.6122
  144MOL    C3037496   4.365   3.402   0.312 -0.6923  0.0521  0.6151
  144MOL    C3137497   4.285   3.455   0.195  0.0225 -1.0197 -0.7656
  144MOL    C3237498   4.511   3.440   0.306  0.3543 -0.2608 -0.6387
  144MOL    H3337499   4.467   3.239   0.508 -0.0328 -0.2177  0.8618
  144MOL    H3437500   4.424   3.379   0.597  1.0434 -1.3365  0.8032
  144MOL    H3537501   4.203   3.328   0.419  0.5730 -2.0311  1.7245
  144MOL    H3637502   4.316   3.398   0.108 -0.8757 -1.8442 -0.5458
  144MOL    H3737503   4.307   3.562   0.189  2.6004 -1.3052  2.2785
  144MOL    H3837504   4.178   3.437   0.200 -0.0538 -0.0918  1.7618
  144MOL    H3937505   4.556   3.418   0.403  1.2807  0.0728 -0.9800
  144MOL    H4037506   4.536   3.546   0.301  1.1252 -0.4556 -1.1512
  144MOL    C4137507   4.585   3.350   0.205 -0.1158 -0.1773  0.2102
  144MOL    C4237508   4.731   3.382   0.208 -0.0621 -0.0874 -0.5471
  144MOL    C4337509   4.809   3.403   0.102 -0.5506  0.0656 -0.1903
  144MOL    C4437510   4.955   3.431   0.113 -0.2560  0.0520 -0.0913
  144MOL    C4537511   4.744   3.410   7.846 -0.5166 -0.1139 -0.5345
  144MOL    H4637512   4.531   3.354   0.111 -0.4329 -4.0926  0.1605
  144MOL    H4737513   4.579   3.246   0.237 -0.2564 -1.0853 -2.6885
  144MOL    H4837514   4.784   3.386   0.303 -2.2046  1.8434  0.6064
  144MOL    H4937515   4.984   3.518   0.054 -0.2782  0.0244 -0.1427
  144MOL    H5037516   5.003   3.344   0.067 -1.3803 -0.6233 -0.0257
  144MOL    H5137517   4.994   3.438   0.214  0.0669 -1.0011 -0.1332
  144MOL    H5237518   4.692   3.314   7.840 -0.4063 -0.1607 -0.7432
  144MOL    H5337519   4.826   3.395   7.776 -0.8464 -0.9927 -0.7373
  144MOL    C5437520   4.683   3.545   7.820  0.1633  0.3417  1.4968
  144MOL    C5537521   4.611   3.538   7.689 -0.3621 -0.7156 -0.1188
  144MOL    C5637522   4.657   3.577   7.567  0.0727 -0.2996 -0.2048
  144MOL    C5737523   4.582   3.536   7.442 -0.7005 -0.1032  0.2325
  144MOL    C5837524   4.789   3.656   7.549  1.2019 -0.5966 -0.1617
  144MOL    H5937525   4.760   3.623   7.826 -0.9931  1.7435 -0.8164
  144MOL    H6037526   4.614   3.581   0.017  1.0673  0.0651  2.4587
  144MOL    H6137527   4.521   3.477   7.687 -2.3909  2.1712  0.2346
  144MOL    H6237528   4.655   3.475   7.390  0.1098 -0.1840  1.4298
  144MOL    H6337529   4.569   3.625   7.381 -1.8749  0.0995  0.7598
  144MOL    H6437530   4.489   3.482   7.458  0.1764 -1.4331  0.9317
  144MOL    H6537531   4.865   3.589   7.510  3.2033  0.8321  1.2013
  144MOL    H6637532   4.832   3.692   7.643 -0.4856 -1.3445  0.9242
  144MOL    C6737533   4.793   3.762   7.441  0.6218  0.3804  0.6796
  144MOL    C6837534   4.926   3.836   7.435 -0.7369  0.5336  0.5465
  144MOL    C6937535   5.031   3.813   7.352  0.4828  0.0906 -0.0040
  144MOL    C7037536   5.158   3.893   7.368  0.3165 -0.3863  0.4625
  144MOL    C7137537   5.029   3.709   7.241 -0.2599  0.0545 -0.1327
  144MOL    H7237538   4.717   3.840   7.449 -1.1067 -1.1122 -0.7861
  144MOL    H7337539   4.771   3.712   7.347  0.7937 -2.4374  2.0769
  144MOL    H7437540   4.941   3.914   7.509  0.6574 -2.5127  3.6385
  144MOL    H7537541   5.186   3.924   7.268 -3.2552 -0.0874 -0.5058
  144MOL    H7637542   5.238   3.834   7.413  1.5534 -0.2591 -1.5418
  144MOL    H7737543   5.153   3.984   7.428  0.3714 -1.3449  1.9564
  144MOL    H7837544   4.948   3.643   7.273  0.1229  0.4859  1.7766
  144MOL    H7937545   5.118   3.646   7.242  0.0426  0.4430 -1.1269
  144MOL    C8037546   4.992   3.776   7.100 -0.4619  0.5064 -0.5521
  144MOL    C8137547   4.941   3.665   7.012 -0.3426  0.6849 -0.5073
  144MOL    C8237548   4.841   3.681   6.920  0.0311 -0.9414 -0.5845
  144MOL    C8337549   4.761   3.803   6.885  0.9091 -0.4941 -0.1806
  144MOL    C8437550   4.797   3.564   6.830 -0.3152 -0.3912 -0.3399
  144MOL    H8537551   5.077   3.833   7.061 -0.9230  1.7303  0.1907
  144MOL    H8637552   4.918   3.854   7.116 -1.3862 -1.0824  3.7569
  144MOL    H8737553   5.010   3.584   7.027 -0.8211  0.3980  0.1850
  144MOL    H8837554   4.666   3.798   6.939  0.1488 -1.1871 -1.5626
  144MOL    H8937555   4.756   3.813   6.777  0.9513  1.4575 -0.0243
  144MOL    H9037556   4.812   3.890   6.927 -0.4614 -0.9122  2.4428
  144MOL    H9137557   4.860   3.476   6.843  0.7174  0.4088  0.1297
  144MOL    H9237558   4.797   3.590   6.725  2.6624 -0.5119 -0.4191
  144MOL    C9337559   4.654   3.508   6.861 -1.0807 -0.1104  0.1219
  144MOL    C9437560   4.626   3.375   6.789 -0.0803  0.5528  0.3249
  144MOL    C9537561   4.632   3.252   6.847 -0.6408 -0.7903 -0.0518
  144MOL    C9637562   4.620   3.125   6.750 -0.1320 -0.0422 -0.2623
  144MOL    C9737563   4.657   3.215   6.989 -0.6266  0.1770  0.1320
  144MOL    H9837564   4.589   3.589   6.827  0.0286 -0.2556 -2.3980
  144MOL    H9937565   4.644   3.494   6.969 -2.5046 -0.9068 -0.0952
  144MOL   H10037566   4.617   3.386   6.682  2.4761 -0.8537 -0.0594
  144MOL   H10137567   4.615   3.159   6.646 -0.2188  0.1212 -0.2047
  144MOL   H10237568   4.717   3.076   6.760  0.3859  0.7180 -1.3383
  144MOL   H10337569   4.533   3.065   6.776 -0.4110 -0.0433 -1.1812
  144MOL   H10437570   4.595   3.131   7.021 -0.2590 -0.5686 -1.0825
  144MOL   H10537571   4.626   3.297   7.054 -0.1900  1.5005 -1.3121
  144MOL   C10637572   4.805   3.185   7.015 -0.7052  0.8064 -0.2381
  144MOL   C10737573   4.861   3.174   7.161 -0.4798 -0.1858 -0.8914
  144MOL   C10837574   4.983   3.208   7.208 -0.1821 -0.8605 -0.2035
  144MOL   C10937575   5.078   3.280   7.116 -0.1711  0.4503  0.0688
  144MOL   C11037576   5.022   3.185   7.354  0.7427 -0.3226  0.5633
  144MOL   H11137577   4.866   3.263   6.969  1.0720  0.9438  2.2586
  144MOL   H11237578   4.830   3.095   6.958  0.8080  1.6921 -1.0142
  144MOL   H11337579   4.791   3.132   7.232 -0.5951 -0.5958 -1.2453
  144MOL   H11437580   5.169   3.309   7.168  0.8339 -0.6879 -1.0225
  144MOL   H11537581   5.118   3.218   7.036  1.3534 -2.3613  2.8718
  144MOL   H11637582   5.036   3.377   7.089 -1.4407 -0.3078 -0.7397
  144MOL   H11737583   5.113   3.125   7.360  2.4741  2.2761  1.5571
  144MOL   H11837584   4.940   3.135   7.405 -0.1374  0.2744 -0.2446
  144MOL   C11937585   5.058   3.315   7.430  0.0211 -0.2118  0.1264
  144MOL   C12037586   5.103   3.300   7.573  0.1278 -0.1718  0.7075
  144MOL   C12137587   5.193   3.388   7.627  0.2711 -0.3734  0.3083
  144MOL   C12237588   5.259   3.372   7.765 -0.1593 -0.3202 -0.1729
  144MOL   C12337589   5.246   3.513   7.555 -0.4850 -0.6871 -0.0283
  144MOL   H12437590   4.975   3.386   7.421 -1.3474 -1.9123 -1.1687
  144MOL   H12537591   5.146   3.355   7.380  0.0048  1.6497  1.5107
  144MOL   H12637592   5.059   3.219   7.629  0.8255 -1.5957 -0.7855
  144MOL   H12737593   5.361   3.334   7.766 -0.6166 -1.5820 -0.2369
  144MOL   H12837594   5.201   3.296   7.817  2.8804 -2.9335 -0.4667
  144MOL   H12937595   5.248   3.465   7.822 -1.0755 -0.0313 -0.8131
  144MOL   H13037596   5.249   3.596   7.625 -0.7167  0.0506 -0.8894
  144MOL   H13137597   5.174   3.543   7.480 -0.8912 -0.9415  0.2604
  144MOL   C13237598   5.393   3.500   7.488 -0.3911  0.2212 -0.8791
  144MOL   C13337599   5.442   3.625   7.420 -0.4445 -0.7588  0.0150
  144MOL   C13437600   5.537   3.712   7.449 -0.3427  0.4676 -0.4203
  144MOL   C13537601   5.569   3.822   7.350  0.0277  0.0988 -0.3565
  144MOL   C13637602   5.611   3.706   7.574 -0.4201 -0.0183 -0.0480
  144MOL   H13737603   5.390   3.423   7.410  0.3855  0.6580 -1.3458
  144MOL   H13837604   5.465   3.458   7.558 -1.8981 -2.8073 -1.0440
  144MOL   H13937605   5.403   3.629   7.319 -0.7448  0.3234  0.1702
  144MOL   H14037606   5.539   3.798   7.248  0.7656 -0.1158 -0.5210
  144MOL   H14137607   5.672   3.856   7.344  0.1520  0.2158  1.9665
  144MOL   H14237608   5.502   3.906   7.371  0.6874 -0.1612  3.0396
  144MOL   H14337609   5.719   3.719   7.561 -0.7161  2.6870  0.0911
  144MOL   H14437610   5.606   3.607   7.619 -1.7757  0.0325 -0.0719
  144MOL   C14537611   5.559   3.801   7.681 -0.5439 -0.6624  0.8440
  144MOL   C14637612   5.560   3.951   7.634  0.7997 -0.6117 -0.3359
  144MOL   C14737613   5.451   4.036   7.655  0.1548  0.2654  0.2697
  144MOL   C14837614   5.476   4.181   7.646 -0.5421  0.2967  0.4361
  144MOL   C14937615   5.310   4.002   7.694 -0.0782 -0.1947  0.5561
  144MOL   H15037616   5.620   3.802   7.771  0.3184 -1.9853  0.2903
  144MOL   H15137617   5.456   3.774   7.705 -0.7032  1.2950  2.4282
  144MOL   H15237618   5.661   3.982   7.610  1.2562 -1.3593  0.5792
  144MOL   H15337619   5.480   4.230   7.743  0.0307  0.2608  0.4347
  144MOL   H15437620   5.421   4.241   7.574 -2.0932 -3.4726 -1.6505
  144MOL   H15537621   5.580   4.197   7.616  0.1976 -1.7798  1.8435
  144MOL   H15637622   5.283   3.900   7.665  2.0731 -0.8873  0.9233
  144MOL   H15737623   5.252   4.069   7.631 -0.3867 -1.3743 -0.4391
  144MOL   C15837624   5.270   4.020   7.839  0.6675 -0.5751 -0.2149
  144MOL   C15937625   5.125   3.963   7.865  0.1474 -0.7002  0.3056
  144MOL   C16037626   5.086   3.849   0.047  0.2969 -0.6729  0.2120
  144MOL   C16137627   5.179   3.739   0.086  0.6414 -0.4702  0.5679
  144MOL   C16237628   4.941   3.819   0.049 -0.0306 -0.5938 -0.1016
  144MOL   H16337629   5.269   4.126   7.863  0.5696 -0.5402 -0.3718
  144MOL   H16437630   5.347   3.969   0.017  0.6206 -0.6167 -0.1881
  144MOL   H16537631   5.050   4.035   7.838  1.7078  0.5088 -0.9347
  144MOL   H16637632   5.154   3.732   0.192  0.9019  0.8462  0.7264
  144MOL   H16737633   5.286   3.762   0.081  0.8572 -1.8836 -2.5119
  144MOL   H16837634   5.157   3.643   0.040  1.0779  0.2683 -1.2349
  144MOL   H16937635   4.924   3.715   0.020  1.3717 -1.4896  2.1322
  144MOL   H17037636   4.889   3.877   7.852  1.2671 -2.8912 -2.8276
  144MOL   C17137637   4.880   3.850   0.192 -1.0079  1.0592 -0.1487
  144MOL   C17237638   4.729   3.838   0.198 -0.8157 -0.3857 -0.7631
  144MOL   C17337639   4.649   3.939   0.237 -0.5415 -0.0770 -0.2744
  144MOL   C17437640   4.701   4.076   0.263  0.3902 -0.2098  0.0972
  144MOL   C17537641   4.499   3.924   0.232  0.1392  0.5181 -0.1824
  144MOL   H17637642   4.921   3.947   0.220 -0.2930  1.0589 -1.1921
  144MOL   H17737643   4.891   3.780   0.275 -0.0416 -0.1967 -1.3227
  144MOL   H17837644   4.678   3.747   0.169 -3.1991  0.5648  0.3704
  144MOL   H17937645   4.620   4.147   0.274  2.2427  1.7120  1.8740
  144MOL   H18037646   4.748   4.106   0.170 -0.5442 -1.8494 -0.9302
  144MOL   H18137647   4.762   4.076   0.354 -1.6724  0.8115  1.5148
  144MOL   H18237648   4.472   3.826   0.193  0.9736  0.3655 -0.3706
  144MOL   H18337649   4.462   3.978   0.144  0.4197 -0.9115 -1.1928
  144MOL   C18437650   4.429   3.945   0.366  0.6331  0.7633 -0.6109
  144MOL   C18537651   4.477   3.841   0.469 -0.2064 -0.9425 -0.0438
  144MOL   C18637652   4.405   3.808   0.574 -0.4458  0.3674 -0.3067
  144MOL   C18737653   4.446   3.688   0.652  0.1335 -0.3921  0.1761
  144MOL   C18837654   4.270   3.870   0.608  0.1023  0.4677  0.2110
  144MOL   H18937655   4.321   3.933   0.359  0.8533 -1.2427 -0.8402
  144MOL   H19037656   4.433   4.048   0.401 -0.8765  0.9487 -0.9396
  144MOL   H19137657   4.564   3.784   0.441 -0.5837 -1.6047  0.1226
  144MOL   H19237658   4.382   3.605   0.623  1.4897 -1.0525 -1.0110
  144MOL   H19337659   4.435   3.722   0.755  2.3136  1.1132 -0.0541
  144MOL   H19437660   4.549   3.656   0.634 -0.0673 -0.3919 -0.9716
  144MOL   H19537661   4.273   3.974   0.575 -1.0891  0.5005  0.1960
  144MOL   H19637662   4.249   3.879   0.715  1.7290 -1.0113  0.6825
  144MOL   C19737663   4.156   3.792   0.542  0.4265 -0.1868 -0.2695
  144MOL   C19837664   4.029   3.859   0.563  0.6236 -0.3844 -0.3316
  144MOL   C19937665   3.929   3.827   0.644  0.5131 -0.3206  0.6385
  144MOL   C20037666   3.801   3.914   0.646 -0.1195  0.7774  0.4310
  144MOL   C20137667   3.915   3.708   0.739  0.5309 -0.4310  0.0927
  144MOL   H20237668   4.158   3.692   0.584  0.2078 -0.6894 -1.4372
  144MOL   H20337669   4.171   3.777   0.435  1.5680  0.9132 -0.2729
  144MOL   H20437670   4.018   3.945   0.498  0.4263  0.9467  1.4215
  144MOL   H20537671   3.811   3.990   0.569  1.0631  0.0758 -0.1252
  144MOL   H20637672   3.778   3.948   0.747  1.9052 -2.1264  1.9280
  144MOL   H20737673   3.717   3.855   0.607 -1.3991  1.3610  2.2130
  144MOL   H20837674   4.000   3.641   0.735  0.7748 -0.0164 -1.9108
  144MOL   H20937675   3.831   3.646   0.709  1.2528 -1.2380 -0.2661
  144MOL   C21037676   3.895   3.745   0.886 -0.0243 -0.3276  0.0881
  144MOL   C21137677   3.918   3.623   0.978 -0.7769 -0.3939 -0.3155
  144MOL   C21237678   4.021   3.619   1.063  0.5555  0.4937 -0.1164
  144MOL   C21337679   4.058   3.496   1.141  0.6867 -0.0874 -0.6787
  144MOL   C21437680   4.102   3.745   1.096  0.0836 -1.0925 -0.2952
  144MOL   H21537681   3.795   3.789   0.891  0.1525  0.1289 -0.3969
  144MOL   H21637682   3.965   3.828   0.899  0.1283 -0.7283  2.0246
  144MOL   H21737683   3.863   3.531   0.962  0.4399 -1.2715  0.4234
  144MOL   H21837684   4.165   3.481   1.126  0.4322 -0.0698 -2.5620
  144MOL   H21937685   4.007   3.411   1.095  2.1108 -0.1428 -2.1895
  144MOL   H22037686   4.033   3.510   1.246 -0.1555  1.0300 -1.0308
  144MOL   H22137687   4.129   3.742   1.202  0.4589  0.0190 -0.3552
  144MOL   H22237688   4.054   3.841   1.081  1.5868 -0.1623  0.7138
  144MOL   C22337689   4.232   3.740   1.015 -0.6079 -0.2244  0.0475
  144MOL   C22437690   4.300   3.868   1.065 -0.2355 -0.3836 -0.4237
  144MOL   C22537691   4.405   3.873   1.147 -0.7963  0.3040  0.1416
  144MOL   C22637692   4.453   4.005   1.197  0.2968  0.1343  0.1820
  144MOL   C22737693   4.483   3.753   1.192 -0.5991  0.1713  0.0208
  144MOL   H22837694   4.219   3.763   0.909  0.7746  1.6388  0.2450
  144MOL   H22937695   4.291   3.649   1.026 -0.9206 -0.1192  3.1800
  144MOL   H23037696   4.248   3.959   1.041 -0.4741  0.0245  1.5292
  144MOL   H23137697   4.445   4.010   1.305  1.5883  1.0815  0.2551
  144MOL   H23237698   4.398   4.088   1.152  1.4860  0.4968 -0.6509
  144MOL   H23337699   4.560   4.010   1.175  0.1087  2.5832 -0.2943
  144MOL   H23437700   4.419   3.669   1.221 -0.8068  0.8816  1.6519
  144MOL   H23537701   4.534   3.775   1.285  0.7902 -0.7352 -0.5120
  144MOL   C23637702   4.602   3.733   1.093 -0.3493 -0.0242 -0.3745
  144MOL   C23737703   4.695   3.618   1.131 -0.4756 -0.1600 -0.3161
  144MOL   C23837704   4.721   3.506   1.064 -0.0903 -0.6415  1.0131
  144MOL   C23937705   4.817   3.413   1.117 -0.0233 -0.8993  0.0344
  144MOL   C24037706   4.675   3.473   0.925  0.0084 -0.1553  0.6601
  144MOL   H24137707   4.661   3.821   1.067 -0.6150 -0.0068 -0.9239
  144MOL   H24237708   4.561   3.712   0.995  1.0912 -0.2374 -0.9501
  144MOL   H24337709   4.742   3.618   1.229  1.2593  1.6206 -1.1172
  144MOL   H24437710   4.918   3.451   1.102 -0.5494  0.0825 -1.0854
  144MOL   H24537711   4.809   3.308   1.088  0.7657 -0.6806 -1.0180
  144MOL   H24637712   4.803   3.409   1.225 -0.0148  0.5286  0.0917
  144MOL   H24737713   4.585   3.527   0.898  1.4109  1.1695 -1.5652
  144MOL   H24837714   4.641   3.369   0.933 -0.4221 -0.1303 -0.6631
  144MOL   C24937715   4.779   3.464   0.805  0.3342  0.7586 -0.3563
  144MOL   C25037716   4.828   3.600   0.767 -0.7256  1.1092  1.1392
  144MOL   C25137717   4.826   3.663   0.640 -0.0648  0.0962  0.3026
  144MOL   C25237718   4.860   3.811   0.630 -0.3715 -0.4441  0.7843
  144MOL   C25337719   4.803   3.591   0.512 -0.6964  0.0422  0.2613
  144MOL   H25437720   4.723   3.418   0.725 -0.4292  1.7521 -0.4024
  144MOL   H25537721   4.857   3.394   0.836 -1.4263  0.0078  2.5665
  144MOL   H25637722   4.843   3.676   0.842 -0.7483  3.9183 -1.5977
  144MOL   H25737723   4.777   3.861   0.580  0.4692  0.0139 -0.1842
  144MOL   H25837724   4.959   3.822   0.585 -0.4574 -1.0029  0.4518
  144MOL   H25937725   4.867   3.855   0.730  0.3515  1.5234 -0.0952
  144MOL   H26037726   4.718   3.631   0.457 -1.4049 -0.7910  0.7655
  144MOL   H26137727   4.775   3.489   0.537 -0.1681 -0.1963 -0.0936
  144MOL   H26237728   4.880   3.583   0.435 -0.8791 -0.5397  0.1363
  145MOL     C137729   5.287   7.585   3.129 -0.3947 -0.0459 -1.0487
  145MOL     C237730   5.402   7.617   3.226 -0.5001  0.0072  0.0391
  145MOL     C337731   5.403   7.597   3.359 -0.2842 -0.2531  0.5551
  145MOL     C437732   5.528   7.616   3.433  0.6449  1.0048 -0.0127
  145MOL     C537733   5.281   7.535   3.425 -0.0110 -0.9645 -0.5724
  145MOL     H637734   5.265   7.479   3.117 -1.9947  0.2666 -0.8825
  145MOL     H737735   5.192   7.626   3.161  0.1583  0.3326  0.1178
  145MOL     H837736   5.496   7.642   3.178  0.1088 -0.2341  1.0996
  145MOL     H937737   5.572   7.526   3.475 -2.6339 -0.4607  0.4300
  145MOL    H1037738   5.510   7.673   3.525 -2.3831 -0.7623  0.5671
  145MOL    H1137739   5.600   7.680   3.383 -1.5635  1.6661 -2.4575
  145MOL    H1237740   5.297   7.455   3.497  0.3615 -0.3386  0.0436
  145MOL    H1337741   5.206   7.500   3.355 -0.1205 -0.4490 -0.7136
  145MOL    H1437742   5.304   7.616   3.026  1.0394  1.1761 -0.4549
  145MOL    C1537743   5.209   7.644   3.504  0.4521  0.1011  0.1695
  145MOL    C1637744   5.078   7.600   3.573 -0.8805 -0.0630 -0.1847
  145MOL    C1737745   5.057   7.603   3.708 -0.2414 -0.1324  0.4455
  145MOL    C1837746   4.916   7.579   3.761 -0.4120 -0.0550 -0.6234
  145MOL    C1937747   5.147   7.654   3.822 -0.8313  0.2950 -0.1845
  145MOL    H2037748   5.188   7.720   3.429  1.7430  1.7580  1.4655
  145MOL    H2137749   5.266   7.699   3.579  0.3970  1.1291 -0.5275
  145MOL    H2237750   4.997   7.554   3.518 -1.2345  2.4019 -1.7896
  145MOL    H2337751   4.916   7.509   3.844  1.5297  0.5611 -0.0911
  145MOL    H2437752   4.850   7.533   3.687  0.6154  1.0040 -2.2513
  145MOL    H2537753   4.860   7.669   3.787 -1.0640 -0.7450  0.3735
  145MOL    H2637754   5.252   7.636   3.800 -0.9028  1.5543 -1.6942
  145MOL    H2737755   5.131   7.605   3.918  2.1486 -3.4134 -1.4733
  145MOL    C2837756   5.133   7.810   3.837 -0.4769 -0.2256  0.6768
  145MOL    C2937757   5.207   7.866   3.953 -0.2413  0.9075 -0.0056
  145MOL    C3037758   5.253   0.113   3.968  0.2845 -0.3487  0.2327
  145MOL    C3137759   5.329   0.152   4.092  0.4817 -0.1832  0.1594
  145MOL    C3237760   5.238   0.222   3.855  0.0068  0.0709  0.0728
  145MOL    H3337761   5.031   7.844   3.854 -0.5134 -0.5369  1.0829
  145MOL    H3437762   5.165   7.857   3.744 -0.1050 -1.4073  0.2030
  145MOL    H3537763   5.218   7.799   4.037  1.3396  4.2537  2.5641
  145MOL    H3637764   5.335   0.071   4.165 -2.8229  0.1157  0.8056
  145MOL    H3737765   5.274   0.228   4.147 -1.8178 -1.2044 -0.6954
  145MOL    H3837766   5.433   0.184   4.082  0.2923  0.9718  1.7315
  145MOL    H3937767   5.224   0.174   3.758 -2.2700  0.6229  0.0982
  145MOL    H4037768   5.332   0.276   3.861  0.5663 -0.9109  0.0995
  145MOL    C4137769   5.141   0.335   3.893  0.4388  0.5411 -0.3461
  145MOL    C4237770   5.136   0.449   3.790 -0.1489  0.6801 -0.6023
  145MOL    C4337771   5.130   0.581   3.820  0.2900 -0.4236  0.2339
  145MOL    C4437772   5.124   0.680   3.709 -0.1306  0.0171 -0.8862
  145MOL    C4537773   5.129   0.643   3.965  0.0862 -0.2473 -0.2744
  145MOL    H4637774   5.169   0.375   3.991 -2.7507  1.3434  0.2816
  145MOL    H4737775   5.041   0.294   3.900  1.0925 -1.2127 -1.1967
  145MOL    H4837776   5.133   0.423   3.685  2.6926  0.1987 -0.6015
  145MOL    H4937777   5.129   0.626   3.614  2.9814 -0.3869 -0.5623
  145MOL    H5037778   5.207   0.751   3.708  0.5781 -0.7756  0.4692
  145MOL    H5137779   5.038   0.742   3.733  0.0728 -1.4471  3.9960
  145MOL    H5237780   5.081   0.583   4.042 -0.1557 -0.0724 -0.2881
  145MOL    H5337781   5.049   0.717   3.953  0.9821  0.5425 -1.4739
  145MOL    C5437782   5.259   0.708   4.011  0.4882  0.2379 -0.1246
  145MOL    C5537783   5.348   0.618   4.093 -0.3140 -0.8414 -0.6817
  145MOL    C5637784   5.469   0.572   4.058  0.2593 -0.0404  0.0148
  145MOL    C5737785   5.541   0.483   4.159  0.2151 -0.1329  0.8139
  145MOL    C5837786   5.543   0.625   3.934  0.1307 -0.3045  0.1443
  145MOL    H5937787   5.240   0.808   4.050  1.9196  0.0482  1.1199
  145MOL    H6037788   5.314   0.729   3.920  0.8728 -1.1208 -0.2278
  145MOL    H6137789   5.301   0.592   4.187  0.1214  0.1379 -0.1883
  145MOL    H6237790   5.569   0.540   4.247  0.3050  0.9823  0.0750
  145MOL    H6337791   5.625   0.442   4.104 -1.9490  0.3523 -3.0307
  145MOL    H6437792   5.471   0.406   4.191 -2.4875  0.7646 -2.5373
  145MOL    H6537793   5.651   0.641   3.938 -0.0760  0.8217  1.3804
  145MOL    H6637794   5.505   0.720   3.896 -0.1821 -0.8429 -0.8982
  145MOL    C6737795   5.535   0.525   3.818  0.3446 -0.2518  0.3756
  145MOL    C6837796   5.631   0.570   3.704 -0.1493 -0.3451 -0.4665
  145MOL    C6937797   5.606   0.589   3.575 -0.4007  0.1261 -0.1918
  145MOL    C7037798   5.724   0.603   3.481  0.0014  0.4891 -0.2693
  145MOL    C7137799   5.477   0.564   3.510  0.5315 -1.0819 -0.6730
  145MOL    H7237800   5.435   0.529   3.775  1.7669  0.0154 -3.1315
  145MOL    H7337801   5.549   0.426   3.860 -0.7989 -0.5972 -0.0518
  145MOL    H7437802   5.731   0.580   3.745  0.4327 -2.9234 -1.1671
  145MOL    H7537803   5.792   0.677   3.523 -0.7525  0.6366  0.7169
  145MOL    H7637804   5.708   0.646   3.382 -1.0456 -0.7744 -0.6590
  145MOL    H7737805   5.765   0.505   3.462  1.5116  1.3674 -1.6691
  145MOL    H7837806   5.478   0.599   3.407 -0.5088  1.0859  0.0164
  145MOL    H7937807   5.406   0.628   3.563 -0.4620 -0.4745 -2.6873
  145MOL    C8037808   5.446   0.413   3.518 -0.1881 -0.2953 -0.1975
  145MOL    C8137809   5.322   0.365   3.455  0.1230 -0.4247  0.5473
  145MOL    C8237810   5.282   0.235   3.462 -0.0985  0.5189 -0.2189
  145MOL    C8337811   5.363   0.118   3.519  0.4860  0.1363 -0.2229
  145MOL    C8437812   5.162   0.190   3.388 -0.1286 -0.5859 -0.1600
  145MOL    H8537813   5.429   0.380   3.620 -1.4850  0.8771 -0.0071
  145MOL    H8637814   5.523   0.361   3.462 -1.9097  0.2559 -3.1673
  145MOL    H8737815   5.270   0.442   3.399  2.8449  2.1132  1.3984
  145MOL    H8837816   5.384   0.048   3.438 -0.8077 -1.0165  0.4116
  145MOL    H8937817   5.304   0.070   3.597  3.1063 -0.9651  1.1455
  145MOL    H9037818   5.456   0.151   3.565  0.8086  0.1164 -0.8514
  145MOL    H9137819   5.184   0.112   3.315  0.6355  1.4594 -2.1882
  145MOL    H9237820   5.131   0.280   3.334 -0.2933  1.2319  2.8562
  145MOL    C9337821   5.047   0.145   3.477 -0.6820  0.3440  0.4368
  145MOL    C9437822   4.915   0.152   3.398  0.3258  0.3935 -0.5990
  145MOL    C9537823   4.798   0.157   3.449 -0.1864  0.1849  0.2181
  145MOL    C9637824   4.676   0.173   3.363  0.0375 -0.2732 -0.0997
  145MOL    C9737825   4.772   0.156   3.593 -0.3834  0.3683 -0.3094
  145MOL    H9837826   5.038   0.202   3.570 -0.0585  1.1571  0.0030
  145MOL    H9937827   5.071   0.043   3.505 -2.2126  0.2648  1.5174
  145MOL   H10037828   4.929   0.157   3.291 -1.9131  1.7783 -0.8508
  145MOL   H10137829   4.614   0.261   3.376  0.9682  0.2328  0.9521
  145MOL   H10237830   4.703   0.175   3.257  1.5033  0.0423  0.2738
  145MOL   H10337831   4.614   0.084   3.371 -0.0101 -0.3684 -1.3488
  145MOL   H10437832   4.862   0.111   3.636  0.3323  0.9535 -1.1954
  145MOL   H10537833   4.709   0.070   3.617 -0.0504 -0.0178 -0.8071
  145MOL   C10637834   4.742   0.294   3.663 -0.2789 -0.1244  0.9205
  145MOL   C10737835   4.758   0.295   3.814  0.0498  0.4109 -0.3251
  145MOL   C10837836   4.736   0.393   3.904  0.6897  0.1187 -0.6482
  145MOL   C10937837   4.704   0.534   3.860 -0.3168  0.3618  0.0369
  145MOL   C11037838   4.747   0.384   4.061 -0.4590 -0.3302 -0.5770
  145MOL   H11137839   4.638   0.322   3.643 -0.5118 -0.1373  2.0720
  145MOL   H11237840   4.807   0.374   3.629  0.5729 -2.0868 -2.3333
  145MOL   H11337841   4.783   0.198   3.855  0.3297 -0.3972 -2.3245
  145MOL   H11437842   4.776   0.606   3.897 -0.9798  0.1183  1.8428
  145MOL   H11537843   4.687   0.559   3.755  2.3163  4.2104  0.4374
  145MOL   H11637844   4.609   0.564   3.903 -1.1522 -4.6925  2.1365
  145MOL   H11737845   4.815   0.461   4.097  2.3670 -1.6227 -2.9561
  145MOL   H11837846   4.792   0.291   4.097 -1.9493 -0.3658  1.3311
  145MOL   C11937847   4.606   0.401   4.126  0.0052  1.2756 -0.3018
  145MOL   C12037848   4.606   0.375   4.278 -0.0047  0.1203 -0.0230
  145MOL   C12137849   4.555   0.263   4.330  0.1087 -0.2836  0.0915
  145MOL   C12237850   4.566   0.249   4.484 -0.3797 -0.4749 -0.9710
  145MOL   C12337851   4.473   0.151   4.260 -0.0716  0.1138 -0.8441
  145MOL   H12437852   4.527   0.356   4.065  0.1611 -1.0586  1.1590
  145MOL   H12537853   4.579   0.505   4.112  1.4404  1.3515 -2.7417
  145MOL   H12637854   4.656   0.444   4.345  1.4902 -0.8911 -0.0660
  145MOL   H12737855   4.508   0.328   4.532 -0.1550 -0.0514 -1.3884
  145MOL   H12837856   4.669   0.251   4.520  0.3115 -0.8518 -2.9114
  145MOL   H12937857   4.525   0.151   4.509 -0.4588 -0.3004 -0.3989
  145MOL   H13037858   4.514   0.051   4.274  0.7687  0.6647  0.7664
  145MOL   H13137859   4.474   0.180   4.155  1.0667 -0.5483 -1.0245
  145MOL   C13237860   4.328   0.140   4.313 -0.5758  0.1357  0.3788
  145MOL   C13337861   4.260   0.033   4.229  0.3212  0.0026  0.1984
  145MOL   C13437862   4.146   0.039   4.154 -0.1982 -0.4479 -0.3535
  145MOL   C13537863   4.105   7.792   4.075 -0.1720 -0.8302 -0.9955
  145MOL   C13637864   4.063   0.163   4.129 -0.0311  0.8473  0.0941
  145MOL   H13737865   4.294   0.241   4.292  0.6523  0.4804  0.0054
  145MOL   H13837866   4.330   0.104   4.416  0.1261  2.7639  1.3033
  145MOL   H13937867   4.309   7.817   4.244  1.5005  0.4333 -0.8828
  145MOL   H14037868   4.152   7.701   4.112  2.3199  0.9420  0.3682
  145MOL   H14137869   4.139   7.792   3.971  3.4897 -2.1851  0.1035
  145MOL   H14237870   3.998   7.774   4.071 -0.3375 -0.2602  0.5934
  145MOL   H14337871   4.033   0.155   4.024 -0.5484 -1.9492  0.4182
  145MOL   H14437872   4.124   0.254   4.130 -1.8827  2.1278 -0.0986
  145MOL   C14537873   3.948   0.185   4.224  0.4315  0.1228 -0.3436
  145MOL   C14637874   3.839   0.077   4.225  0.9752 -0.0404 -0.0438
  145MOL   C14737875   3.739   0.061   4.139 -0.0792  0.6060  0.2098
  145MOL   C14837876   3.639   7.827   4.159 -0.4718 -0.1136 -0.4741
  145MOL   C14937877   3.705   0.154   4.024  0.3748  0.5174 -0.5409
  145MOL   H15037878   3.898   0.279   4.203 -0.1292  0.0221  0.5155
  145MOL   H15137879   3.982   0.178   4.328 -0.1706  1.9712 -0.0029
  145MOL   H15237880   3.841   0.008   4.308 -0.9732 -0.3998 -0.2793
  145MOL   H15337881   3.570   7.818   4.075 -1.1131 -0.0361  0.0404
  145MOL   H15437882   3.586   7.848   4.251 -2.0897 -1.3135 -1.0988
  145MOL   H15537883   3.694   7.732   4.156  0.1463  0.2651 -1.9812
  145MOL   H15637884   3.684   0.092   3.937  0.1696  0.1340 -0.2240
  145MOL   H15737885   3.790   0.212   3.990 -1.6017  2.5479 -2.1713
  145MOL   C15837886   3.586   0.248   4.057 -0.4562  0.2832 -0.4637
  145MOL   C15937887   3.626   0.357   4.173  0.3680 -0.1640 -0.0653
  145MOL   C16037888   3.694   0.469   4.161 -0.6757  0.5110 -0.0221
  145MOL   C16137889   3.727   0.522   4.024  0.2144 -0.1985  0.4619
  145MOL   C16237890   3.738   0.543   4.285  0.1508  0.0348  0.5699
  145MOL   H16337891   3.500   0.192   4.096 -2.3410  0.8815 -3.5401
  145MOL   H16437892   3.544   0.309   3.977  0.3007 -0.3404 -1.3479
  145MOL   H16537893   3.602   0.319   4.271 -1.6679  0.6139 -0.2320
  145MOL   H16637894   3.732   0.441   3.950 -0.6139  0.1175  0.0515
  145MOL   H16737895   3.821   0.577   4.024 -0.6628  1.3322  0.0874
  145MOL   H16837896   3.653   0.592   3.985  1.0035 -0.2051 -1.1031
  145MOL   H16937897   3.847   0.536   4.285  0.2679  1.4116 -1.2634
  145MOL   H17037898   3.695   0.501   4.376  0.5773 -1.9203 -0.1081
  145MOL   C17137899   3.707   0.690   4.289  0.7498 -0.2571 -0.4350
  145MOL   C17237900   3.560   0.715   4.303  0.8879 -0.3257  0.0268
  145MOL   C17337901   3.495   0.802   4.389  0.6908 -0.0844 -0.1265
  145MOL   C17437902   3.556   0.901   4.485  0.2358  0.2627 -0.5791
  145MOL   C17537903   3.341   0.819   4.372  0.8190 -0.4310  0.1784
  145MOL   H17637904   3.744   0.740   4.199 -0.1292 -3.3224 -2.5756
  145MOL   H17737905   3.750   0.740   4.375 -1.1005  2.1223 -0.8372
  145MOL   H17837906   3.506   0.661   4.227 -0.4043 -2.6576  2.5055
  145MOL   H17937907   3.489   0.914   4.569 -0.0578  0.5128 -0.8508
  145MOL   H18037908   3.563   0.999   4.439 -1.3726  1.8240  2.3955
  145MOL   H18137909   3.658   0.870   4.505 -0.7852 -1.1836  2.7569
  145MOL   H18237910   3.297   0.824   4.471 -1.2521  0.8377 -0.7566
  145MOL   H18337911   3.301   0.731   4.321  0.2040 -0.3773  0.5604
  145MOL   C18437912   3.301   0.938   4.288 -0.2655 -0.4239  0.2037
  145MOL   C18537913   3.159   0.962   4.305  0.2454 -0.2272  0.5085
  145MOL   C18637914   3.101   1.061   4.239 -0.4564  0.3036 -0.0056
  145MOL   C18737915   2.951   1.089   4.250  0.8924 -0.4296 -0.0286
  145MOL   C18837916   3.171   1.176   4.163 -0.1159  0.4681  0.2091
  145MOL   H18937917   3.319   0.905   4.185 -2.3976 -1.0733  0.0120
  145MOL   H19037918   3.368   1.020   4.311 -1.0025 -0.4318  2.5085
  145MOL   H19137919   3.092   0.895   4.357 -1.9079  0.0615 -1.7879
  145MOL   H19237920   2.933   1.195   4.269  2.5805 -0.2131  0.3856
  145MOL   H19337921   2.906   1.035   4.334  1.5761 -1.1034 -0.0840
  145MOL   H19437922   2.897   1.069   4.157 -0.6510 -1.0462  0.9651
  145MOL   H19537923   3.277   1.187   4.186  0.0315 -2.4149  1.0796
  145MOL   H19637924   3.129   1.269   4.204  0.4585  1.2562 -0.9715
  145MOL   C19737925   3.143   1.178   4.014  0.3431  0.4961 -0.4424
  145MOL   C19837926   3.173   1.307   3.943  0.3320 -0.7707 -0.1735
  145MOL   C19937927   3.230   1.320   3.826  0.7287  0.6326 -0.0023
  145MOL   C20037928   3.239   1.451   3.745  0.3417 -0.6238  0.4201
  145MOL   C20137929   3.249   1.198   3.736  0.4091 -0.1869 -0.5662
  145MOL   H20237930   3.036   1.166   3.995  0.2374 -0.0566  0.4937
  145MOL   H20337931   3.196   1.089   3.980  1.2269  0.3527  1.2747
  145MOL   H20437932   3.148   1.397   3.997 -0.2276 -0.1818 -1.4199
  145MOL   H20537933   3.329   1.484   3.693 -0.3262  0.6624  0.0616
  145MOL   H20637934   3.222   1.534   3.814  0.6786  0.3746 -0.6759
  145MOL   H20737935   3.161   1.445   3.669 -0.1678 -0.9362  0.9675
  145MOL   H20837936   3.218   1.213   3.632  0.0395 -0.8545 -0.5514
  145MOL   H20937937   3.185   1.117   3.771 -0.2844  0.2512 -0.7963
  145MOL   C21037938   3.389   1.136   3.734 -0.8060 -0.6399  0.4037
  145MOL   C21137939   3.419   1.034   3.633 -0.5543 -0.0732  0.0173
  145MOL   C21237940   3.384   0.904   3.634  0.6562  1.0423 -0.0468
  145MOL   C21337941   3.431   0.810   3.522  0.0799  0.6776  0.8556
  145MOL   C21437942   3.307   0.838   3.745  0.1604  0.7052 -0.0743
  145MOL   H21537943   3.413   1.094   3.832  0.1845 -0.4315  0.2583
  145MOL   H21637944   3.460   1.219   3.721  1.2777 -1.9448  2.9044
  145MOL   H21737945   3.479   1.057   3.546 -0.1414  1.6036  0.7292
  145MOL   H21837946   3.465   0.711   3.554  2.7886  1.6205  1.0638
  145MOL   H21937947   3.522   0.856   3.483  0.3117  1.2209  2.0068
  145MOL   H22037948   3.353   0.794   3.447 -0.3020  1.8887  0.9871
  145MOL   H22137949   3.233   0.776   3.693 -0.6959 -0.4024  2.3824
  145MOL   H22237950   3.259   0.904   3.817 -0.9540  0.3856 -0.5135
  145MOL   C22337951   3.396   0.744   3.831  0.2169 -0.2012  0.5476
  145MOL   C22437952   3.318   0.697   3.948 -0.1690 -0.8481 -0.4901
  145MOL   C22537953   3.270   0.571   3.964 -0.2697  0.8506  0.7241
  145MOL   C22637954   3.196   0.536   4.095 -0.7890  0.2194 -0.0192
  145MOL   C22737955   3.265   0.454   3.861  0.2484 -0.1506  0.3349
  145MOL   H22837956   3.467   0.812   3.878 -0.6401  0.9431  0.2284
  145MOL   H22937957   3.454   0.666   3.782  0.2419 -0.7376  1.4259
  145MOL   H23037958   3.308   0.767   4.030 -0.3091 -0.1079 -1.1372
  145MOL   H23137959   3.218   0.432   4.117  1.7249  0.4837 -1.1488
  145MOL   H23237960   3.089   0.551   4.081 -0.6743  3.2246  1.8317
  145MOL   H23337961   3.227   0.595   4.181  0.5480  0.4005 -0.6117
  145MOL   H23437962   3.328   0.374   3.900 -0.8528 -0.9852  0.4206
  145MOL   H23537963   3.309   0.482   3.766  1.3014  1.4445  1.2678
  145MOL   C23637964   3.124   0.397   3.830  0.2528  0.2661  0.4517
  145MOL   C23737965   3.034   0.495   3.769 -1.1954  0.0955  0.0853
  145MOL   C23837966   3.017   0.523   3.641  0.5355  0.1120  0.0812
  145MOL   C23937967   2.933   0.641   3.597 -0.0496 -0.3826 -0.3972
  145MOL   C24037968   3.090   0.462   3.524 -0.3243 -0.1251  0.3406
  145MOL   H24137969   3.079   0.346   3.916  0.7312 -1.7265 -0.4567
  145MOL   H24237970   3.141   0.309   3.768 -2.7893 -0.6662  0.8424
  145MOL   H24337971   2.989   0.562   3.841  1.5285  2.6740 -0.5175
  145MOL   H24437972   2.985   0.737   3.589 -1.2453  0.2315 -0.9668
  145MOL   H24537973   2.846   0.654   3.661 -1.0616  1.0075 -2.0021
  145MOL   H24637974   2.887   0.619   3.500  1.2767  2.4205 -1.7241
  145MOL   H24737975   3.003   0.426   3.469  0.1763 -1.3678  0.3624
  145MOL   H24837976   3.142   0.368   3.542  1.3778  0.8008  0.2704
  145MOL   C24937977   3.172   0.560   3.447  0.0640 -0.3295 -0.4288
  145MOL   C25037978   3.259   0.501   3.333 -0.5034 -0.1201  0.6387
  145MOL   C25137979   3.363   0.423   3.346 -0.4975  1.0143  0.1148
  145MOL   C25237980   3.447   0.376   3.227 -0.2305 -0.1039  0.3045
  145MOL   C25337981   3.401   0.344   3.474 -0.0517 -0.0010 -0.1926
  145MOL   H25437982   3.242   0.606   3.516 -0.7277  1.4856 -0.7949
  145MOL   H25537983   3.111   0.644   3.412 -2.8835 -2.7568 -1.3560
  145MOL   H25637984   3.250   0.544   3.235 -1.6676 -1.0463  0.3212
  145MOL   H25737985   3.392   0.307   3.163 -1.0422  1.2327 -0.4719
  145MOL   H25837986   3.541   0.331   3.257 -0.6657 -1.7036 -0.6973
  145MOL   H25937987   3.466   0.456   3.156  0.7351 -2.1023 -1.7527
  145MOL   H26037988   3.510   0.350   3.483 -0.3285  2.3818  2.3594
  145MOL   H26137989   3.370   0.240   3.468  1.7911 -0.5222 -1.0054
  145MOL   H26237990   3.360   0.380   3.568  0.4600 -0.8395  0.3515
  146MOL     C137991   1.062   7.186   2.854  0.1358  0.2433 -0.0328
  146MOL     C237992   1.122   7.315   2.910  0.0872 -0.1586  0.1147
  146MOL     C337993   1.217   7.338   3.007  0.3752  0.0251 -0.4389
  146MOL     C437994   1.251   7.482   3.054 -0.3797  0.6054 -0.5128
  146MOL     C537995   1.276   7.224   3.097  0.2740  0.0682  0.2499
  146MOL     H637996   1.098   7.164   2.754 -0.4969  1.5899 -0.5681
  146MOL     H737997   1.103   7.102   2.910 -0.0613  1.0876  1.3775
  146MOL     H837998   1.084   7.407   2.869 -0.6576  0.1768  1.5319
  146MOL     H937999   1.214   7.552   2.979  0.7639  0.5861 -1.1093
  146MOL    H1038000   1.359   7.500   3.064 -0.7853  2.1510  1.2807
  146MOL    H1138001   1.198   7.512   3.144 -0.5914 -0.2759 -0.3357
  146MOL    H1238002   1.380   7.256   3.103  0.8223 -1.3591 -1.2457
  146MOL    H1338003   1.272   7.131   3.041 -1.3741  0.0979  0.3069
  146MOL    H1438004   0.953   7.178   2.863  0.0425  0.2347 -1.1312
  146MOL    C1538005   1.205   7.201   3.233  0.0464 -0.5325  0.3703
  146MOL    C1638006   1.064   7.152   3.217 -0.2214 -0.2915  0.5189
  146MOL    C1738007   0.941   7.215   3.242 -0.2510  0.7368  0.3251
  146MOL    C1838008   0.808   7.133   3.222 -0.2806 -0.2147 -0.1507
  146MOL    C1938009   0.929   7.361   3.287 -0.3368  0.4742  0.3751
  146MOL    H2038010   1.210   7.297   3.284  0.2841 -0.5100  0.3044
  146MOL    H2138011   1.255   7.120   3.287 -1.6140 -1.0067  1.2314
  146MOL    H2238012   1.058   7.047   3.193  0.4606 -0.3925  0.7757
  146MOL    H2338013   0.746   7.165   3.138  0.5069 -0.1650 -0.7195
  146MOL    H2438014   0.745   7.140   3.310  1.4386  1.7414  0.9848
  146MOL    H2538015   0.829   7.029   3.200 -2.4480 -0.4663 -1.1343
  146MOL    H2638016   0.844   7.404   3.234 -0.6256  0.1940  0.6097
  146MOL    H2738017   1.013   7.416   3.246 -1.3738 -0.3437 -3.0348
  146MOL    C2838018   0.920   7.389   3.441 -0.6894 -0.7351 -0.2456
  146MOL    C2938019   0.793   7.345   3.515 -0.1720  0.2958  0.9597
  146MOL    C3038020   0.700   7.428   3.573  0.9376 -1.0706  0.0501
  146MOL    C3138021   0.583   7.363   3.642 -0.1410 -0.1369 -0.0797
  146MOL    C3238022   0.691   7.581   3.556 -0.7482 -0.7499  0.1905
  146MOL    H3338023   0.938   7.496   3.453 -2.8793 -0.3987  0.2532
  146MOL    H3438024   1.001   7.337   3.493 -0.0685  0.1134 -0.3381
  146MOL    H3538025   0.783   7.238   3.519  1.5030  0.0516 -0.5084
  146MOL    H3638026   0.597   7.255   3.644 -0.7184 -0.2047  0.2910
  146MOL    H3738027   0.491   7.407   3.603  0.0020  0.5680  0.3616
  146MOL    H3838028   0.593   7.402   3.743  3.5110  0.0819 -0.4715
  146MOL    H3938029   0.597   7.594   3.501 -0.8841  1.1994  0.8194
  146MOL    H4038030   0.763   7.618   3.483  1.9246 -0.5990  2.7976
  146MOL    C4138031   0.702   7.668   3.684  1.0060  1.0534  0.4243
  146MOL    C4238032   0.828   7.638   3.755  0.5285  0.0335 -0.4408
  146MOL    C4338033   0.882   7.710   3.855 -0.3534 -0.2297 -0.9672
  146MOL    C4438034   1.004   7.652   3.927 -0.0229 -0.3771 -0.3548
  146MOL    C4538035   0.833   7.842   3.904 -0.0208 -0.0984  0.0077
  146MOL    H4638036   0.635   7.624   3.758  2.1074  1.1950  1.5101
  146MOL    H4738037   0.685   7.775   3.667 -0.7857  0.6555 -0.4531
  146MOL    H4838038   0.876   7.542   3.737  2.1961  0.9462 -0.9858
  146MOL    H4938039   1.035   7.553   3.894  1.9387 -0.0587  0.4744
  146MOL    H5038040   0.998   7.644   4.035 -2.4894 -1.0230 -0.5027
  146MOL    H5138041   1.083   7.723   3.902  0.8252 -1.4631 -0.7826
  146MOL    H5238042   0.803   7.832   4.008  2.3990 -2.8665  0.5228
  146MOL    H5338043   0.740   7.867   3.854  0.6889  0.6570 -0.9411
  146MOL    C5438044   0.941   0.074   3.891 -0.1002  0.3969 -0.5490
  146MOL    C5538045   0.987   0.105   3.751 -0.8529 -0.4906 -0.1095
  146MOL    C5638046   1.110   0.160   3.721 -0.2778 -0.8804 -0.0914
  146MOL    C5738047   1.137   0.206   3.576 -0.7869  0.6234  0.4291
  146MOL    C5838048   1.217   0.203   3.826  0.2990  0.1886 -0.0060
  146MOL    H5938049   1.020   0.057   3.964  1.0402 -1.8712 -2.2290
  146MOL    H6038050   0.890   0.159   3.937 -3.8505 -2.0294 -0.0458
  146MOL    H6138051   0.917   0.079   3.673 -0.0371 -0.1013 -0.9957
  146MOL    H6238052   1.237   0.176   3.548 -1.2700 -0.0059 -0.6594
  146MOL    H6338053   1.135   0.315   3.574  0.2499  0.6322 -0.2837
  146MOL    H6438054   1.067   0.165   3.503  0.8764 -1.0675 -0.2280
  146MOL    H6538055   1.302   0.137   3.811  0.1113  0.2385 -1.4201
  146MOL    H6638056   1.190   0.188   3.930 -0.3846  1.6111  0.0265
  146MOL    C6738057   1.265   0.346   3.821  0.4601  0.6365  0.0884
  146MOL    C6838058   1.349   0.382   3.944 -0.5177  0.7211 -0.6011
  146MOL    C6938059   1.338   0.490   4.020 -0.1056  0.3699 -0.1854
  146MOL    C7038060   1.415   0.510   4.151 -0.0874 -0.2623  0.0196
  146MOL    C7138061   1.258   0.612   3.968  0.0577  0.5516 -0.1803
  146MOL    H7238062   1.173   0.405   3.813  0.3095  0.1301 -2.2920
  146MOL    H7338063   1.315   0.349   3.723  0.1136 -0.5769 -0.1313
  146MOL    H7438064   1.423   0.308   3.970  1.1559  1.8372 -2.0765
  146MOL    H7538065   1.342   0.490   4.230  0.0912 -1.3867 -0.0954
  146MOL    H7638066   1.465   0.607   4.150 -1.1804  0.3371  1.5099
  146MOL    H7738067   1.497   0.439   4.157 -0.8693 -1.2351 -0.7105
  146MOL    H7838068   1.227   0.596   3.865 -0.1817  0.3082 -0.0692
  146MOL    H7938069   1.324   0.698   3.963  2.1097 -1.1036 -2.4741
  146MOL    C8038070   1.132   0.643   4.058  0.5816 -0.5686 -0.8648
  146MOL    C8138071   1.057   0.764   3.997 -0.2979  0.2588 -0.3905
  146MOL    C8238072   0.985   0.854   4.072 -0.8490  0.2909  0.3569
  146MOL    C8338073   0.983   0.855   4.222 -0.1918  0.2071 -1.0941
  146MOL    C8438074   0.894   0.960   4.012 -0.1288  0.0611  0.4313
  146MOL    H8538075   1.155   0.652   4.164 -1.1470 -1.8716 -0.3575
  146MOL    H8638076   1.069   0.555   4.059 -1.1160  0.6268  1.6322
  146MOL    H8738077   1.042   0.769   3.891  0.3551 -0.4397 -0.5226
  146MOL    H8838078   0.995   0.755   4.264  0.0348  0.9037  0.5366
  146MOL    H8938079   0.887   0.888   4.263 -0.9428 -3.9624  0.7300
  146MOL    H9038080   1.051   0.932   4.258 -0.8055  0.2074  0.0785
  146MOL    H9138081   0.792   0.934   4.041 -0.4605  0.3305 -0.4824
  146MOL    H9238082   0.892   0.944   3.904  3.1162  1.1508  0.1507
  146MOL    C9338083   0.938   1.102   4.047  0.1763 -0.0277 -0.5129
  146MOL    C9438084   0.831   1.204   4.019  0.0549 -1.0490 -0.8355
  146MOL    C9538085   0.813   1.322   4.087 -0.7805  0.5237 -0.0142
  146MOL    C9638086   0.693   1.403   4.054 -0.5978 -0.1844 -0.1241
  146MOL    C9738087   0.902   1.375   4.201  0.3913 -0.2007  0.1442
  146MOL    H9838088   1.032   1.140   4.008  0.8997 -0.6919  0.5367
  146MOL    H9938089   0.953   1.104   4.155  0.7665 -0.2668 -0.5902
  146MOL   H10038090   0.766   1.181   3.936 -0.4159 -4.9754  0.4851
  146MOL   H10138091   0.615   1.378   4.126  0.1812 -1.1734  0.3842
  146MOL   H10238092   0.697   1.512   4.047  1.0026 -0.3025 -1.1600
  146MOL   H10338093   0.655   1.364   3.960  0.6399  0.2366 -0.8093
  146MOL   H10438094   0.928   1.480   4.186 -0.0455 -0.3134 -1.4037
  146MOL   H10538095   0.993   1.314   4.200  1.1456  0.9044 -1.7859
  146MOL   C10638096   0.826   1.376   4.340  0.4659 -0.1834  0.1202
  146MOL   C10738097   0.790   1.238   4.397  0.7428 -0.9898 -0.5742
  146MOL   C10838098   0.819   1.191   4.520 -0.6665  0.0710 -0.1711
  146MOL   C10938099   0.884   1.274   4.632  0.2368 -0.2064  0.2083
  146MOL   C11038100   0.792   1.049   4.561  0.5474  0.1287  0.7116
  146MOL   H11138101   0.731   1.430   4.339  1.6643  2.0028 -0.7067
  146MOL   H11238102   0.885   1.428   4.416 -0.3654  1.6044 -0.4135
  146MOL   H11338103   0.730   1.182   4.327 -2.5284 -0.1404  1.4577
  146MOL   H11438104   0.961   1.215   4.683  2.3574  1.1720 -1.3170
  146MOL   H11538105   0.914   1.374   4.598 -4.9498  1.6291  0.6493
  146MOL   H11638106   0.809   1.304   4.705 -0.0474 -2.2346  0.7823
  146MOL   H11738107   0.726   1.007   4.486  1.1857 -0.6113  0.5520
  146MOL   H11838108   0.725   1.062   4.646 -0.6162 -2.2192  0.1800
  146MOL   C11938109   0.915   0.958   4.594 -0.2948  0.2413 -0.9633
  146MOL   C12038110   0.889   0.804   4.589 -0.3227 -0.1390 -0.6360
  146MOL   C12138111   0.983   0.709   4.575 -0.5036  0.0963  0.1316
  146MOL   C12238112   0.942   0.562   4.558 -0.1553 -0.3542 -0.4531
  146MOL   C12338113   1.132   0.733   4.607 -0.1704  0.1684 -0.1761
  146MOL   H12438114   0.967   0.975   4.688 -1.2079 -0.2975 -0.3531
  146MOL   H12538115   0.991   0.973   4.518 -0.0334  0.3365 -0.6832
  146MOL   H12638116   0.785   0.776   4.585 -0.5712  0.3704  1.7387
  146MOL   H12738117   0.944   0.498   4.646  0.4729  0.9192  0.4702
  146MOL   H12838118   0.976   0.504   4.472  0.1065 -2.8054  1.2559
  146MOL   H12938119   0.836   0.565   4.531  0.5500 -1.0466 -3.5096
  146MOL   H13038120   1.166   0.664   4.684  0.9526  0.9130  0.0145
  146MOL   H13138121   1.148   0.829   4.657 -0.2555  0.8024 -1.3555
  146MOL   C13238122   1.222   0.714   4.478  0.5369  0.7092 -0.1862
  146MOL   C13338123   1.368   0.754   4.508 -0.3660 -0.2939  0.4393
  146MOL   C13438124   1.452   0.836   4.431  0.4504  0.5485 -0.3745
  146MOL   C13538125   1.595   0.887   4.466  0.4227  0.1212  0.6435
  146MOL   C13638126   1.416   0.884   4.293 -0.7872  1.2923 -0.3762
  146MOL   H13738127   1.179   0.772   4.397 -2.2794 -0.6599  0.2857
  146MOL   H13838128   1.228   0.612   4.440  0.9848  0.9539 -0.7845
  146MOL   H13938129   1.409   0.720   4.602  1.8193  2.9411  0.7368
  146MOL   H14038130   1.674   0.844   4.404 -1.6201 -2.5931 -0.1686
  146MOL   H14138131   1.620   0.858   4.568  0.0708  1.1935  1.0443
  146MOL   H14238132   1.582   0.995   4.452  1.5475  0.0357 -1.3689
  146MOL   H14338133   1.362   0.806   4.240  1.3033 -0.0301 -0.6316
  146MOL   H14438134   1.506   0.884   4.231 -1.4454  0.7081 -1.3250
  146MOL   C14538135   1.341   1.017   4.293  0.0398 -0.6630  0.5282
  146MOL   C14638136   1.324   1.038   4.144 -0.2342  0.1377 -0.0477
  146MOL   C14738137   1.354   1.150   4.076  0.1687  0.3309  0.2615
  146MOL   C14838138   1.331   1.156   3.922  0.1672  0.2198  0.6898
  146MOL   C14938139   1.408   1.272   4.132  0.1777  0.5263 -0.0379
  146MOL   H15038140   1.398   1.093   4.347 -1.2195  0.3422  0.4648
  146MOL   H15138141   1.246   1.008   4.345 -0.3539 -0.1967 -0.0976
  146MOL   H15238142   1.281   0.954   4.092  0.8931 -1.0482  0.9277
  146MOL   H15338143   1.422   1.158   3.863  0.6574 -2.1761  1.3379
  146MOL   H15438144   1.261   1.234   3.893 -1.5626 -1.1897  1.0349
  146MOL   H15538145   1.283   1.063   3.893  1.3080 -0.1930  0.1101
  146MOL   H15638146   1.473   1.313   4.055 -0.1595  1.7050  0.2916
  146MOL   H15738147   1.464   1.250   4.224  1.0496  0.0174 -0.6850
  146MOL   C15838148   1.293   1.376   4.154  1.0356 -0.7505 -0.1891
  146MOL   C15938149   1.336   1.512   4.190 -0.9212 -0.0649 -0.2291
  146MOL   C16038150   1.295   1.602   4.286 -0.1423  0.8382 -0.2369
  146MOL   C16138151   1.173   1.585   4.372  0.4326 -0.2916 -0.0492
  146MOL   C16238152   1.359   1.739   4.299 -0.1083  0.0381  0.4316
  146MOL   H16338153   1.222   1.338   4.227 -1.3669  2.0234 -1.0149
  146MOL   H16438154   1.228   1.369   4.068  0.4242  1.8302  0.0246
  146MOL   H16538155   1.420   1.543   4.130  0.6779 -3.9526 -0.1586
  146MOL   H16638156   1.182   1.604   4.479 -1.8120  0.9107 -0.0437
  146MOL   H16738157   1.138   1.483   4.355 -1.6720  0.6552 -1.5777
  146MOL   H16838158   1.088   1.641   4.334  0.8786 -0.0632 -0.7278
  146MOL   H16938159   1.341   1.760   4.404  0.7326 -2.4063  1.0910
  146MOL   H17038160   1.311   1.813   4.234  1.4775  1.5088  0.8986
  146MOL   C17138161   1.514   1.752   4.283 -0.2059  0.0474 -0.1305
  146MOL   C17238162   1.587   1.656   4.375 -0.1698  0.3605 -0.1198
  146MOL   C17338163   1.676   1.558   4.343 -0.1480  0.1055 -0.2911
  146MOL   C17438164   1.725   1.522   4.202  1.4468  0.2299 -0.2944
  146MOL   C17538165   1.741   1.488   4.469 -0.1580 -0.6751  0.4855
  146MOL   H17638166   1.550   1.852   4.311 -4.4491  1.5541  0.2888
  146MOL   H17738167   1.553   1.731   4.184 -0.5455  1.2240 -0.5169
  146MOL   H17838168   1.559   1.670   4.479 -2.6882  0.0062 -0.7169
  146MOL   H17938169   1.650   1.541   4.126  1.5386 -0.1134 -0.4737
  146MOL   H18038170   1.742   1.414   4.211  1.3766  0.3486  1.5876
  146MOL   H18138171   1.811   1.574   4.159  1.9213 -0.2661  0.0310
  146MOL   H18238172   1.728   1.558   4.552 -1.7234  2.5351 -2.3203
  146MOL   H18338173   1.848   1.475   4.454  0.3404 -0.0133  3.2136
  146MOL   C18438174   1.675   1.357   4.507  0.3722  0.2618  0.0310
  146MOL   C18538175   1.522   1.347   4.489 -0.5388 -0.3643  0.3984
  146MOL   C18638176   1.442   1.263   4.561  0.2896 -0.0156  0.0322
  146MOL   C18738177   1.292   1.275   4.554 -0.0732 -0.3034  0.8001
  146MOL   C18838178   1.492   1.173   4.669 -0.7554 -0.2605  0.3301
  146MOL   H18938179   1.700   1.331   4.610 -1.7346 -1.5899  0.1324
  146MOL   H19038180   1.707   1.277   4.440 -1.0323  1.4152 -2.0866
  146MOL   H19138181   1.477   1.420   4.424  1.2319  2.1164  1.8642
  146MOL   H19238182   1.243   1.178   4.553 -1.3954  0.3529 -0.2176
  146MOL   H19338183   1.272   1.313   4.454  0.2025  2.0746  1.6192
  146MOL   H19438184   1.237   1.335   4.627  2.3895  0.4291  2.1097
  146MOL   H19538185   1.597   1.145   4.661 -0.6837 -0.2365  1.1577
  146MOL   H19638186   1.426   1.087   4.671 -0.8791 -0.1867 -0.3432
  146MOL   C19738187   1.473   1.240   4.811  0.2523 -0.1512 -0.5116
  146MOL   C19838188   1.520   1.148   4.924 -0.7983 -0.1666  0.3187
  146MOL   C19938189   1.590   1.190   5.035 -0.6564  0.4753  0.5235
  146MOL   C20038190   1.629   1.092   5.144  0.5143 -0.7975 -0.1059
  146MOL   C20138191   1.642   1.330   5.051  0.8345 -0.5774  0.5013
  146MOL   H20238192   1.369   1.259   4.836  0.0204  0.4798 -1.9066
  146MOL   H20338193   1.532   1.331   4.815  2.4531 -1.6561  3.1089
  146MOL   H20438194   1.480   1.049   4.910 -0.0305 -0.5086  0.5223
  146MOL   H20538195   1.580   0.995   5.138 -2.2125  0.4137  1.3089
  146MOL   H20638196   1.611   1.120   5.248  0.4106 -0.0694 -0.3197
  146MOL   H20738197   1.735   1.069   5.143  0.3707 -1.4467 -0.4956
  146MOL   H20838198   1.656   1.362   5.155 -1.1722  0.0543  0.6004
  146MOL   H20938199   1.564   1.395   5.011  2.1894 -0.4337 -1.9854
  146MOL   C21038200   1.778   1.351   4.972 -0.5157 -0.0825 -0.0862
  146MOL   C21138201   1.813   1.499   4.972 -0.6160  1.4817  0.3500
  146MOL   C21238202   1.931   1.544   4.935 -0.0921 -0.0032  0.3071
  146MOL   C21338203   1.956   1.693   4.951 -0.0943  0.2219  0.0230
  146MOL   C21438204   2.041   1.456   4.885  0.9661 -0.7579  0.5372
  146MOL   H21538205   1.777   1.318   4.868  1.9400  3.7613 -1.4108
  146MOL   H21638206   1.851   1.290   5.026  1.0135  1.8786  0.1153
  146MOL   H21738207   1.737   1.570   4.999 -1.2845  1.4947 -1.5639
  146MOL   H21838208   1.870   1.745   4.994 -1.5578 -2.0260 -0.1004
  146MOL   H21938209   1.985   1.732   4.853 -0.9427  1.7901  0.3857
  146MOL   H22038210   2.037   1.708   5.023 -1.1439 -1.3287  1.5746
  146MOL   H22138211   2.081   1.496   4.791 -0.6882  1.6720  0.8345
  146MOL   H22238212   2.018   1.355   4.851  0.1642 -0.2141 -0.5694
  146MOL   C22338213   2.157   1.461   4.984 -0.3113  0.2964  0.3034
  146MOL   C22438214   2.279   1.379   4.939 -0.5742 -0.9830 -0.1733
  146MOL   C22538215   2.354   1.294   5.019  0.1684  0.2725  0.4591
  146MOL   C22638216   2.479   1.223   4.970 -0.7883 -0.3653  0.3243
  146MOL   C22738217   2.328   1.275   5.167  0.0777 -0.2470 -0.3893
  146MOL   H22838218   2.116   1.439   5.083 -2.0381 -0.9102 -0.6429
  146MOL   H22938219   2.188   1.565   4.984 -0.7930  0.4495  1.5450
  146MOL   H23038220   2.307   1.378   4.834  1.4503  0.6867  0.3150
  146MOL   H23138221   2.464   1.117   4.993 -0.7773 -0.3237  0.5302
  146MOL   H23238222   2.570   1.258   5.019 -0.1196 -0.9336 -0.5033
  146MOL   H23338223   2.485   1.245   4.864  0.0986 -1.5622  0.1084
  146MOL   H23438224   2.293   1.366   5.215  0.3431 -0.2352 -0.2165
  146MOL   H23538225   2.425   1.249   5.211  1.3612  0.0654 -2.9811
  146MOL   C23638226   2.238   1.157   5.187 -0.4032 -0.2405 -0.6879
  146MOL   C23738227   2.204   1.150   5.337 -0.7884  0.2765  0.2384
  146MOL   C23838228   2.094   1.097   5.388  0.8411  0.0720 -1.1330
  146MOL   C23938229   2.077   1.091   5.540 -0.4854 -0.0677  0.6791
  146MOL   C24038230   1.972   1.046   5.307 -0.3850 -0.3999  0.2054
  146MOL   H24138231   2.289   1.067   5.152 -1.3001 -1.7344  1.7078
  146MOL   H24238232   2.151   1.164   5.122  0.7374 -3.1837 -2.6395
  146MOL   H24338233   2.285   1.174   5.404 -0.9491 -1.8384  1.2300
  146MOL   H24438234   1.994   1.156   5.565  2.2612  4.0951 -0.5247
  146MOL   H24538235   2.169   1.137   5.577  0.2028  0.6790 -1.8548
  146MOL   H24638236   2.074   0.986   5.569 -0.0393  0.1826  1.6613
  146MOL   H24738237   1.990   1.085   5.206  2.5595  0.5988  1.0658
  146MOL   H24838238   1.887   1.096   5.352  0.8038  2.4365 -0.6123
  146MOL   C24938239   1.954   0.892   5.306 -0.6358  0.7957 -0.5478
  146MOL   C25038240   2.075   0.830   5.234 -0.3571  0.5129  0.2241
  146MOL   C25138241   2.082   0.711   5.169  0.1456 -0.3372 -0.7295
  146MOL   C25238242   2.211   0.668   5.103  0.2202 -0.3983 -0.5290
  146MOL   C25338243   1.959   0.615   5.162 -0.0434  0.3501  0.7538
  146MOL   H25438244   1.862   0.864   5.255  0.5157 -2.3154 -1.0455
  146MOL   H25538245   1.951   0.854   5.408 -1.0291  1.3525 -0.3510
  146MOL   H25638246   2.168   0.879   5.260  0.2727 -1.2246  1.3105
  146MOL   H25738247   2.289   0.744   5.115  0.4084 -0.4933 -1.1227
  146MOL   H25838248   2.191   0.659   4.997 -0.0977  0.0027 -0.5040
  146MOL   H25938249   2.245   0.568   5.131  1.0007 -0.0759 -0.3041
  146MOL   H26038250   1.930   0.611   5.057 -0.3702  2.1299  0.7494
  146MOL   H26138251   1.877   0.643   5.228  0.3670 -1.1034  1.9030
  146MOL   H26238252   1.984   0.514   5.194 -0.8156  0.1697  0.8026
  147MOL     C138253   7.030   4.648   4.007 -0.8880  0.0338  0.4057
  147MOL     C238254   6.945   4.600   3.891  0.0793 -0.2811  0.0244
  147MOL     C338255   6.863   4.668   3.805 -0.2477 -0.1750 -0.5259
  147MOL     C438256   6.774   4.586   3.711  0.2993  0.8353  0.7606
  147MOL     C538257   6.855   4.825   3.788  0.0809 -0.6878 -1.0409
  147MOL     H638258   6.990   4.599   4.096  1.0753  0.1813  1.4019
  147MOL     H738259   7.129   4.606   3.992 -1.0556 -0.8333  1.6014
  147MOL     H838260   6.947   4.492   3.888  2.5667 -0.3209  2.0356
  147MOL     H938261   6.827   4.492   3.697 -1.3857  0.1577 -1.3301
  147MOL    H1038262   6.771   4.639   3.616 -0.6966 -0.5277  0.0190
  147MOL    H1138263   6.681   4.579   3.769  1.2384  2.5254  2.5255
  147MOL    H1238264   6.915   4.869   3.867 -2.1079  1.1943 -0.3950
  147MOL    H1338265   6.753   4.854   3.813  0.1708 -0.2444 -1.1805
  147MOL    H1438266   7.029   4.756   4.023 -0.2401  0.2896 -1.1694
  147MOL    C1538267   6.895   4.883   3.657  0.0266 -0.6024  0.1485
  147MOL    C1638268   6.884   5.036   3.658  1.0999  0.5996 -0.4450
  147MOL    C1738269   6.936   5.119   3.573  0.4108  0.4334  0.2387
  147MOL    C1838270   6.902   5.261   3.572 -0.3384  0.7280 -0.0465
  147MOL    C1938271   7.030   5.079   3.462 -0.0459  0.0557 -0.0945
  147MOL    H2038272   6.820   4.852   3.584  1.6643 -0.4612 -1.6396
  147MOL    H2138273   6.994   4.852   3.624 -0.0964  0.6577 -1.4606
  147MOL    H2238274   6.802   5.069   3.721  0.8804 -1.3693  0.3439
  147MOL    H2338275   6.851   5.286   3.479  0.0739  2.3006  0.1348
  147MOL    H2438276   6.992   5.321   3.585  0.8257 -0.5120 -2.1108
  147MOL    H2538277   6.832   5.277   3.654 -2.9324 -0.7009 -1.9064
  147MOL    H2638278   7.006   5.135   3.371  1.8460  0.2694 -0.4775
  147MOL    H2738279   7.023   4.973   3.437  2.2664 -0.0003 -0.6149
  147MOL    C2838280   7.172   5.114   3.482 -1.0856  0.4252  0.3053
  147MOL    C2938281   7.246   5.084   3.351 -0.1741 -0.1676 -0.3392
  147MOL    C3038282   7.370   5.130   3.319  0.3455 -0.4382  0.1202
  147MOL    C3138283   7.435   5.126   3.174 -0.8777  0.4189 -0.1046
  147MOL    C3238284   7.454   5.202   3.424  0.1523 -0.8329  0.6306
  147MOL    H3338285   7.214   5.061   3.568 -1.9408 -0.9251 -0.1103
  147MOL    H3438286   7.185   5.222   3.491  0.2668  0.4127 -1.2492
  147MOL    H3538287   7.185   5.059   3.266 -2.5456  2.4322  0.5146
  147MOL    H3638288   7.375   5.066   3.105 -0.5360  0.3036 -0.3067
  147MOL    H3738289   7.534   5.081   3.178 -1.0095  0.2020  0.9851
  147MOL    H3838290   7.428   5.218   3.117  1.0400  0.7185  0.1260
  147MOL    H3938291   7.538   5.137   3.446  0.1413 -0.1901  2.6469
  147MOL    H4038292   7.404   5.228   3.518 -0.7217  2.4443 -0.6427
  147MOL    C4138293   7.522   5.335   3.381 -0.8138  0.3062  0.0692
  147MOL    C4238294   7.437   5.461   3.332 -0.0029 -0.0925 -0.4208
  147MOL    C4338295   7.457   5.539   3.223  0.0450 -0.2629 -0.6474
  147MOL    C4438296   7.392   5.676   3.194  0.3969  0.1133  0.5112
  147MOL    C4538297   7.570   5.519   3.121  0.1845 -0.1097 -0.2637
  147MOL    H4638298   7.586   5.305   3.299 -0.7004  0.4913  0.0894
  147MOL    H4738299   7.591   5.366   3.459  0.0623  0.7460 -0.8767
  147MOL    H4838300   7.354   5.485   3.397 -1.1951 -3.2444 -0.7094
  147MOL    H4938301   7.451   5.764   3.222 -0.1813  0.5983  0.2041
  147MOL    H5038302   7.293   5.692   3.238  0.0757 -1.3229  0.3147
  147MOL    H5138303   7.361   5.691   3.091 -3.3629 -0.3083  1.5056
  147MOL    H5238304   7.533   5.543   3.021  1.9806 -1.7601 -1.3553
  147MOL    H5338305   7.593   5.413   3.117 -1.4903 -0.4897 -0.2731
  147MOL    C5438306   7.697   5.613   3.149  0.5881 -0.0701  0.4230
  147MOL    C5538307   7.729   5.626   3.295 -0.9960 -0.2597 -0.0329
  147MOL    C5638308   7.847   5.599   3.356 -0.3368 -0.1725 -0.2784
  147MOL    C5738309   7.869   5.649   3.497 -0.2036  0.1542  0.8781
  147MOL    C5838310   0.095   5.551   3.284 -0.0119  0.3273  0.3800
  147MOL    H5938311   7.689   5.708   3.097  1.4294 -1.3072 -2.0642
  147MOL    H6038312   7.785   5.571   3.100  0.4561  0.8058 -0.5805
  147MOL    H6138313   7.656   5.680   3.354  0.5758  0.3507  1.4234
  147MOL    H6238314   7.845   5.562   3.559 -0.7537  0.1575  0.6758
  147MOL    H6338315   7.801   5.732   3.519 -0.9407 -0.3396  0.5063
  147MOL    H6438316   0.091   5.686   3.512  0.4126 -1.9365  2.0851
  147MOL    H6538317   0.169   5.630   3.275 -0.4691  0.8266  1.0030
  147MOL    H6638318   0.072   5.529   3.180 -0.2054  0.2179  0.4445
  147MOL    C6738319   0.150   5.419   3.347  0.2151  0.5647  0.3345
  147MOL    C6838320   0.080   5.296   3.291 -0.5175  0.8235 -0.5327
  147MOL    C6938321   0.034   5.192   3.359  0.6928  0.5682 -0.3268
  147MOL    C7038322   7.840   5.088   3.284 -0.2493 -0.6259 -0.5786
  147MOL    C7138323   0.059   5.163   3.500  0.1676  0.4350 -0.0922
  147MOL    H7238324   0.140   5.417   3.456  1.2078 -1.2560  0.4311
  147MOL    H7338325   0.256   5.414   3.324  0.0457  0.7597 -0.4772
  147MOL    H7438326   0.066   5.297   3.183 -0.3306 -1.0859 -0.5864
  147MOL    H7538327   7.738   5.088   3.321  0.9876 -1.5207  3.0997
  147MOL    H7638328   0.006   4.988   3.284 -1.1834 -1.0687  0.9644
  147MOL    H7738329   7.837   5.128   3.183  2.0023 -1.5491 -1.0487
  147MOL    H7838330   0.152   5.205   3.539  1.2171 -1.0262 -1.0027
  147MOL    H7938331   0.083   5.057   3.502 -1.2900  0.0954 -0.1499
  147MOL    C8038332   7.819   5.211   3.581  0.1997 -0.5644  0.4715
  147MOL    C8138333   7.848   5.193   3.729  0.2916 -0.0887 -0.6366
  147MOL    C8238334   7.766   5.137   3.821 -0.6338  0.0994  0.3529
  147MOL    C8338335   7.641   5.064   3.773  0.3549 -0.1761 -0.5118
  147MOL    C8438336   7.800   5.143   3.973 -0.1802  0.4187 -0.4536
  147MOL    H8538337   7.735   5.151   3.548 -1.0603  2.0113 -1.1680
  147MOL    H8638338   7.792   5.314   3.558  2.2351 -0.0388  0.3136
  147MOL    H8738339   0.056   5.245   3.765 -0.2055  1.2630 -1.3696
  147MOL    H8838340   7.670   4.982   3.706 -1.4147  0.2450 -1.8313
  147MOL    H8938341   7.566   5.125   3.723  0.1164  0.5751  0.7371
  147MOL    H9038342   7.603   5.010   3.860 -0.5164 -0.7409 -1.2224
  147MOL    H9138343   0.010   5.206   3.981  0.2718 -0.2059 -0.5200
  147MOL    H9238344   7.836   5.042   3.995  0.1446 -0.0389 -2.9026
  147MOL    C9338345   7.692   5.176   4.077  0.4860  0.1381  0.4877
  147MOL    C9438346   7.738   5.268   4.188  0.3017 -0.3245 -0.0934
  147MOL    C9538347   7.764   5.231   4.311 -0.3746  0.7150  0.7466
  147MOL    C9638348   7.805   5.328   4.418  0.0282  0.3502 -0.6696
  147MOL    C9738349   7.759   5.090   4.368 -0.3891 -0.2262 -0.1973
  147MOL    H9838350   7.645   5.089   4.123 -0.9849  1.7780  2.2282
  147MOL    H9938351   7.604   5.210   4.022 -0.8768 -1.1696  1.7977
  147MOL   H10038352   7.741   5.373   4.164 -1.2294 -0.3165 -0.3207
  147MOL   H10138353   7.827   5.424   4.371  2.3815  0.8904  1.4293
  147MOL   H10238354   7.724   5.323   4.490 -0.6005  2.6471 -1.1814
  147MOL   H10338355   0.013   5.284   4.467 -1.2932 -1.9946 -0.3530
  147MOL   H10438356   7.849   5.074   4.427  0.7347  0.8906 -1.5665
  147MOL   H10538357   7.771   5.025   4.282  1.5780 -0.9360  0.5912
  147MOL   C10638358   7.632   5.049   4.445  0.1770 -0.0470 -0.3145
  147MOL   C10738359   7.631   4.903   4.491  0.0032  0.2883 -0.2351
  147MOL   C10838360   7.646   4.858   4.615 -0.6946  0.2586  0.0834
  147MOL   C10938361   7.684   4.952   4.724 -0.3634  0.1914  0.1041
  147MOL   C11038362   7.614   4.709   4.650  0.1709 -0.3966  0.5267
  147MOL   H11138363   7.539   5.069   4.390  0.2176  2.0527  0.3359
  147MOL   H11238364   7.620   5.118   4.529  0.8002  1.3373 -1.3303
  147MOL   H11338365   7.610   4.831   4.414 -0.8417 -0.3422  0.5685
  147MOL   H11438366   7.635   5.049   4.716 -2.6941 -0.9998 -0.4091
  147MOL   H11538367   7.655   4.916   4.823  2.3314  0.3071  0.9849
  147MOL   H11638368   7.791   4.972   4.715 -0.7939  1.6260 -2.0452
  147MOL   H11738369   7.701   4.664   4.698  1.0332  0.3344 -0.3441
  147MOL   H11838370   7.594   4.640   4.568  1.6530 -2.2061  1.6417
  147MOL   C11938371   7.500   4.697   4.753 -0.3086  0.5728 -0.7780
  147MOL   C12038372   7.482   4.551   4.785 -0.2545 -0.5741  0.7035
  147MOL   C12138373   7.361   4.503   4.832  0.1999 -0.0252 -0.0236
  147MOL   C12238374   7.353   4.345   4.857  0.3096 -0.4704 -0.3238
  147MOL   C12338375   7.247   4.588   4.883  0.1963  0.4849 -0.6152
  147MOL   H12438376   7.401   4.732   4.726 -1.5289 -1.5916  0.7810
  147MOL   H12538377   7.537   4.733   4.848  0.6210 -2.1888 -0.0483
  147MOL   H12638378   7.562   4.484   4.759 -1.2707 -1.0317 -1.3520
  147MOL   H12738379   7.446   4.288   4.852 -0.4950 -1.7595 -0.9113
  147MOL   H12838380   7.278   4.304   4.789  1.9239  0.7533 -2.9135
  147MOL   H12938381   7.320   4.330   4.960 -0.7138  2.0710 -0.2463
  147MOL   H13038382   7.152   4.572   4.834 -0.0416  0.1021 -0.0423
  147MOL   H13138383   7.251   4.692   4.852 -0.8111  0.8757  0.5188
  147MOL   C13238384   7.231   4.592   5.038 -0.1295  0.0592  0.0317
  147MOL   C13338385   7.357   4.625   5.113  0.3607  0.2255 -0.2899
  147MOL   C13438386   7.383   4.738   5.179  0.4287  0.6206  0.6514
  147MOL   C13538387   7.516   4.761   5.242  0.1501 -0.8466 -0.2187
  147MOL   C13638388   7.294   4.859   5.163 -0.1795 -0.0035  0.4336
  147MOL   H13738389   7.206   4.491   5.070  1.3488  0.0111  1.0680
  147MOL   H13838390   7.145   4.651   5.067 -0.4458 -0.2299 -0.3007
  147MOL   H13938391   7.433   4.549   5.120 -1.3240 -1.5266 -0.4629
  147MOL   H14038392   7.589   4.688   5.208  1.5083  0.4357 -0.1027
  147MOL   H14138393   7.509   4.768   5.350 -4.9044  0.4230 -0.4709
  147MOL   H14238394   7.557   4.850   5.193 -0.7899 -0.6796 -0.7302
  147MOL   H14338395   7.281   4.913   5.257  0.9818  1.2708 -0.1135
  147MOL   H14438396   7.192   4.837   5.131 -0.5869 -1.2324  2.4959
  147MOL   C14538397   7.349   4.948   5.051 -0.2838 -0.2165 -0.0303
  147MOL   C14638398   7.298   5.084   5.072 -0.5309  0.3669  0.5064
  147MOL   C14738399   7.200   5.157   5.008  0.0154 -0.0691 -0.8840
  147MOL   C14838400   7.161   5.289   5.071 -0.1984  0.4220  0.8254
  147MOL   C14938401   7.117   5.115   4.890  0.0894  0.9047 -0.4714
  147MOL   H15038402   7.317   4.907   4.955 -1.5964 -0.3821  0.4651
  147MOL   H15138403   7.455   4.971   5.045 -0.4480  0.7000  0.6301
  147MOL   H15238404   7.337   5.127   5.163  0.7478  1.1411 -0.3855
  147MOL   H15338405   7.222   5.305   5.160  1.6027  0.4066 -0.3592
  147MOL   H15438406   7.054   5.303   5.083 -0.2010  1.5096 -0.3664
  147MOL   H15538407   7.194   5.364   4.999  1.3533  1.4686  2.5592
  147MOL   H15638408   7.173   5.047   4.825 -0.3416  0.7548 -0.6851
  147MOL   H15738409   7.109   5.203   4.827  0.7786  1.2430 -0.0932
  147MOL   C15838410   6.989   5.053   4.931  0.3221 -0.3422 -0.1649
  147MOL   C15938411   6.916   4.997   4.816 -0.3739  0.3940  0.2819
  147MOL   C16038412   6.860   4.874   4.807 -0.1245  0.0835  0.2333
  147MOL   C16138413   6.833   4.794   4.922  0.2199 -0.2228 -0.4549
  147MOL   C16238414   6.776   4.822   4.687 -0.3025 -0.0881  0.0427
  147MOL   H16338415   6.920   5.124   4.976 -0.1023 -1.3935  0.8774
  147MOL   H16438416   7.009   4.976   5.006  0.9712 -0.1434 -0.1343
  147MOL   H16538417   6.919   5.043   4.718  2.1212 -1.7445 -0.7264
  147MOL   H16638418   6.725   4.808   4.926 -0.0303 -1.7084 -1.7608
  147MOL   H16738419   6.885   4.803   5.017  1.0848 -3.2876 -0.5956
  147MOL   H16838420   6.841   4.693   4.882 -1.9975  0.7472 -3.5526
  147MOL   H16938421   6.672   4.803   4.715  0.1233 -1.6266  0.6182
  147MOL   H17038422   6.826   4.729   4.662 -1.4720 -0.2766 -1.6644
  147MOL   C17138423   6.780   4.914   4.567  0.2966 -0.1373  0.0546
  147MOL   C17238424   6.679   4.881   4.462 -0.5960 -0.8704  0.5487
  147MOL   C17338425   6.691   4.889   4.327 -0.2205 -0.2607 -0.4132
  147MOL   C17438426   6.823   4.911   4.253 -0.3591 -0.4696 -0.2846
  147MOL   C17538427   6.575   4.872   4.236  0.5020  0.1655  0.0164
  147MOL   H17638428   6.881   4.916   4.527  0.1051 -2.2016 -0.5930
  147MOL   H17738429   6.746   5.016   4.586  0.5394 -0.4359  2.2192
  147MOL   H17838430   6.583   4.864   4.509 -1.5984 -0.0964 -1.1492
  147MOL   H17938431   6.800   4.998   4.191  2.3232  1.1780  0.9279
  147MOL   H18038432   6.847   4.833   4.181  0.3139 -1.6394  1.1725
  147MOL   H18138433   6.907   4.946   4.314  0.1647 -1.7989 -0.2290
  147MOL   H18238434   6.615   4.848   4.137  1.2199 -0.2555  0.4051
  147MOL   H18338435   6.535   4.973   4.228 -0.5842 -0.3510 -1.2592
  147MOL   C18438436   6.468   4.763   4.257 -0.3099  0.5294 -0.1200
  147MOL   C18538437   6.515   4.625   4.296  0.4089  0.3520 -0.2414
  147MOL   C18638438   6.537   4.523   4.211  0.2072  0.1616 -0.1529
  147MOL   C18738439   6.572   4.380   4.265 -0.0676 -0.0533 -0.5351
  147MOL   C18838440   6.551   4.530   4.063  0.0853  0.5968  0.1200
  147MOL   H18938441   6.407   4.752   4.167 -1.9118 -2.2990  1.2193
  147MOL   H19038442   6.413   4.810   4.338 -0.3369 -0.2492  0.3276
  147MOL   H19138443   6.519   4.609   4.403  0.7492 -0.1362 -0.3283
  147MOL   H19238444   6.490   4.310   4.253 -0.2062  0.2735 -1.5280
  147MOL   H19338445   6.604   4.379   4.370  2.1737  2.2774 -1.1354
  147MOL   H19438446   6.663   4.341   4.219 -0.8319  0.0800 -2.1921
  147MOL   H19538447   6.653   4.505   4.037 -0.2159 -0.1189 -0.3829
  147MOL   H19638448   6.537   4.635   4.040  0.6737  0.7677  0.5410
  147MOL   C19738449   6.446   4.443   3.997 -0.6494  0.0948 -0.2767
  147MOL   C19838450   6.462   4.430   3.841  0.0153  0.0047 -0.6848
  147MOL   C19938451   6.370   4.438   3.747  0.2944 -0.1967 -0.4904
  147MOL   C20038452   6.409   4.437   3.593  0.3989 -0.1653 -0.0967
  147MOL   C20138453   6.223   4.466   3.787 -0.3411  0.9684 -0.1121
  147MOL   H20238454   6.348   4.485   4.023  0.0823  1.1930  0.8142
  147MOL   H20338455   6.468   4.341   4.029 -0.1314  0.5429  0.8519
  147MOL   H20438456   6.566   4.407   3.824  0.2837  0.5184  0.2320
  147MOL   H20538457   6.327   4.408   3.527  0.2274 -1.0752  0.5094
  147MOL   H20638458   6.502   4.380   3.588  0.3674 -0.0933 -1.9078
  147MOL   H20738459   6.428   4.542   3.569  2.7793  0.7617  5.1161
  147MOL   H20838460   6.195   4.400   3.869  0.4968 -0.9930 -1.3459
  147MOL   H20938461   6.160   4.429   3.706 -1.8607  2.4641  0.3825
  147MOL   C21038462   6.189   4.613   3.809  0.6252  0.3565 -0.0772
  147MOL   C21138463   6.042   4.631   3.847  0.7057 -0.5684 -0.4255
  147MOL   C21238464   5.990   4.745   3.903 -0.6453  0.5043 -0.4355
  147MOL   C21338465   5.846   4.750   3.952  0.6488 -0.2054 -0.1672
  147MOL   C21438466   6.077   4.869   3.916  0.3385  1.1939  0.6239
  147MOL   H21538467   6.212   4.665   3.716 -0.0444 -0.8471 -0.9386
  147MOL   H21638468   6.247   4.646   3.894 -0.8306  0.3045  0.9557
  147MOL   H21738469   5.963   4.558   3.851  1.6472 -1.6069 -0.4603
  147MOL   H21838470   5.838   4.795   4.051 -2.0300  2.3481 -1.4753
  147MOL   H21938471   5.799   4.652   3.959  0.0725  0.2363  2.8520
  147MOL   H22038472   5.787   4.826   3.902  1.3333  1.7544  1.9189
  147MOL   H22138473   6.029   4.945   3.853  2.1873  0.3731 -1.8483
  147MOL   H22238474   6.173   4.854   3.866 -0.2512  2.0685 -0.8112
  147MOL   C22338475   6.092   4.925   4.053  1.1033 -0.4356  0.5242
  147MOL   C22438476   6.209   5.023   4.076 -0.1003  0.5362  0.1377
  147MOL   C22538477   6.211   5.121   4.165 -0.1146  0.4658 -0.2493
  147MOL   C22638478   6.337   5.207   4.185 -0.6412 -0.3227  0.2680
  147MOL   C22738479   6.105   5.132   4.270  0.0273  0.2075  1.1920
  147MOL   H22838480   6.115   4.845   4.123  0.0470 -1.5267 -0.3428
  147MOL   H22938481   5.995   4.964   4.084  0.1529 -1.1294 -1.4519
  147MOL   H23038482   6.299   5.002   4.021 -0.9537 -1.2115 -0.6286
  147MOL   H23138483   6.395   5.195   4.276  1.5058  1.2421 -0.8360
  147MOL   H23238484   6.311   5.312   4.172 -0.4434 -0.2691  0.3023
  147MOL   H23338485   6.404   5.184   4.102 -0.6125  0.9399 -0.0834
  147MOL   H23438486   6.156   5.130   4.367 -0.3162 -0.3760  1.3613
  147MOL   H23538487   6.039   5.046   4.261 -2.1260  2.0938 -1.7322
  147MOL   C23638488   6.021   5.258   4.249 -0.0941  0.1669 -0.5671
  147MOL   C23738489   5.933   5.290   4.372  0.4941  0.0235 -0.0636
  147MOL   C23838490   5.799   5.276   4.385 -0.2368  0.7598  0.2792
  147MOL   C23938491   5.720   5.321   4.506  0.4658 -0.1097  0.1642
  147MOL   C24038492   5.711   5.214   4.277  0.3415 -0.6875 -0.4434
  147MOL   H24138493   5.960   5.244   4.160 -0.8171 -1.0897  0.1044
  147MOL   H24238494   6.074   5.347   4.216 -1.7615  1.2411 -0.4198
  147MOL   H24338495   5.993   5.330   4.453 -1.4497  1.3087  0.7791
  147MOL   H24438496   5.776   5.380   4.580  3.6840 -2.6228 -0.2004
  147MOL   H24538497   5.665   5.239   4.551  0.6078 -1.5719 -2.2569
  147MOL   H24638498   5.632   5.377   4.474 -0.9589 -2.3430  0.0963
  147MOL   H24738499   5.746   5.232   4.175 -3.3902 -2.4570 -2.1225
  147MOL   H24838500   5.610   5.244   4.302  0.8814 -1.9188  3.5779
  147MOL   C24938501   5.700   5.063   4.297 -0.3902 -0.2803 -0.1563
  147MOL   C25038502   5.615   4.994   4.183  0.0414 -0.3690  0.3572
  147MOL   C25138503   5.512   4.910   4.207  0.4962  0.2354 -0.3033
  147MOL   C25238504   5.432   4.847   4.091  0.8870  0.4885 -0.3767
  147MOL   C25338505   5.459   4.887   4.344  0.6036 -0.1916 -1.2420
  147MOL   H25438506   5.662   5.048   4.398 -1.7910  3.4087 -0.0665
  147MOL   H25538507   5.806   5.038   4.301  0.3096  2.3252 -1.4935
  147MOL   H25638508   5.656   5.013   4.085 -1.6223  0.2380 -0.2236
  147MOL   H25738509   5.341   4.905   4.077 -0.6385 -1.8395 -0.2852
  147MOL   H25838510   5.395   4.747   4.113  0.9125  0.3880 -0.7827
  147MOL   H25938511   5.477   4.843   3.992 -3.5411 -1.1624 -2.4531
  147MOL   H26038512   5.355   4.856   4.356 -0.0127  2.5189  0.7452
  147MOL   H26138513   5.469   4.971   4.412 -3.4739 -1.7519  1.4474
  147MOL   H26238514   5.514   4.805   4.389 -1.1638 -0.4399  0.5379
  148MOL     C138515   1.675   5.606   5.198 -0.5936 -0.2053 -0.7417
  148MOL     C238516   1.805   5.536   5.229 -0.8645 -0.0667  0.1408
  148MOL     C338517   1.918   5.539   5.157  0.0347  0.1159 -0.3082
  148MOL     C438518   2.046   5.483   5.210  0.3082 -0.1112 -0.2079
  148MOL     C538519   1.928   5.616   5.031  0.1007 -0.2028 -0.1450
  148MOL     H638520   1.594   5.541   5.164 -1.5773  1.0450 -0.8377
  148MOL     H738521   1.632   5.670   5.275  1.6723  0.4727 -0.0148
  148MOL     H838522   1.805   5.482   5.323  0.4676  1.9816  1.3646
  148MOL     H938523   2.107   5.416   5.150  0.5116  0.4415 -0.6154
  148MOL    H1038524   2.034   5.442   5.311  1.6935  0.8134  0.3593
  148MOL    H1138525   2.112   5.570   5.214  0.0048  0.0482  2.1889
  148MOL    H1238526   1.850   5.600   4.956  0.6862 -2.0746 -0.3762
  148MOL    H1338527   2.015   5.579   4.976 -0.9214  1.0132 -2.6789
  148MOL    H1438528   1.682   5.664   5.106 -1.1605  1.7104  0.3968
  148MOL    C1538529   1.967   5.760   5.061  0.9952  0.0441  0.0980
  148MOL    C1638530   1.988   5.848   4.938 -0.1781 -0.3855  0.4940
  148MOL    C1738531   1.899   5.923   4.865 -0.2875 -0.0706  0.5440
  148MOL    C1838532   1.932   5.999   4.738 -0.3962  0.3451  0.5192
  148MOL    C1938533   1.758   5.935   4.897  0.8693 -0.4594  0.5232
  148MOL    H2038534   2.058   5.758   5.120  0.0007  0.1690  1.6626
  148MOL    H2138535   1.894   5.802   5.131  0.4828  0.3895 -0.6316
  148MOL    H2238536   2.089   5.856   4.901  0.4026 -2.5939  1.5234
  148MOL    H2338537   1.861   6.081   4.732  0.2337  0.8584 -0.0220
  148MOL    H2438538   1.918   5.934   4.653  0.7415  3.5606 -2.2460
  148MOL    H2538539   2.037   6.020   4.714 -0.7207 -0.1942 -1.3960
  148MOL    H2638540   1.731   6.038   4.921  0.0422 -0.5431 -0.0135
  148MOL    H2738541   1.745   5.869   4.983 -1.0963  1.2153  1.5785
  148MOL    C2838542   1.667   5.881   4.790 -0.0286  0.8526 -0.8153
  148MOL    C2938543   1.672   5.725   4.777 -0.1800  0.2419  0.1268
  148MOL    C3038544   1.578   5.638   4.791  0.3474  0.2855 -0.0045
  148MOL    C3138545   1.607   5.488   4.783 -0.1041 -0.0533 -0.2267
  148MOL    C3238546   1.432   5.673   4.813 -0.0119  0.2559  0.2282
  148MOL    H3338547   1.678   5.925   4.691 -1.0437  2.2406 -0.3211
  148MOL    H3438548   1.568   5.914   4.818  0.4227 -0.0097  1.9673
  148MOL    H3538549   1.770   5.685   4.758  1.2266  2.7861  1.7810
  148MOL    H3638550   1.629   5.447   4.881 -0.5628  0.1771 -0.0248
  148MOL    H3738551   1.693   5.472   4.718 -1.1364 -0.3954 -1.5437
  148MOL    H3838552   1.520   5.436   4.743 -0.4764  0.9789 -0.7877
  148MOL    H3938553   1.381   5.626   4.730 -0.6177  0.9752  0.1912
  148MOL    H4038554   1.409   5.778   4.798  0.5180  0.8601  3.1789
  148MOL    C4138555   1.370   5.624   4.950 -0.6586  0.0589  0.2078
  148MOL    C4238556   1.238   5.686   4.984  0.2265 -0.1220 -0.8770
  148MOL    C4338557   1.148   5.660   5.082 -0.2802  0.7156 -0.7806
  148MOL    C4438558   1.010   5.737   5.088 -0.5645  0.4117 -0.3805
  148MOL    C4538559   1.166   5.539   5.176  0.0998 -0.3692 -0.3018
  148MOL    H4638560   1.443   5.653   5.026 -1.3519  0.6294  0.6613
  148MOL    H4738561   1.355   5.516   4.955  0.9182 -0.1335  0.9841
  148MOL    H4838562   1.221   5.782   4.936 -1.7052  0.2053  0.4114
  148MOL    H4938563   1.019   5.841   5.054  0.2463  0.7661  0.8894
  148MOL    H5038564   0.966   5.753   5.187 -0.0670 -1.5411  0.1721
  148MOL    H5138565   0.951   5.681   5.016 -1.9156 -0.9482  1.7295
  148MOL    H5238566   1.125   5.567   5.273 -0.2584  1.0960 -0.8762
  148MOL    H5338567   1.268   5.501   5.187 -0.3017 -2.1092 -2.2369
  148MOL    C5438568   1.071   5.430   5.122  0.2771 -0.3142  0.3096
  148MOL    C5538569   1.076   5.287   5.189 -0.0058  0.0381  0.2155
  148MOL    C5638570   1.137   5.182   5.132 -0.0815  0.0015 -0.5053
  148MOL    C5738571   1.157   5.046   5.197 -0.4345  0.3438  0.0179
  148MOL    C5838572   1.210   5.174   4.995  0.2189  0.4391  0.1451
  148MOL    H5938573   1.083   5.422   5.014  1.1435  0.4161  0.3445
  148MOL    H6038574   0.970   5.457   5.151  0.7469  0.6360  1.1145
  148MOL    H6138575   1.028   5.274   5.285  0.3294  2.4104  0.7302
  148MOL    H6238576   1.115   4.961   5.143 -0.1605 -0.7164  1.4123
  148MOL    H6338577   1.119   5.048   5.299 -1.4924 -2.0614 -0.2933
  148MOL    H6438578   1.266   5.042   5.204 -0.3330 -1.2480 -1.8406
  148MOL    H6538579   1.179   5.251   4.924 -0.7564 -0.9588 -0.9901
  148MOL    H6638580   1.209   5.079   4.942  0.3737  0.3036  0.3862
  148MOL    C6738581   1.364   5.199   5.009 -0.2043 -0.1926  0.1590
  148MOL    C6838582   1.428   5.193   4.872  0.0613 -0.0516 -0.3830
  148MOL    C6938583   1.548   5.152   4.832 -0.4118  0.3130  0.4182
  148MOL    C7038584   1.595   5.130   4.688 -0.3399  0.0793 -0.1995
  148MOL    C7138585   1.649   5.110   4.944 -0.0791  0.0925 -0.4770
  148MOL    H7238586   1.411   5.133   5.082  0.1495  2.1714  2.1555
  148MOL    H7338587   1.389   5.298   5.048  2.7967  0.1818 -2.4690
  148MOL    H7438588   1.366   5.217   4.787 -0.8132 -0.3115  0.1765
  148MOL    H7538589   1.538   5.185   4.614  2.9606  2.7758 -0.9046
  148MOL    H7638590   1.579   5.023   4.672  0.4071 -0.2334  1.1051
  148MOL    H7738591   1.701   5.152   4.674 -0.2257  0.0448  0.6012
  148MOL    H7838592   1.640   5.170   5.035 -2.8300  0.4638 -0.9416
  148MOL    H7938593   1.739   5.149   4.897  1.2350 -2.7422 -0.3910
  148MOL    C8038594   1.649   4.959   4.966  0.7483  0.2714  0.1937
  148MOL    C8138595   1.732   4.923   5.093 -0.3974  0.0211 -0.3154
  148MOL    C8238596   1.835   4.833   5.106 -0.1839 -0.5575  0.7428
  148MOL    C8338597   1.882   4.747   4.989  0.0322 -0.3404  0.4242
  148MOL    C8438598   1.888   4.790   5.245  0.5909 -0.5620 -0.4033
  148MOL    H8538599   1.696   4.910   4.880 -0.1177 -1.1896  0.5365
  148MOL    H8638600   1.553   4.911   4.982  0.5682  0.3103 -0.7354
  148MOL    H8738601   1.701   4.976   5.182 -0.6528 -0.0969 -0.3347
  148MOL    H8838602   1.892   4.792   4.890 -0.8456 -0.8996  0.0711
  148MOL    H8938603   1.827   4.654   4.977  0.6964 -0.4104 -2.3721
  148MOL    H9038604   1.980   4.713   5.020 -0.2808  0.2357  2.0663
  148MOL    H9138605   1.843   4.854   5.320 -0.7221 -2.0559  0.1106
  148MOL    H9238606   1.994   4.809   5.257  0.3771 -0.1407  0.7819
  148MOL    C9338607   1.850   4.648   5.281 -0.1917  0.4453 -0.0239
  148MOL    C9438608   1.844   4.622   5.431  0.4341 -0.4658 -0.6534
  148MOL    C9538609   1.922   4.552   5.510 -0.2098 -0.5418  0.7971
  148MOL    C9638610   1.888   4.532   5.651  0.2115  0.3531  0.2447
  148MOL    C9738611   2.044   4.483   5.455 -0.3991  0.1852 -0.0303
  148MOL    H9838612   1.916   4.575   5.235  0.9882  0.9750  0.7937
  148MOL    H9938613   1.746   4.635   5.252 -0.7100  1.1427  1.4607
  148MOL   H10038614   1.757   4.676   5.467 -0.1232  0.6962 -3.5924
  148MOL   H10138615   1.809   4.604   5.673  0.7131  0.4241  1.8997
  148MOL   H10238616   1.846   4.432   5.665 -1.4583  0.9305 -0.4822
  148MOL   H10338617   1.965   4.556   5.725 -0.2343 -2.0392  1.5367
  148MOL   H10438618   2.120   4.527   5.520 -1.7736  0.8091  1.1804
  148MOL   H10538619   2.072   4.523   5.357  0.5828 -0.6095 -0.0867
  148MOL   C10638620   2.026   4.332   5.467 -0.2048  0.7064 -0.2882
  148MOL   C10738621   1.897   4.287   5.394 -0.6811  0.0267 -0.0603
  148MOL   C10838622   1.884   4.270   5.259  0.2043 -0.0297 -1.4705
  148MOL   C10938623   1.999   4.277   5.165  0.2228 -0.1249  0.3428
  148MOL   C11038624   1.747   4.265   5.190 -0.3489  0.3600  0.0076
  148MOL   H11138625   2.028   4.312   5.574 -0.5103  2.2987  0.0246
  148MOL   H11238626   2.106   4.270   5.428 -1.0462  0.2538 -1.3241
  148MOL   H11338627   1.811   4.289   5.460  0.0840  1.5870  0.9237
  148MOL   H11438628   2.015   4.177   5.127 -1.6627  0.2164 -1.4172
  148MOL   H11538629   1.979   4.332   5.073 -1.9067 -0.6921  0.4471
  148MOL   H11638630   2.083   4.325   5.216  0.9838 -0.3042 -0.7158
  148MOL   H11738631   1.744   4.339   5.110  1.7887 -0.8539 -1.2189
  148MOL   H11838632   1.677   4.304   5.265 -1.1523 -1.4338  0.2201
  148MOL   C11938633   1.712   4.132   5.131  0.6509  0.5047  0.4005
  148MOL   C12038634   1.576   4.130   5.058 -0.4128 -0.0017 -0.0422
  148MOL   C12138635   1.540   4.078   4.938 -0.2134 -0.1355  0.1370
  148MOL   C12238636   1.395   4.090   4.890 -0.7334 -0.5390  0.1711
  148MOL   C12338637   1.636   4.009   4.846  0.3782  0.0558 -0.0045
  148MOL   H12438638   1.692   4.058   5.208  0.7826 -1.0301 -1.0173
  148MOL   H12538639   1.797   4.093   5.075 -0.2066 -0.9789  0.1195
  148MOL   H12638640   1.501   4.179   5.118 -0.9729 -0.4282 -0.3874
  148MOL   H12738641   1.367   4.003   4.832 -0.0022 -0.1435 -0.7855
  148MOL   H12838642   1.384   4.184   4.835 -0.8765 -0.0041  1.0884
  148MOL   H12938643   1.328   4.108   4.974 -1.0616  0.3783 -0.2780
  148MOL   H13038644   1.579   3.929   4.799  0.4353  0.4927 -0.8347
  148MOL   H13138645   1.718   3.955   4.893  0.1477 -1.0828 -0.8826
  148MOL   C13238646   1.683   4.105   4.743  0.6879 -0.4047 -0.2648
  148MOL   C13338647   1.777   4.214   4.799 -0.0199 -0.5760  0.2269
  148MOL   C13438648   1.878   4.273   4.736  0.1119  0.2873 -0.0136
  148MOL   C13538649   1.965   4.371   4.803 -0.2422  0.2576 -0.0479
  148MOL   C13638650   1.924   4.249   4.595  0.2399  0.0951  0.2696
  148MOL   H13738651   1.596   4.150   4.695  0.3988 -0.8954 -0.1933
  148MOL   H13838652   1.739   4.049   4.668 -0.1286 -1.1970 -0.2867
  148MOL   H13938653   1.744   4.247   4.896 -0.3174  1.0497 -0.3946
  148MOL   H14038654   2.042   4.421   4.744  2.1972 -2.5563  0.6351
  148MOL   H14138655   2.028   4.315   4.872  1.4953  1.2062 -0.8403
  148MOL   H14238656   1.907   4.446   4.857 -1.1200 -0.9284  0.6745
  148MOL   H14338657   1.897   4.152   4.554 -0.0144 -0.4644  1.7433
  148MOL   H14438658   2.033   4.256   4.595  0.3624 -1.7202  0.0415
  148MOL   C14538659   1.867   4.360   4.495 -0.1974  1.5817 -0.0799
  148MOL   C14638660   1.892   4.323   4.351  0.3451 -0.2782  0.8324
  148MOL   C14738661   1.920   4.413   4.253  1.1715  0.1682 -0.2707
  148MOL   C14838662   1.937   4.354   4.115 -0.1674  0.0273 -0.6568
  148MOL   C14938663   1.937   4.561   4.261  0.4013  0.6537 -0.0344
  148MOL   H15038664   1.913   4.452   4.531  0.2441  1.0339  0.7920
  148MOL   H15138665   1.759   4.374   4.501 -0.3362  0.8539 -0.7497
  148MOL   H15238666   1.877   4.219   4.328  0.3342  0.2004 -1.4949
  148MOL   H15338667   2.044   4.351   4.094  0.0594  0.6793  0.3955
  148MOL   H15438668   1.882   4.409   4.039  3.9325  1.3844 -2.7921
  148MOL   H15538669   1.899   4.252   4.113  0.7428 -0.3037 -2.6294
  148MOL   H15638670   1.998   4.586   4.174  1.4394 -0.7373  0.2924
  148MOL   H15738671   1.998   4.580   4.349  0.7764 -1.9975  0.3117
  148MOL   C15838672   1.799   4.640   4.283  0.1689 -0.0467  0.0398
  148MOL   C15938673   1.830   4.787   4.276 -0.0593  0.0665 -0.3865
  148MOL   C16038674   1.749   4.885   4.317 -0.3548  0.0856 -0.1181
  148MOL   C16138675   1.612   4.855   4.382  0.0811 -0.4400 -0.6181
  148MOL   C16238676   1.793   5.032   4.316  0.1563 -0.3493  0.5757
  148MOL   H16338677   1.746   4.611   4.374 -1.4238 -0.2064 -0.8993
  148MOL   H16438678   1.728   4.624   4.201 -0.2853 -2.6168  0.8886
  148MOL   H16538679   1.930   4.816   4.245  0.1964  0.9170  1.1303
  148MOL   H16638680   1.579   4.755   4.356  0.6234 -0.6935 -0.3247
  148MOL   H16738681   1.537   4.931   4.356  0.2587 -0.2583 -0.5990
  148MOL   H16838682   1.630   4.852   4.489  0.8026  1.5786 -0.6603
  148MOL   H16938683   1.894   5.047   4.276 -0.6971 -1.0864 -1.9172
  148MOL   H17038684   1.801   5.072   4.417  0.5439 -0.8924  0.7645
  148MOL   C17138685   1.695   5.121   4.244 -0.0820 -0.0851  0.2553
  148MOL   C17238686   1.736   5.270   4.239 -0.1377  0.1037  0.1579
  148MOL   C17338687   1.663   5.371   4.285  0.3290 -0.5310  0.0444
  148MOL   C17438688   1.518   5.371   4.333  0.0222  0.3265 -0.4872
  148MOL   C17538689   1.733   5.508   4.300 -0.4597  0.9471 -0.1682
  148MOL   H17638690   1.593   5.118   4.281  0.0234 -0.0434  0.5524
  148MOL   H17738691   1.690   5.087   4.140 -2.1674 -0.2949  0.4142
  148MOL   H17838692   1.831   5.288   4.192 -0.5370  1.3796 -0.1988
  148MOL   H17938693   1.455   5.442   4.280 -0.6872  0.3615  0.4070
  148MOL   H18038694   1.517   5.416   4.432  2.8933  1.0597 -0.7253
  148MOL   H18138695   1.478   5.271   4.347 -0.0641  0.5103  0.6164
  148MOL   H18238696   1.668   5.583   4.255 -2.3119 -0.2439  0.4464
  148MOL   H18338697   1.820   5.505   4.235 -0.7606  0.9936 -0.5760
  148MOL   C18438698   1.772   5.545   4.439 -0.3146 -0.4712 -0.6290
  148MOL   C18538699   1.850   5.675   4.451 -0.3679  0.4348 -0.0893
  148MOL   C18638700   1.983   5.689   4.452 -0.1674 -0.0906  0.4252
  148MOL   C18738701   2.040   5.830   4.437 -0.6513  0.0016  1.2006
  148MOL   C18838702   2.084   5.571   4.456  0.3776 -0.5390  0.2218
  148MOL   H18938703   1.826   5.472   4.501  0.5244  0.6458 -0.0130
  148MOL   H19038704   1.686   5.555   4.506  0.3671 -1.2402  0.3785
  148MOL   H19138705   1.785   5.762   4.455 -1.0552 -0.1042  0.7227
  148MOL   H19238706   2.123   5.830   4.366 -0.7346  1.5468  1.0719
  148MOL   H19338707   2.068   5.874   4.533  2.4368  0.3894  0.1689
  148MOL   H19438708   1.960   5.899   4.408 -0.7497 -0.8813 -0.6536
  148MOL   H19538709   2.156   5.599   4.379 -0.1442  0.6850  0.1691
  148MOL   H19638710   2.048   5.474   4.424 -1.0891 -0.2150  0.8497
  148MOL   C19738711   2.145   5.572   4.597  0.0672  0.0197  0.1976
  148MOL   C19838712   2.072   5.486   4.692 -0.1160  0.5080  0.1236
  148MOL   C19938713   2.095   5.360   4.722  0.0337  0.3687 -0.3874
  148MOL   C20038714   2.027   5.295   4.848 -0.4328 -0.5398 -0.5220
  148MOL   C20138715   2.187   5.269   4.650  0.3523 -0.2942  0.2053
  148MOL   H20238716   2.163   5.668   4.644 -1.2478  0.3009  0.1435
  148MOL   H20338717   2.238   5.515   4.593  0.2758  0.1250  2.9131
  148MOL   H20438718   1.999   5.536   4.754 -1.7225  0.5093 -1.7016
  148MOL   H20538719   1.932   5.333   4.886  0.7338  1.3361  0.6313
  148MOL   H20638720   2.108   5.313   4.919 -0.4734  0.8059 -0.8043
  148MOL   H20738721   2.018   5.187   4.838 -1.1664 -0.5876  0.5451
  148MOL   H20838722   2.230   5.206   4.727  0.8110  1.3146  1.2974
  148MOL   H20938723   2.275   5.319   4.608 -0.7749  2.5091  1.0903
  148MOL   C21038724   2.118   5.185   4.527  0.2361  0.1950  0.1387
  148MOL   C21138725   2.056   5.053   4.573 -0.8423 -0.0039  0.3939
  148MOL   C21238726   2.103   4.930   4.547 -0.0200 -0.4018 -0.1666
  148MOL   C21338727   2.024   4.808   4.603  0.9555  0.2885 -0.7030
  148MOL   C21438728   2.237   4.894   4.477  0.5263 -0.1800  0.1782
  148MOL   H21538729   2.182   5.156   4.443 -0.9886 -2.6494  0.1187
  148MOL   H21638730   2.039   5.248   4.484  1.4801 -0.5497 -3.4488
  148MOL   H21738731   1.964   5.065   4.627  0.5303 -1.0541  3.0922
  148MOL   H21838732   2.069   4.783   4.699 -0.1291  2.0643  0.3000
  148MOL   H21938733   2.006   4.719   4.542  1.6358  0.2376 -0.8329
  148MOL   H22038734   1.924   4.842   4.627  0.5697  0.0234 -1.9084
  148MOL   H22138735   2.227   4.936   4.377  1.1912  1.0603  0.6180
  148MOL   H22238736   2.235   4.786   4.468 -3.3879 -0.2199  0.5981
  148MOL   C22338737   2.362   4.938   4.552 -0.4945 -0.7136 -0.2602
  148MOL   C22438738   2.486   4.947   4.464 -0.2412 -0.7867 -0.4758
  148MOL   C22538739   2.600   4.875   4.466 -0.2542  0.1830  0.4324
  148MOL   C22638740   2.716   4.930   4.387 -0.1035  0.1747  0.4815
  148MOL   C22738741   2.624   4.757   4.562  0.9611 -0.1058  0.5396
  148MOL   H22838742   2.372   4.870   4.637 -0.2368 -1.9752 -1.2703
  148MOL   H22938743   2.347   5.037   4.595  0.0746 -0.1223 -1.3974
  148MOL   H23038744   2.479   5.029   4.395 -1.0494 -1.8346 -1.6655
  148MOL   H23138745   2.686   5.023   4.340 -1.0597 -0.3139  0.1252
  148MOL   H23238746   2.738   4.857   4.310 -0.2581  1.3270 -0.6579
  148MOL   H23338747   2.802   4.940   4.454 -0.1966 -0.8320  0.7660
  148MOL   H23438748   2.567   4.769   4.654  3.6494 -0.8396  2.3564
  148MOL   H23538749   2.729   4.762   4.593  0.9242 -0.8315  0.7928
  148MOL   C23638750   2.626   4.617   4.508  0.3872  1.0296 -0.6117
  148MOL   C23738751   2.527   4.539   4.589  0.7776  0.0803 -0.5695
  148MOL   C23838752   2.410   4.488   4.544 -0.5853 -0.3886 -0.3585
  148MOL   C23938753   2.313   4.429   4.638  0.7764 -0.2518 -0.5998
  148MOL   C24038754   2.371   4.460   4.391  0.2898 -0.0875 -0.2547
  148MOL   H24138755   2.724   4.572   4.523  0.6495  1.3553 -1.3278
  148MOL   H24238756   2.605   4.614   4.401  0.3393 -3.1781 -0.5422
  148MOL   H24338757   2.540   4.553   4.695 -3.0603 -1.3120  0.1652
  148MOL   H24438758   2.352   4.370   4.720 -1.3437  0.8444  1.2504
  148MOL   H24538759   2.240   4.365   4.588  0.3462 -1.2428  1.2539
  148MOL   H24638760   2.264   4.513   4.688  0.5131 -0.5526 -0.3533
  148MOL   H24738761   2.433   4.518   4.322 -2.3106  0.2589 -2.3821
  148MOL   H24838762   2.269   4.494   4.373  0.2284  0.9266  1.7469
  148MOL   C24938763   2.382   4.317   4.348 -0.3345  0.0669  0.0810
  148MOL   C25038764   2.351   4.302   4.200 -0.0469  0.3314 -0.2352
  148MOL   C25138765   2.441   4.286   4.101  0.1931  0.0541 -0.6550
  148MOL   C25238766   2.393   4.283   3.953  0.1819  0.1502  0.8122
  148MOL   C25338767   2.591   4.296   4.125 -0.4424 -0.0417 -0.4027
  148MOL   H25438768   2.314   4.253   4.404 -0.2559 -1.0291 -1.0676
  148MOL   H25538769   2.484   4.293   4.378 -0.6722 -0.1787  1.0577
  148MOL   H25638770   2.246   4.313   4.176  0.2071  1.7582 -0.7035
  148MOL   H25738771   2.447   4.342   3.880  3.3559 -1.9305  1.3597
  148MOL   H25838772   2.290   4.319   3.956  0.6992  1.6018  1.6915
  148MOL   H25938773   2.389   4.180   3.917  0.7601  0.6900 -0.8191
  148MOL   H26038774   2.618   4.344   4.219  1.3468  0.8623 -1.3393
  148MOL   H26138775   2.626   4.357   4.041 -0.0935  0.5615  0.1687
  148MOL   H26238776   2.633   4.196   4.115 -0.6815 -0.1291 -0.5437
  149MOL     C138777   3.629   0.634   7.400  0.3666  0.4407 -0.0534
  149MOL     C238778   3.651   0.643   7.255 -0.1276 -0.3936 -0.0210
  149MOL     C338779   3.630   0.752   7.181  1.1737  0.8127 -0.2049
  149MOL     C438780   3.659   0.745   7.031 -0.5602  0.1133  0.2219
  149MOL     C538781   3.578   0.885   7.232 -0.0729  0.2702  0.5172
  149MOL     H638782   3.524   0.614   7.422 -0.2783  1.4174 -2.0728
  149MOL     H738783   3.689   0.556   7.447 -1.1124 -0.1714  0.8562
  149MOL     H838784   3.685   0.552   7.208  3.8860 -0.5359  2.8929
  149MOL     H938785   3.723   0.830   7.006 -2.2533  0.9906 -1.2493
  149MOL    H1038786   3.575   0.768   6.966  1.2138 -1.7319 -2.8867
  149MOL    H1138787   3.703   0.655   6.988 -1.0259  0.4925 -1.0510
  149MOL    H1238788   3.514   0.868   7.319 -2.1656  0.2838 -0.9777
  149MOL    H1338789   3.526   0.932   7.149  0.0969 -0.3821  0.0368
  149MOL    H1438790   3.658   0.729   7.445  0.7547 -0.4049  1.5209
  149MOL    C1538791   3.686   0.979   7.274 -0.7251  0.1600 -0.3708
  149MOL    C1638792   3.628   1.120   7.288  0.4839  0.5742  0.6203
  149MOL    C1738793   3.641   1.208   7.388 -0.0051  0.2636  0.3074
  149MOL    C1838794   3.572   1.341   7.378 -0.5361  0.2417 -0.5375
  149MOL    C1938795   3.720   1.174   7.512  0.1495  0.1356 -0.1495
  149MOL    H2038796   3.757   0.988   7.192  0.0839 -0.2654  0.2795
  149MOL    H2138797   3.746   0.952   7.361 -2.4823  2.1358  1.5286
  149MOL    H2238798   3.584   1.151   7.194  1.7599 -1.5684 -0.7424
  149MOL    H2338799   3.492   1.354   7.451  1.5686  1.8814  1.5766
  149MOL    H2438800   3.541   1.367   7.277  0.7991  0.3229 -0.9356
  149MOL    H2538801   3.651   1.413   7.399  0.6365 -1.0278 -0.5101
  149MOL    H2638802   3.723   1.067   7.533  0.1278  0.4731  1.6616
  149MOL    H2738803   3.662   1.221   7.592 -0.2548  2.0845 -1.5378
  149MOL    C2838804   3.860   1.227   7.501  0.0421 -0.5094 -0.2521
  149MOL    C2938805   3.950   1.185   7.616  0.7406 -0.6311  0.0076
  149MOL    C3038806   4.079   1.156   7.603  0.7883  0.9094  0.4686
  149MOL    C3138807   4.161   1.108   7.724 -0.4429 -0.9302  0.0324
  149MOL    C3238808   4.158   1.164   7.475  0.1850  0.4664 -0.2115
  149MOL    H3338809   3.851   1.336   7.507 -0.0759 -0.5269 -0.0914
  149MOL    H3438810   3.906   1.204   7.405  0.2182  1.3080 -0.6182
  149MOL    H3538811   3.909   1.154   7.711  1.0866 -0.1030  0.3320
  149MOL    H3638812   4.251   1.169   7.733 -1.8050  1.1948 -0.3388
  149MOL    H3738813   4.173   1.001   7.710 -2.6791 -1.2164  0.0744
  149MOL    H3838814   4.106   1.128   7.816 -0.4812  1.2526 -0.4280
  149MOL    H3938815   4.254   1.205   7.504  0.2138 -1.1266  2.0356
  149MOL    H4038816   4.118   1.229   7.397  1.6350 -1.8174 -2.9787
  149MOL    C4138817   4.170   1.025   7.410  0.6682 -0.0390 -0.4832
  149MOL    C4238818   4.083   1.006   7.284  0.3738  1.7557 -0.1533
  149MOL    C4338819   4.107   0.946   7.160 -0.2951 -1.2166 -0.3736
  149MOL    C4438820   4.007   0.939   7.051  0.1881  0.0394 -0.1830
  149MOL    C4538821   4.232   0.859   7.140 -0.3450 -1.2122  0.2508
  149MOL    H4638822   4.148   0.956   7.492  1.0311  0.1923 -0.1906
  149MOL    H4738823   4.277   1.015   7.390  0.8039  0.6889 -0.0976
  149MOL    H4838824   3.984   1.048   7.296  0.2137  1.1541  0.7546
  149MOL    H4938825   4.045   0.892   6.960 -0.1907  0.7155 -0.7038
  149MOL    H5038826   3.956   1.035   7.036 -2.6403 -1.0772  1.9078
  149MOL    H5138827   3.923   0.881   7.088  1.0353 -0.4876  0.9306
  149MOL    H5238828   4.209   0.756   7.111  2.4891 -1.2435 -2.1383
  149MOL    H5338829   4.288   0.844   7.233  0.9008 -2.9081 -0.7316
  149MOL    C5438830   4.326   0.911   7.034  0.7556  0.2434  0.2026
  149MOL    C5538831   4.442   0.813   7.017 -0.2864 -0.1269 -0.5739
  149MOL    C5638832   4.574   0.833   7.050 -0.3373  0.2425 -0.1393
  149MOL    C5738833   4.669   0.717   7.058  0.1328  0.5351  0.9841
  149MOL    C5838834   4.636   0.964   7.093  0.2705  0.1650  0.4167
  149MOL    H5938835   4.363   1.011   7.059  1.1804  0.0936  0.1864
  149MOL    H6038836   4.276   0.910   6.938  0.4087  1.2267  0.3680
  149MOL    H6138837   4.406   0.717   6.983  0.7172 -0.1729 -1.5289
  149MOL    H6238838   4.733   0.720   7.146  0.8737 -1.5672  0.5452
  149MOL    H6338839   4.717   0.709   6.961 -2.4506 -0.6933 -0.2579
  149MOL    H6438840   4.612   0.627   7.081  0.9832  0.1060  1.4239
  149MOL    H6538841   4.729   0.945   7.145  1.2083  0.9101 -0.9591
  149MOL    H6638842   4.567   1.003   7.168  0.2533  1.7839 -0.4240
  149MOL    C6738843   4.655   1.064   6.978 -1.0413 -0.4570 -0.4248
  149MOL    C6838844   4.701   1.207   7.016  0.1459  0.1182  0.1540
  149MOL    C6938845   4.653   1.320   6.966 -0.1452  0.2014  0.6034
  149MOL    C7038846   4.705   1.457   7.005  0.4429  0.1824 -0.0419
  149MOL    C7138847   4.548   1.331   6.855 -1.0532 -0.6964  0.3673
  149MOL    H7238848   4.564   1.067   6.918 -0.5374 -1.4119 -1.2597
  149MOL    H7338849   4.733   1.018   6.917 -0.2247  0.2123  0.1167
  149MOL    H7438850   4.781   1.226   7.086 -0.8549  1.6943  0.8925
  149MOL    H7538851   4.797   1.446   7.062 -0.9750 -0.3266  2.2417
  149MOL    H7638852   4.639   1.513   7.072  0.7147  0.2588  0.1675
  149MOL    H7738853   4.718   1.513   6.913 -0.3796 -1.5556 -1.2326
  149MOL    H7838854   4.501   1.235   6.835 -2.7841  0.4774 -1.4110
  149MOL    H7938855   4.605   1.375   6.773 -1.7214  2.4355  1.5152
  149MOL    C8038856   4.438   1.434   6.876 -0.2828  0.3250 -0.2164
  149MOL    C8138857   4.346   1.415   6.764  0.2298  0.6673 -0.1822
  149MOL    C8238858   4.292   1.510   6.686  0.1764  0.5524  0.5701
  149MOL    C8338859   4.327   1.655   6.681  0.9753  0.1998  0.2564
  149MOL    C8438860   4.182   1.470   6.588  0.3001 -0.2683  0.0309
  149MOL    H8538861   4.472   1.536   6.891 -1.1102  0.3675  1.4839
  149MOL    H8638862   4.379   1.410   6.964 -0.0336  1.8333  0.3701
  149MOL    H8738863   4.307   1.315   6.758 -1.5353  1.0344  3.4938
  149MOL    H8838864   4.249   1.706   6.737  2.1742  2.7553 -0.3529
  149MOL    H8938865   4.350   1.688   6.580  0.9849 -0.9802 -0.1440
  149MOL    H9038866   4.417   1.677   6.738  0.9413 -0.9854  0.7916
  149MOL    H9138867   4.155   1.373   6.629 -1.2825  1.1286  2.3994
  149MOL    H9238868   4.227   1.451   6.490 -1.5097  0.3337 -0.9467
  149MOL    C9338869   4.066   1.564   6.582  0.3278 -0.2794  0.0841
  149MOL    C9438870   3.933   1.496   6.549 -0.0044 -0.1526 -0.0516
  149MOL    C9538871   3.846   1.531   6.452  0.6145  0.7933  0.4777
  149MOL    C9638872   3.720   1.458   6.434  0.1692 -0.4670  0.6206
  149MOL    C9738873   3.856   1.657   6.362 -0.9102 -0.0727  0.9464
  149MOL    H9838874   4.091   1.630   6.499 -1.5813 -0.1537 -0.4250
  149MOL    H9938875   4.044   1.622   6.672 -3.7622  0.3370 -1.1835
  149MOL   H10038876   3.916   1.407   6.608  1.4068 -1.1099 -1.0609
  149MOL   H10138877   3.710   1.375   6.504  1.8837 -1.2734 -0.0667
  149MOL   H10238878   3.640   1.526   6.462 -0.0572  0.3393 -1.8662
  149MOL   H10338879   3.700   1.409   6.339 -3.6739  1.1580  0.5018
  149MOL   H10438880   3.922   1.723   6.419 -0.2411  2.4125 -2.5247
  149MOL   H10538881   3.768   1.722   6.361 -0.6144  0.3219  0.0887
  149MOL   C10638882   3.899   1.628   6.213  0.5926  0.2535  0.2917
  149MOL   C10738883   3.954   1.752   6.139 -0.1658  0.0418  0.1327
  149MOL   C10838884   4.036   1.757   6.028 -0.1668  0.2529  0.1402
  149MOL   C10938885   4.099   1.636   5.957 -0.2258  0.1458  0.0317
  149MOL   C11038886   4.083   1.895   5.980 -0.3857  0.5389 -0.3408
  149MOL   H11138887   3.812   1.596   6.156  0.1109  0.7889  0.7266
  149MOL   H11238888   3.964   1.540   6.217  0.7078  0.3343  0.2015
  149MOL   H11338889   3.918   1.848   6.171  1.5757  0.9188 -0.4545
  149MOL   H11438890   4.041   1.619   5.867  0.8282  0.8769 -0.7944
  149MOL   H11538891   4.203   1.660   5.934  0.1175 -2.8564 -1.7006
  149MOL   H11638892   4.107   1.544   6.014  1.6739  1.5834  2.1682
  149MOL   H11738893   4.186   1.913   6.010 -0.0098 -2.2159  0.0977
  149MOL   H11838894   4.032   1.976   6.032  3.8101  1.9744  1.7275
  149MOL   C11938895   4.091   1.904   5.825 -0.9162  0.2020 -0.2825
  149MOL   C12038896   4.129   2.048   5.795 -0.6271  0.4168 -0.6237
  149MOL   C12138897   4.233   2.093   5.721  0.1285  0.7120 -0.0354
  149MOL   C12238898   4.234   2.242   5.680  0.5098 -0.4300 -0.6455
  149MOL   C12338899   4.341   2.000   5.664  0.5240 -0.0453 -0.6875
  149MOL   H12438900   3.991   1.902   5.782 -0.0036  0.8471 -2.4962
  149MOL   H12538901   4.158   1.831   5.779 -0.3149  0.6839 -0.1878
  149MOL   H12638902   4.047   2.116   5.810 -0.4445  0.6090 -0.5034
  149MOL   H12738903   4.186   2.247   5.582  0.1092  2.0387 -0.3561
  149MOL   H12838904   4.338   2.268   5.660  0.3676  1.3422  0.7866
  149MOL   H12938905   4.193   2.306   5.758  1.2314 -0.7374 -0.0068
  149MOL   H13038906   4.340   1.903   5.712 -1.3964  0.2065 -0.1904
  149MOL   H13138907   4.440   2.041   5.685  0.8221 -0.6705 -0.8594
  149MOL   C13238908   4.332   1.986   5.512 -0.2288  0.2355  0.3971
  149MOL   C13338909   4.451   1.909   5.455  0.0425 -0.5285  0.1039
  149MOL   C13438910   4.551   1.965   5.384  0.0098 -0.0207  0.4517
  149MOL   C13538911   4.675   1.874   5.344  0.2822 -0.1187  0.3228
  149MOL   C13638912   4.558   2.111   5.337  0.3865  0.0616 -0.5699
  149MOL   H13738913   4.331   2.090   5.481  1.7098  0.3354  0.6192
  149MOL   H13838914   4.237   1.939   5.485 -1.0185  2.8250 -1.5138
  149MOL   H13938915   4.457   1.805   5.483  1.8515 -0.5557 -0.3754
  149MOL   H14038916   4.694   1.858   5.238 -2.0121 -0.9315  0.0102
  149MOL   H14138917   4.685   1.774   5.386 -0.6529 -1.3438 -2.2488
  149MOL   H14238918   4.766   1.923   5.378 -0.0901  0.8436 -0.0399
  149MOL   H14338919   4.650   2.120   5.279 -0.5915 -0.7229 -2.3021
  149MOL   H14438920   4.561   2.176   5.424  1.9888  1.2697 -1.5053
  149MOL   C14538921   4.448   2.142   5.239 -0.4010 -1.2116 -0.3686
  149MOL   C14638922   4.444   2.292   5.221 -0.0883  0.2848  0.2104
  149MOL   C14738923   4.343   2.374   5.243  0.3080 -0.5939 -0.4793
  149MOL   C14838924   4.347   2.520   5.206  0.1681  0.0769 -0.4906
  149MOL   C14938925   4.210   2.333   5.303  0.1395 -0.0610 -0.4271
  149MOL   H15038926   4.349   2.101   5.255 -0.8335 -0.4637 -1.0580
  149MOL   H15138927   4.478   2.095   5.145  3.9639 -1.8344  1.2306
  149MOL   H15238928   4.536   2.329   5.178 -0.4138 -1.6391 -2.2726
  149MOL   H15338929   4.256   2.570   5.172  0.7784  2.5659  1.3724
  149MOL   H15438930   4.417   2.541   5.125  1.1119  0.8602  0.5088
  149MOL   H15538931   4.367   2.584   5.292  1.2576  0.7287 -1.2120
  149MOL   H15638932   4.183   2.399   5.386  0.8364 -2.0723  1.4372
  149MOL   H15738933   4.215   2.238   5.356  3.1584  0.9423  1.1927
  149MOL   C15838934   4.094   2.347   5.198  0.1514  0.4898  0.5004
  149MOL   C15938935   4.108   2.244   5.084 -0.1733 -0.0862  0.3394
  149MOL   C16038936   4.000   2.172   5.040  0.3617 -0.1892 -0.4531
  149MOL   C16138937   3.856   2.191   5.095  0.3103  0.5677 -0.2248
  149MOL   C16238938   4.004   2.066   4.936  0.5338  0.2218  0.1900
  149MOL   H16338939   4.074   2.449   5.166  0.5400  0.6413  0.7515
  149MOL   H16438940   4.008   2.321   5.260  0.1504 -1.0087 -0.0973
  149MOL   H16538941   4.202   2.234   5.033 -0.7922 -0.9650 -0.6398
  149MOL   H16638942   3.834   2.291   5.133 -2.9239 -0.5407  0.9629
  149MOL   H16738943   3.840   2.118   5.174 -0.0895  0.0395 -0.7896
  149MOL   H16838944   3.783   2.183   5.014 -1.0097  2.8504  0.6880
  149MOL   H16938945   3.972   1.974   4.984 -0.9023 -0.0210 -1.1557
  149MOL   H17038946   4.111   2.054   4.919  0.6039  0.9309  0.1024
  149MOL   C17138947   3.939   2.099   4.801  0.4470 -0.8668 -0.3255
  149MOL   C17238948   3.956   1.990   4.703  0.0674  0.5881 -0.1697
  149MOL   C17338949   3.964   2.010   4.569 -0.2086  0.4704 -0.5746
  149MOL   C17438950   3.960   2.150   4.507 -0.2032  0.2543  0.0507
  149MOL   C17538951   3.978   1.894   4.471 -0.3473 -0.8373  0.2009
  149MOL   H17638952   4.003   2.181   4.768 -1.7204  0.9229 -0.2173
  149MOL   H17738953   3.840   2.145   4.805 -0.0103 -1.8716 -0.0552
  149MOL   H17838954   3.959   1.886   4.734  0.3143  0.3432 -0.9862
  149MOL   H17938955   3.909   2.225   4.567 -0.3535  0.5372 -0.4211
  149MOL   H18038956   3.939   2.145   4.400 -1.4477 -0.0813  0.2974
  149MOL   H18138957   4.064   2.182   4.510  0.4154 -1.2530 -3.1017
  149MOL   H18238958   3.902   1.900   4.393 -1.4281 -2.2552  1.1260
  149MOL   H18338959   3.971   1.798   4.522  2.9226 -2.4243 -2.1765
  149MOL   C18438960   4.108   1.893   4.392 -0.5767 -0.6472 -0.1220
  149MOL   C18538961   4.096   1.779   4.297  0.0733  0.5636 -1.6817
  149MOL   C18638962   4.059   1.788   4.167 -0.8369  0.1040  0.1806
  149MOL   C18738963   4.039   1.657   4.085  0.2260  0.3061 -0.7045
  149MOL   C18838964   4.030   1.914   4.092  0.5619 -0.4104  0.6799
  149MOL   H18938965   4.202   1.890   4.446 -0.6202  3.0182  0.3248
  149MOL   H19038966   4.106   1.993   4.347  0.7444 -0.9643 -0.9198
  149MOL   H19138967   4.117   1.683   4.343  0.0557  1.6381  0.6672
  149MOL   H19238968   3.939   1.643   4.044 -0.1463 -0.5899  0.4970
  149MOL   H19338969   4.048   1.570   4.149 -0.6811  1.3372  0.8590
  149MOL   H19438970   4.106   1.651   3.998  0.6219 -1.7289 -0.2753
  149MOL   H19538971   4.074   1.892   3.995  0.0183  0.9778  0.1115
  149MOL   H19638972   4.080   2.004   4.128  0.0702  1.6781 -3.5378
  149MOL   C19738973   3.886   1.947   4.071 -0.0056 -0.5547 -0.1247
  149MOL   C19838974   3.865   2.062   3.970  0.0258 -0.1373 -0.3803
  149MOL   C19938975   3.860   2.196   3.994 -0.2426 -0.7186  0.4756
  149MOL   C20038976   3.826   2.300   3.884  0.0051 -0.2096 -0.0803
  149MOL   C20138977   3.865   2.257   4.130  0.2261 -0.7989  0.2016
  149MOL   H20238978   3.854   1.984   4.169  0.3861  1.5015 -0.7511
  149MOL   H20338979   3.817   1.864   4.058  0.5593 -0.9499 -0.6418
  149MOL   H20438980   3.844   2.021   3.872 -1.1868 -1.3582  0.3744
  149MOL   H20538981   3.819   2.244   3.791  0.9852  0.5892 -0.6434
  149MOL   H20638982   3.914   2.361   3.865  1.5243 -2.3694 -0.0676
  149MOL   H20738983   3.744   2.365   3.916  1.1631  1.3413 -0.1809
  149MOL   H20838984   3.893   2.181   4.202  2.7012 -0.5948 -0.4970
  149MOL   H20938985   3.769   2.293   4.165  0.6344 -0.1578  0.6791
  149MOL   C21038986   3.959   2.379   4.145  0.0349  0.8181  0.2598
  149MOL   C21138987   3.959   2.429   4.297 -0.1523 -0.0278  0.3712
  149MOL   C21238988   4.060   2.501   4.356 -0.8087 -0.5231 -0.0512
  149MOL   C21338989   4.038   2.569   4.491  0.0100  0.0187 -0.1147
  149MOL   C21438990   4.196   2.521   4.294 -0.5561  0.1048 -0.2214
  149MOL   H21538991   3.931   2.466   4.085 -1.1554 -0.6175 -1.3019
  149MOL   H21638992   4.060   2.350   4.119 -0.5147 -1.3109  0.4505
  149MOL   H21738993   3.872   2.407   4.357  0.8841  0.9092  2.2578
  149MOL   H21838994   4.121   2.534   4.554 -0.3403  0.2423  0.4772
  149MOL   H21938995   3.945   2.535   4.536 -0.1766 -0.6632 -1.0050
  149MOL   H22038996   4.036   2.675   4.467 -1.3589 -0.3547 -1.7632
  149MOL   H22138997   4.217   2.450   4.214 -2.4541 -0.4045 -0.3007
  149MOL   H22238998   4.268   2.496   4.372  0.0287  1.6565 -0.2410
  149MOL   C22338999   4.217   2.666   4.255 -0.6074 -0.0321 -1.2099
  149MOL   C22439000   4.344   2.684   4.168  0.2298 -0.5957  0.2849
  149MOL   C22539001   4.457   2.754   4.199 -0.5349 -0.3784 -0.0881
  149MOL   C22639002   4.561   2.779   4.091 -0.1740  0.2165  0.1325
  149MOL   C22739003   4.478   2.814   4.339  0.6403  0.4350 -0.4554
  149MOL   H22839004   4.240   2.723   4.345  1.0259  1.6774 -2.6679
  149MOL   H22939005   4.127   2.706   4.209 -0.4426 -0.4579 -1.8972
  149MOL   H23039006   4.338   2.650   4.065  0.2048 -1.6678  0.6400
  149MOL   H23139007   4.665   2.765   4.120 -0.6222 -2.4487  0.5998
  149MOL   H23239008   4.564   2.883   4.059 -0.2086 -0.8202 -3.4345
  149MOL   H23339009   4.535   2.719   4.004 -0.7058 -0.7755  0.9635
  149MOL   H23439010   4.457   2.744   4.419  0.6675 -1.7540 -2.2993
  149MOL   H23539011   4.420   2.905   4.357  1.7069  1.1749 -0.6869
  149MOL   C23639012   4.614   2.864   4.357 -0.1886 -0.0732 -0.0353
  149MOL   C23739013   4.641   2.899   4.499 -0.6139 -0.5651 -0.5922
  149MOL   C23839014   4.657   3.023   4.548 -0.4382  0.0371  0.3881
  149MOL   C23939015   4.684   3.047   4.693 -0.5693  0.3919 -0.5793
  149MOL   C24039016   4.625   3.142   4.466  0.2552 -0.4697 -0.2093
  149MOL   H24139017   4.635   2.946   4.288  1.9303  0.6094  1.3573
  149MOL   H24239018   4.683   2.782   4.336 -0.6839 -0.6246  0.4977
  149MOL   H24339019   4.649   2.813   4.563  1.4447  0.4047  0.4905
  149MOL   H24439020   4.599   3.103   4.732  0.0333  0.8648  0.0730
  149MOL   H24539021   4.778   3.102   4.693 -0.0011 -0.5653 -0.9078
  149MOL   H24639022   4.707   2.963   4.759  0.4314 -0.3400 -1.8472
  149MOL   H24739023   4.568   3.125   4.374  1.5828  2.2502 -1.5737
  149MOL   H24839024   4.719   3.174   4.421 -0.9939  0.1390 -2.4509
  149MOL   C24939025   4.566   3.254   4.544 -0.9175  0.3402 -0.3250
  149MOL   C25039026   4.558   3.379   4.455  0.6079  0.4168 -0.2172
  149MOL   C25139027   4.658   3.455   4.410  0.4733  0.4856 -0.1992
  149MOL   C25239028   4.637   3.565   4.308 -0.5300 -0.3484 -0.5722
  149MOL   C25339029   4.806   3.434   4.455  0.5630 -0.0798  0.2488
  149MOL   H25439030   4.627   3.289   4.628 -1.0085  0.0852 -0.1530
  149MOL   H25539031   4.466   3.236   4.581 -0.1975  0.7662  1.9376
  149MOL   H25639032   4.456   3.397   4.424  0.5799  0.5942 -0.0288
  149MOL   H25739033   4.529   3.575   4.294 -0.2162  1.6710 -1.6937
  149MOL   H25839034   4.687   3.533   4.216 -1.0950 -0.7343 -0.7496
  149MOL   H25939035   4.677   3.660   4.342 -1.9402 -0.6352  1.9302
  149MOL   H26039036   4.849   3.520   4.506 -0.0670 -0.1793  0.9582
  149MOL   H26139037   4.858   3.407   4.363  0.8023  0.4732  0.2190
  149MOL   H26239038   4.828   3.352   4.523 -2.2068 -1.4296 -0.4271
  150MOL     C139039   6.600   1.595   3.248  0.1656 -0.3559 -0.2548
  150MOL     C239040   6.516   1.538   3.140 -0.4054 -0.3556  0.3144
  150MOL     C339041   6.412   1.595   3.081  0.1890 -0.0530 -0.4829
  150MOL     C439042   6.332   1.520   2.979  0.0266  0.7027 -0.1268
  150MOL     C539043   6.342   1.718   3.130 -0.2642 -0.0140 -0.0625
  150MOL     H639044   6.610   1.703   3.243 -0.0156 -0.3011  0.5120
  150MOL     H739045   6.547   1.563   3.338 -1.5692 -1.9864 -1.7967
  150MOL     H839046   6.554   1.444   3.102  0.1151 -0.5419  1.2705
  150MOL     H939047   6.281   1.579   2.903 -1.2867  0.6555  0.7085
  150MOL    H1039048   6.252   1.480   3.041 -2.0571  1.0414 -2.5467
  150MOL    H1139049   6.380   1.436   2.928 -0.9307 -0.8641  1.5185
  150MOL    H1239050   6.305   1.758   3.036 -0.6871  0.1503  0.1731
  150MOL    H1339051   6.414   1.786   3.177 -1.1417 -0.3848  1.8617
  150MOL    H1439052   6.701   1.556   3.258  0.3715  0.1998 -0.1808
  150MOL    C1539053   6.231   1.682   3.228  0.3126 -0.2604  0.2158
  150MOL    C1639054   6.138   1.802   3.224  0.2854 -0.0027  0.5817
  150MOL    C1739055   6.085   1.867   3.333 -0.2376 -0.0638 -0.4609
  150MOL    C1839056   5.976   1.974   3.324 -0.3681  0.2792 -0.1945
  150MOL    C1939057   6.126   1.818   3.475 -0.3751 -0.3928  0.1615
  150MOL    H2039058   6.282   1.657   3.321  0.7125 -0.9197 -0.1725
  150MOL    H2139059   6.169   1.599   3.193  1.9914 -1.5289  0.1563
  150MOL    H2239060   6.115   1.831   3.122 -1.3946 -1.3225  0.5774
  150MOL    H2339061   6.026   2.070   3.340 -0.9360  0.6312 -0.5338
  150MOL    H2439062   5.902   1.974   3.404 -0.0518 -0.4904  0.1063
  150MOL    H2539063   5.932   1.984   3.225 -0.6181  0.2583 -0.0859
  150MOL    H2639064   6.229   1.786   3.485 -0.3121  0.0378  0.8980
  150MOL    H2739065   6.063   1.731   3.496 -1.2862  0.0745 -0.5793
  150MOL    C2839066   6.117   1.933   3.587  0.5992 -0.2660 -0.5024
  150MOL    C2939067   6.129   1.875   3.732  0.2018 -0.4184  0.3999
  150MOL    C3039068   6.244   1.868   3.808 -0.3471  0.1989 -0.1495
  150MOL    C3139069   6.244   1.796   3.935 -0.0896 -0.3310 -0.4285
  150MOL    C3239070   6.380   1.928   3.764  0.1971 -0.6262 -0.2360
  150MOL    H3339071   6.022   1.986   3.587  0.2117 -0.7821  3.2876
  150MOL    H3439072   6.190   2.013   3.577 -2.0681  2.2023 -0.8489
  150MOL    H3539073   6.045   1.824   3.776  1.6255 -0.4371  3.2030
  150MOL    H3639074   6.308   1.850   4.004 -0.5205  0.0365 -0.3092
  150MOL    H3739075   6.272   1.691   3.925 -0.8551 -0.4808 -1.1636
  150MOL    H3839076   6.142   1.798   3.975  0.4567  0.3144  0.9560
  150MOL    H3939077   6.412   1.987   3.850  0.0068 -1.3455  0.3336
  150MOL    H4039078   6.370   2.001   3.683  0.6665 -1.7659 -1.3374
  150MOL    C4139079   6.482   1.822   3.724  0.0190  0.2403  0.0129
  150MOL    C4239080   6.632   1.868   3.732 -0.5721 -0.1386 -0.3243
  150MOL    C4339081   6.719   1.891   3.630 -0.0265 -0.0581  0.3666
  150MOL    C4439082   6.858   1.941   3.659 -0.2064  0.3359 -0.0926
  150MOL    C4539083   6.682   1.885   3.482 -0.9913  0.2127  0.1350
  150MOL    H4639084   6.453   1.795   3.623 -1.2857 -0.0346  0.4497
  150MOL    H4739085   6.481   1.730   3.782 -1.7816  0.2817  0.0847
  150MOL    H4839086   6.657   1.880   3.836 -0.8109  0.6200 -0.3527
  150MOL    H4939087   6.861   2.048   3.639 -0.2831  0.1404 -1.2075
  150MOL    H5039088   6.932   1.898   3.592  0.8519  0.2096  1.1517
  150MOL    H5139089   6.887   1.923   3.762  0.2928  0.3202 -0.2345
  150MOL    H5239090   6.588   1.832   3.467 -0.7358  0.1905 -1.5220
  150MOL    H5339091   6.764   1.839   3.426  0.4087  0.4992  1.9296
  150MOL    C5439092   6.659   2.026   3.440  0.3414 -0.1819  0.2901
  150MOL    C5539093   6.602   2.038   3.301 -0.1603  0.0811 -0.8186
  150MOL    C5639094   6.480   2.076   3.261 -0.1902 -0.5929 -0.5578
  150MOL    C5739095   6.453   2.097   3.112  0.0884 -0.9570 -0.6915
  150MOL    C5839096   6.362   2.102   3.361  0.5715  0.7958 -0.5755
  150MOL    H5939097   6.749   2.088   3.444 -1.5270  2.7926 -1.7395
  150MOL    H6039098   6.592   2.068   3.515  0.5680  2.4012 -0.8924
  150MOL    H6139099   6.679   2.016   3.230  1.0909 -1.4337  0.9790
  150MOL    H6239100   6.457   2.199   3.073 -2.1597 -0.1804  0.9606
  150MOL    H6339101   6.361   2.041   3.094  1.2789 -2.5680 -1.9626
  150MOL    H6439102   6.533   2.048   3.057 -1.0234 -0.5555 -2.6940
  150MOL    H6539103   6.388   2.075   3.464  1.8957  1.2943 -0.7643
  150MOL    H6639104   6.278   2.040   3.330  0.7777  0.5536 -0.6572
  150MOL    C6739105   6.305   2.245   3.352  0.3686  0.2595  0.1845
  150MOL    C6839106   6.202   2.271   3.241  0.7185  0.1588  0.5955
  150MOL    C6939107   6.162   2.398   3.202 -0.3648  0.1160 -0.5110
  150MOL    C7039108   6.079   2.432   3.079  0.0992  0.7118  0.8532
  150MOL    C7139109   6.217   2.525   3.270 -0.0669 -0.1320 -0.4211
  150MOL    H7239110   6.389   2.316   3.347 -0.6975  1.5820  0.6381
  150MOL    H7339111   6.242   2.261   3.439  2.3391  1.8623  1.3822
  150MOL    H7439112   6.170   2.184   3.185 -0.7904  1.9610 -1.4190
  150MOL    H7539113   6.047   2.351   3.013 -1.3098  2.0364 -0.1348
  150MOL    H7639114   6.131   2.502   3.015 -2.4001  0.1999 -1.8519
  150MOL    H7739115   5.988   2.482   3.115  1.2774  3.4960  0.0831
  150MOL    H7839116   6.260   2.496   3.366  0.9361 -0.2330 -0.8870
  150MOL    H7939117   6.148   2.605   3.294  0.0866 -0.4037  0.9433
  150MOL    C8039118   6.321   2.596   3.179  0.6471 -0.4465  0.2378
  150MOL    C8139119   6.403   2.702   3.257  0.5512 -0.0647 -0.4491
  150MOL    C8239120   6.533   2.698   3.310 -0.4683  0.0242  0.0502
  150MOL    C8339121   6.622   2.575   3.297 -0.9904  0.3244  0.3292
  150MOL    C8439122   6.591   2.821   3.373 -0.2609  0.1944 -0.7522
  150MOL    H8539123   6.270   2.644   3.096 -0.1137 -0.2814  0.7929
  150MOL    H8639124   6.375   2.505   3.153 -0.3465 -1.9801  3.2810
  150MOL    H8739125   6.345   2.792   3.269  0.4931 -0.2449  0.7001
  150MOL    H8839126   6.709   2.604   3.238 -1.2936 -1.9460 -1.2881
  150MOL    H8939127   6.578   2.488   3.248 -0.1864  1.1726 -1.9701
  150MOL    H9039128   6.656   2.544   3.396  1.7400 -0.7040 -0.8844
  150MOL    H9139129   6.543   2.910   3.332 -1.6579 -1.2860 -2.3915
  150MOL    H9239130   6.693   2.845   3.343 -0.4589  2.6122  0.3649
  150MOL    C9339131   6.588   2.816   3.524  0.4797  0.1677 -0.4404
  150MOL    C9439132   6.655   2.936   3.580 -0.1820 -0.2524  0.1952
  150MOL    C9539133   6.632   2.990   3.704  0.2329 -0.8240 -0.2852
  150MOL    C9639134   6.712   3.104   3.752  0.0389  0.0736  0.2370
  150MOL    C9739135   6.514   2.960   3.807 -0.4010  0.5367 -0.2743
  150MOL    H9839136   6.636   2.732   3.574  1.8684  0.5561 -1.0990
  150MOL    H9939137   6.484   2.810   3.558  0.6643  0.3044  0.1656
  150MOL   H10039138   6.729   2.988   3.522 -0.1611 -0.7820 -0.2482
  150MOL   H10139139   6.643   3.188   3.748  0.3253  0.2668 -0.8370
  150MOL   H10239140   6.745   3.084   3.854  0.2590  4.0713  1.0448
  150MOL   H10339141   6.795   3.122   3.684 -1.1510  1.3168 -0.9242
  150MOL   H10439142   6.460   2.875   3.765  1.7133 -1.9505  1.8644
  150MOL   H10539143   6.442   3.041   3.818 -1.3948 -0.1274 -1.6424
  150MOL   C10639144   6.562   2.910   3.936 -0.1181 -0.4234  0.7178
  150MOL   C10739145   6.454   2.905   4.041 -0.4495 -0.1035 -0.1862
  150MOL   C10839146   6.452   2.818   4.143  0.5024 -0.5235  0.0271
  150MOL   C10939147   6.538   2.696   4.155 -0.2694 -0.5993 -0.5139
  150MOL   C11039148   6.343   2.835   4.245  0.4372  0.0042 -0.2801
  150MOL   H11139149   6.637   2.977   3.977 -0.7375 -0.7337  2.4282
  150MOL   H11239150   6.603   2.812   3.915  3.5654  0.9193  1.3530
  150MOL   H11339151   6.377   2.980   4.031  0.3174  0.8337  0.8842
  150MOL   H11439152   6.560   2.685   4.261  1.8282 -1.9606 -1.0601
  150MOL   H11539153   6.482   2.609   4.120  0.4924 -1.3431  0.0999
  150MOL   H11639154   6.637   2.700   4.111 -1.0245 -0.1191 -2.1939
  150MOL   H11739155   6.287   2.927   4.228  0.1985 -0.2107 -0.6623
  150MOL   H11839156   6.385   2.832   4.345 -0.0022  2.6225  0.0130
  150MOL   C11939157   6.228   2.730   4.222  0.3156 -0.6161 -0.3397
  150MOL   C12039158   6.099   2.742   4.308  0.4974  0.0370  0.1236
  150MOL   C12139159   6.032   2.644   4.374  0.1310 -0.0214  0.3364
  150MOL   C12239160   5.907   2.678   4.460 -0.8307 -0.2225 -0.2033
  150MOL   C12339161   6.067   2.492   4.366 -0.9061  0.1889  0.4156
  150MOL   H12439162   6.260   2.626   4.214 -0.1900 -0.7842 -0.2007
  150MOL   H12539163   6.187   2.751   4.123  0.3409  2.1050  0.1830
  150MOL   H12639164   6.058   2.842   4.310  4.1137  1.6382  4.8608
  150MOL   H12739165   5.889   2.785   4.464 -1.2545 -0.2998  0.0009
  150MOL   H12839166   5.923   2.648   4.563  1.9887  3.8103  0.6225
  150MOL   H12939167   5.820   2.622   4.423  0.0050 -0.4037 -1.9118
  150MOL   H13039168   6.015   2.443   4.448  1.0064 -2.3706  0.1807
  150MOL   H13139169   6.174   2.475   4.380 -0.8035  0.4932  0.0118
  150MOL   C13239170   6.011   2.436   4.242  0.0740  0.3491 -0.1334
  150MOL   C13339171   6.032   2.287   4.236 -0.1390  0.0092  0.4304
  150MOL   C13439172   6.122   2.218   4.161 -0.6847 -0.0727  0.2287
  150MOL   C13539173   6.123   2.065   4.150  0.0522  0.6712 -0.0802
  150MOL   C13639174   6.233   2.286   4.083 -0.6320 -0.8732 -0.3712
  150MOL   H13739175   6.053   2.486   4.155  1.6917  0.4275  0.6845
  150MOL   H13839176   5.906   2.467   4.242  0.5263  1.9269  1.0394
  150MOL   H13939177   5.960   2.229   4.292 -1.4968 -0.0811 -1.3386
  150MOL   H14039178   6.071   2.020   4.234  0.2351 -2.1970 -1.4710
  150MOL   H14139179   6.220   2.017   4.144  0.2463  1.1563 -0.8900
  150MOL   H14239180   6.078   2.037   4.054  0.9533 -0.4375 -0.1850
  150MOL   H14339181   6.317   2.218   4.072 -1.2676 -1.6371 -0.5340
  150MOL   H14439182   6.259   2.380   4.133 -0.1708 -0.7908 -0.7676
  150MOL   C14539183   6.185   2.317   3.942  0.6577  0.0901  0.2939
  150MOL   C14639184   6.295   2.372   3.852 -0.5278  0.2054  0.2736
  150MOL   C14739185   6.303   2.490   3.793  0.1974 -0.3729 -0.2608
  150MOL   C14839186   6.430   2.529   3.713  0.1390 -0.6995 -0.1686
  150MOL   C14939187   6.195   2.594   3.793  0.6291 -0.6448  0.1302
  150MOL   H15039188   6.104   2.390   3.953  1.5907  0.7965  2.6733
  150MOL   H15139189   6.147   2.226   3.895 -0.2832  0.3241  0.5901
  150MOL   H15239190   6.376   2.302   3.841  0.2524  1.0294  0.7460
  150MOL   H15339191   6.504   2.451   3.730  0.6974  0.2163  1.8502
  150MOL   H15439192   6.453   2.626   3.756  0.6783  0.5258 -3.0961
  150MOL   H15539193   6.405   2.538   3.608 -1.4738 -1.0061  0.1778
  150MOL   H15639194   6.230   2.684   3.845 -2.2551  1.3846 -1.3383
  150MOL   H15739195   6.105   2.573   3.851  2.0199 -0.1605  2.5702
  150MOL   C15839196   6.153   2.633   3.651 -0.1250  0.0332  0.1470
  150MOL   C15939197   6.087   2.520   3.574 -0.1070 -0.2945  0.3231
  150MOL   C16039198   5.969   2.521   3.514 -0.0219 -0.1713 -0.0302
  150MOL   C16139199   5.888   2.648   3.485  0.2301 -0.0967 -0.0370
  150MOL   C16239200   5.917   2.393   3.435  1.5395  0.1569 -0.6346
  150MOL   H16339201   6.238   2.679   3.600  2.7015 -3.4663  1.4456
  150MOL   H16439202   6.082   2.715   3.661  0.1248  0.1299  1.2288
  150MOL   H16539203   6.140   2.426   3.563 -1.9483 -1.2977 -0.2425
  150MOL   H16639204   5.786   2.612   3.477  0.3617 -0.8458  1.5206
  150MOL   H16739205   5.917   2.694   3.390  1.0024 -0.2892  0.0995
  150MOL   H16839206   5.894   2.724   3.564  0.4451  1.0966 -1.1746
  150MOL   H16939207   5.983   2.308   3.418  2.1343  0.3382  0.7736
  150MOL   H17039208   5.893   2.425   3.333  1.9186  0.1321 -0.7318
  150MOL   C17139209   5.803   2.319   3.503 -0.4182 -0.1804  0.2412
  150MOL   C17239210   5.851   2.255   3.628  1.1741 -0.3521  0.2365
  150MOL   C17339211   5.794   2.151   3.685 -0.0795  0.7749 -0.0873
  150MOL   C17439212   5.675   2.072   3.628  0.2152 -0.0243 -0.3503
  150MOL   C17539213   5.854   2.097   3.815 -0.0011  0.1743 -0.2211
  150MOL   H17639214   5.754   2.257   3.428 -1.7208  1.9571 -0.6953
  150MOL   H17739215   5.733   2.393   3.541  0.3260  0.7939 -0.2612
  150MOL   H17839216   5.931   2.311   3.676 -0.8637  3.4640 -0.6058
  150MOL   H17939217   5.596   2.049   3.699  1.7073  0.8431  1.6804
  150MOL   H18039218   5.700   1.976   3.585  0.3356 -0.0778 -0.1629
  150MOL   H18139219   5.628   2.138   3.555 -0.2745  2.7886  2.3672
  150MOL   H18239220   5.954   2.138   3.820  0.8427 -1.8209 -0.0647
  150MOL   H18339221   5.872   1.989   3.813 -0.1248  0.1114  1.3201
  150MOL   C18439222   5.787   2.139   3.954 -0.5172  0.4687  0.3232
  150MOL   C18539223   5.794   2.286   3.974 -0.4141 -0.2086  0.0225
  150MOL   C18639224   5.684   2.372   3.981 -0.7225  0.2146  0.2226
  150MOL   C18739225   5.711   2.519   4.006 -0.1559  0.2942  0.4766
  150MOL   C18839226   5.541   2.327   3.965 -0.7707  0.4150 -0.5658
  150MOL   H18939227   5.861   2.104   4.026 -0.5276  1.7283  0.9543
  150MOL   H19039228   5.695   2.083   3.971  0.3383 -1.1846 -0.3399
  150MOL   H19139229   5.892   2.329   3.990  0.2463 -1.8547  0.5153
  150MOL   H19239230   5.648   2.563   4.084 -1.9008  0.1468 -0.8378
  150MOL   H19339231   5.708   2.578   3.915  1.9443  1.5988  1.1981
  150MOL   H19439232   5.809   2.540   4.050 -1.5065  1.7806  2.9571
  150MOL   H19539233   5.539   2.233   3.910  0.4490 -0.8563  1.5022
  150MOL   H19639234   5.480   2.405   3.918 -3.8330 -1.0360  0.8427
  150MOL   C19739235   5.495   2.302   4.110  0.0839  0.1966 -0.0041
  150MOL   C19839236   5.421   2.419   4.187  0.1042  0.6147 -0.1725
  150MOL   C19939237   5.428   2.439   4.319 -0.3877 -0.1465  0.2690
  150MOL   C20039238   5.349   2.550   4.383 -0.2015 -1.0200  0.3103
  150MOL   C20139239   5.510   2.346   4.415  0.5403 -0.4471  0.1079
  150MOL   H20239240   5.577   2.269   4.175  0.0196  1.1075  0.5468
  150MOL   H20339241   5.434   2.213   4.124  0.2105  0.1262  0.1147
  150MOL   H20439242   5.362   2.482   4.122 -3.6372 -1.5472  0.9415
  150MOL   H20539243   5.308   2.618   4.309  1.7307 -0.7422 -0.5323
  150MOL   H20639244   5.420   2.603   4.447 -1.5620  1.6382 -0.3281
  150MOL   H20739245   5.271   2.503   4.443  0.0945 -0.9249  0.7764
  150MOL   H20839246   5.493   2.242   4.387  1.5571 -0.2988 -1.0665
  150MOL   H20939247   5.481   2.353   4.520  1.2169  1.0034  0.2109
  150MOL   C21039248   5.663   2.387   4.423  0.9616 -0.2375  0.5731
  150MOL   C21139249   5.749   2.272   4.471  0.4595  0.4330 -0.3513
  150MOL   C21239250   5.823   2.247   4.583  0.5298  0.2039  0.6347
  150MOL   C21339251   5.892   2.108   4.598  0.3202  0.2944 -0.3088
  150MOL   C21439252   5.839   2.356   4.696  0.1914 -0.5367  0.1406
  150MOL   H21539253   5.674   2.475   4.487 -0.4070  2.6998 -3.0377
  150MOL   H21639254   5.704   2.427   4.330  0.8082  0.6425  0.8758
  150MOL   H21739255   5.746   2.192   4.399  4.1570 -0.4124  0.2954
  150MOL   H21839256   5.946   2.077   4.508 -1.6340  0.6348 -1.6335
  150MOL   H21939257   5.816   2.034   4.621 -1.4298  2.6106  1.5939
  150MOL   H22039258   5.965   2.105   4.679  0.9922  1.9103 -0.8269
  150MOL   H22139259   5.824   2.457   4.657  1.5761  0.2280  1.4937
  150MOL   H22239260   5.946   2.364   4.717  0.0641 -0.4515  0.7811
  150MOL   C22339261   5.763   2.324   4.826  0.2881 -0.2665 -0.0395
  150MOL   C22439262   5.819   2.211   4.912  0.6445  0.8888 -0.7518
  150MOL   C22539263   5.757   2.146   5.011 -0.3710  0.1239 -0.1868
  150MOL   C22639264   5.828   2.027   5.081 -0.0180  0.0442  0.3972
  150MOL   C22739265   5.608   2.155   5.031  1.6071  0.5488  0.4756
  150MOL   H22839266   5.659   2.307   4.798  0.5917 -1.4050 -0.4900
  150MOL   H22939267   5.770   2.414   4.887  0.1055  0.9352 -1.7537
  150MOL   H23039268   5.924   2.185   4.902  0.4088 -1.0036  1.2886
  150MOL   H23139269   5.823   2.035   5.190 -1.0456 -0.4922  0.3966
  150MOL   H23239270   5.935   2.035   5.068 -0.3900  2.4486 -1.5806
  150MOL   H23339271   5.786   1.929   5.055  2.7392 -0.8548 -0.7703
  150MOL   H23439272   5.571   2.258   5.027 -0.4195 -0.2197 -2.2118
  150MOL   H23539273   5.588   2.123   5.133  0.4586 -1.9812 -0.5200
  150MOL   C23639274   5.535   2.063   4.927  0.2444  0.2700 -0.2537
  150MOL   C23739275   5.382   2.063   4.944 -0.1824  0.0085  0.2254
  150MOL   C23839276   5.296   1.963   4.981  0.3769 -0.2246 -0.0143
  150MOL   C23939277   5.148   1.990   5.013 -0.0678 -0.4163 -0.0932
  150MOL   C24039278   5.337   1.813   4.995 -0.4434  0.0049 -0.2428
  150MOL   H24139279   5.581   1.966   4.945  0.7251  0.7400  1.1231
  150MOL   H24239280   5.554   2.091   4.824 -0.5450  1.7573 -0.0050
  150MOL   H24339281   5.349   2.164   4.926  1.5328  0.5064 -0.2370
  150MOL   H24439282   5.137   1.962   5.118  0.7148 -2.4175 -0.5089
  150MOL   H24539283   5.085   1.922   4.955  0.3901 -1.7820  0.9595
  150MOL   H24639284   5.133   2.094   4.985 -2.4149 -0.1206  2.0889
  150MOL   H24739285   5.429   1.792   4.942  0.6116  4.0416 -0.1880
  150MOL   H24839286   5.268   1.754   4.934  1.1875  0.1844 -2.3090
  150MOL   C24939287   5.343   1.769   5.148 -0.3589  0.1389  0.2229
  150MOL   C25039288   5.354   1.620   5.156 -0.5041  0.4273 -1.0241
  150MOL   C25139289   5.256   1.542   5.204  0.4374 -0.2144 -0.7900
  150MOL   C25239290   5.277   1.391   5.209  0.2033 -0.0653  0.3901
  150MOL   C25339291   5.125   1.590   5.267  1.2051 -0.6983 -0.0455
  150MOL   H25439292   5.271   1.816   5.214 -0.0179 -1.2127  1.5833
  150MOL   H25539293   5.442   1.793   5.187 -0.0941 -0.8295  0.1690
  150MOL   H25639294   5.445   1.580   5.116  0.9026 -0.2400  2.5943
  150MOL   H25739295   5.236   1.341   5.122  0.1726 -2.0840  1.5481
  150MOL   H25839296   5.222   1.349   5.293  1.3071  1.2104  1.7888
  150MOL   H25939297   5.380   1.363   5.228 -0.1520  0.8472  4.2102
  150MOL   H26039298   5.065   1.506   5.234  0.2193  0.0087 -0.0662
  150MOL   H26139299   5.092   1.692   5.251 -0.9041 -0.9043  2.5890
  150MOL   H26239300   5.131   1.584   5.376  0.2019  1.8092  0.1809
  151MOL     C139301   0.505   3.840   2.343  0.7885 -0.1873 -0.1152
  151MOL     C239302   0.430   3.714   2.319  0.0928  0.1147 -0.2221
  151MOL     C339303   0.398   3.655   2.201 -0.3140 -0.1966  0.1671
  151MOL     C439304   0.318   3.525   2.190 -0.3613  0.1317 -0.0192
  151MOL     C539305   0.435   3.711   2.064  0.1602  0.1657  0.4645
  151MOL     H639306   0.445   3.912   2.398 -0.2522  0.2293 -1.7923
  151MOL     H739307   0.583   3.808   2.413 -0.3035 -3.0723 -0.1616
  151MOL     H839308   0.385   3.663   2.403  0.2892 -1.2667 -0.9413
  151MOL     H939309   0.292   3.487   2.289 -0.6582  1.6341  0.4934
  151MOL    H1039310   0.368   3.442   2.140 -1.8644 -1.4403  1.0133
  151MOL    H1139311   0.220   3.548   2.149 -0.0156  1.1099 -0.3009
  151MOL    H1239312   0.480   3.810   2.074  0.1541  0.3193 -0.8944
  151MOL    H1339313   0.343   3.733   2.009  0.3514 -0.5058 -0.1299
  151MOL    H1439314   0.554   3.887   2.258 -0.2633 -0.2533 -0.7617
  151MOL    C1539315   0.519   3.630   1.963 -0.0691  0.2884 -0.5429
  151MOL    C1639316   0.515   3.692   1.830  0.2377 -1.1016  0.7439
  151MOL    C1739317   0.495   3.631   1.709  0.1046  0.3278  0.2514
  151MOL    C1839318   0.514   3.719   1.584  0.0098  0.6403  0.1490
  151MOL    C1939319   0.476   3.483   1.680 -0.4903 -0.3258 -0.3770
  151MOL    H2039320   0.486   3.527   1.954 -3.7390  1.3847 -0.9082
  151MOL    H2139321   0.619   3.628   2.004 -1.1147  0.5864  2.0851
  151MOL    H2239322   0.537   3.798   1.826 -1.8114 -0.5601  2.4634
  151MOL    H2339323   0.539   3.822   1.612 -1.9330  0.9599  0.7711
  151MOL    H2439324   0.416   3.728   1.538  1.3290 -0.0909 -2.9133
  151MOL    H2539325   0.587   3.679   1.514 -0.3429  0.1874  0.0347
  151MOL    H2639326   0.506   3.420   1.764  0.1475 -1.2504 -1.2835
  151MOL    H2739327   0.542   3.460   1.596  0.5785  0.1384  0.3272
  151MOL    C2839328   0.332   3.451   1.630  0.1602  0.5749  0.2795
  151MOL    C2939329   0.299   3.305   1.611 -0.2465 -0.0906  0.1439
  151MOL    C3039330   0.234   3.221   1.689 -0.5108  0.5299 -0.3098
  151MOL    C3139331   0.221   3.073   1.652  0.6822 -0.4582  0.1833
  151MOL    C3239332   0.157   3.260   1.817  0.5311  0.3348 -0.3683
  151MOL    H3339333   0.309   3.502   1.536  0.2497 -1.4396 -0.8574
  151MOL    H3439334   0.258   3.497   1.697  0.2679  1.8196 -0.4414
  151MOL    H3539335   0.343   3.255   1.525 -0.8933  0.0922 -0.3021
  151MOL    H3639336   0.297   3.047   1.578  2.3941  2.0185  1.0183
  151MOL    H3739337   0.125   3.066   1.600  0.8341 -0.8360 -0.0486
  151MOL    H3839338   0.236   3.024   1.748 -0.0368  0.0509  0.5636
  151MOL    H3939339   0.194   3.361   1.834  2.9460 -0.9661  2.7603
  151MOL    H4039340   0.176   3.200   1.906  2.0034  0.0689 -0.8573
  151MOL    C4139341   0.004   3.267   1.791 -0.2097 -0.2358 -0.6578
  151MOL    C4239342   7.815   3.129   1.785 -0.0492  0.3387 -0.3792
  151MOL    C4339343   7.741   3.079   1.685  0.1746 -0.5634 -0.5119
  151MOL    C4439344   7.687   2.938   1.687  0.5205  0.2223  0.5841
  151MOL    C4539345   7.691   3.154   1.563  0.2086 -0.4072 -0.3453
  151MOL    H4639346   7.856   3.318   1.699 -1.5081  0.6411  0.1929
  151MOL    H4739347   7.824   3.325   1.862  3.6251  0.2418  2.2499
  151MOL    H4839348   7.836   3.064   1.868  1.4621  0.1322 -0.8981
  151MOL    H4939349   7.698   2.892   1.589 -0.5466 -1.1256  1.0815
  151MOL    H5039350   7.585   2.944   1.725  0.0891  0.8957 -0.6372
  151MOL    H5139351   7.748   2.882   1.758  1.8241  0.5232 -0.2732
  151MOL    H5239352   7.699   3.262   1.575 -1.5920 -0.4377  1.4744
  151MOL    H5339353   7.591   3.126   1.532  0.6484 -1.2389 -1.0223
  151MOL    C5439354   7.776   3.109   1.444  1.1633 -0.2221  0.5675
  151MOL    C5539355   7.744   3.165   1.304  0.7669 -0.4670  0.6788
  151MOL    C5639356   7.842   3.167   1.209  0.6021 -0.3047  0.4778
  151MOL    C5739357   7.809   3.231   1.071 -0.1661  0.2665 -0.0850
  151MOL    C5839358   0.102   3.118   1.220 -0.0612  0.4516 -0.0326
  151MOL    H5939359   7.784   3.001   1.434  3.2734 -0.2969  2.4791
  151MOL    H6039360   7.876   3.147   1.465  0.6801  1.4725 -0.1171
  151MOL    H6139361   7.645   3.206   1.288 -0.4878 -3.6430  0.0176
  151MOL    H6239362   7.855   3.330   1.068 -0.6247  0.4490 -1.6328
  151MOL    H6339363   7.701   3.236   1.056  0.1054  1.4161 -1.8536
  151MOL    H6439364   7.858   3.172   0.994 -0.2194  0.8090 -0.5442
  151MOL    H6539365   0.130   3.060   1.133 -2.1208 -0.7041  0.0333
  151MOL    H6639366   0.109   3.047   1.302 -0.5421  1.0198  0.5015
  151MOL    C6739367   0.198   3.245   1.223  0.7709  0.4177  0.1134
  151MOL    C6839368   0.337   3.209   1.235 -0.4208  1.1885 -0.0095
  151MOL    C6939369   0.434   3.299   1.257 -0.1152  0.1595  0.0981
  151MOL    C7039370   0.575   3.246   1.289  0.1634 -0.3438  0.1620
  151MOL    C7139371   0.425   3.454   1.261 -0.3718  1.0351  0.5008
  151MOL    H7239372   0.170   3.306   1.310 -1.1535 -0.0882 -0.1155
  151MOL    H7339373   0.190   3.302   1.130 -2.5727  0.1894  0.2038
  151MOL    H7439374   0.373   3.107   1.239  0.4424  1.4909  0.0013
  151MOL    H7539375   0.573   3.138   1.274 -0.2142 -0.2741 -0.2788
  151MOL    H7639376   0.617   3.267   1.387  2.2206 -0.6880 -0.6311
  151MOL    H7739377   0.654   3.287   1.226  1.0302 -0.1107  1.3857
  151MOL    H7839378   0.466   3.498   1.353 -0.3430 -0.1891  1.0771
  151MOL    H7939379   0.319   3.476   1.257 -0.5220  0.1368 -0.8117
  151MOL    C8039380   0.478   3.523   1.131 -0.4086  0.1097  0.0922
  151MOL    C8139381   0.497   3.672   1.151  0.1656 -0.8553  0.3355
  151MOL    C8239382   0.614   3.734   1.179  0.5166  0.0182  0.1437
  151MOL    C8339383   0.747   3.649   1.197 -0.1973  0.5735  0.2554
  151MOL    C8439384   0.628   3.885   1.181  0.1700  0.7085 -0.7501
  151MOL    H8539385   0.411   3.500   1.048  0.4350 -1.2006 -0.2423
  151MOL    H8639386   0.568   3.478   1.090 -0.0207  1.3492 -0.4515
  151MOL    H8739387   0.410   3.736   1.147 -1.1281 -2.6407 -0.6045
  151MOL    H8839388   0.798   3.652   1.101 -0.7246  0.2746 -0.0360
  151MOL    H8939389   0.726   3.545   1.221 -1.6350  1.0188  0.9935
  151MOL    H9039390   0.809   3.689   1.277 -0.4924 -0.1957  0.8676
  151MOL    H9139391   0.529   3.926   1.165 -0.1877 -0.4096 -1.4096
  151MOL    H9239392   0.686   3.917   1.094  2.7717 -0.1179  0.6301
  151MOL    C9339393   0.671   3.946   1.321 -0.0540  0.4095  0.8743
  151MOL    C9439394   0.666   4.092   1.322  0.6094 -0.1207 -0.2676
  151MOL    C9539395   0.630   4.175   1.423  0.5465  0.0530 -0.0517
  151MOL    C9639396   0.614   4.326   1.408 -0.2859 -0.7780  0.4949
  151MOL    C9739397   0.597   4.125   1.561 -0.0785 -0.2499  0.2114
  151MOL    H9839398   0.769   3.913   1.355  1.1638 -0.3162 -3.1829
  151MOL    H9939399   0.596   3.906   1.390  0.0723 -0.1680  0.6695
  151MOL   H10039400   0.685   4.132   1.224 -0.3488 -0.2862 -0.5236
  151MOL   H10139401   0.659   4.367   1.318  1.5198  0.7373  2.0477
  151MOL   H10239402   0.509   4.356   1.408 -0.0900 -0.0351 -1.1298
  151MOL   H10339403   0.660   4.377   1.493 -0.2072 -2.6353  1.5969
  151MOL   H10439404   0.554   4.025   1.553  1.4610 -0.7964 -1.5385
  151MOL   H10539405   0.528   4.196   1.607  1.8028  0.7189  1.5830
  151MOL   C10639406   0.723   4.121   1.646 -0.0907  0.6628 -0.2417
  151MOL   C10739407   0.694   4.073   1.786 -1.5552 -0.4177  0.8536
  151MOL   C10839408   0.651   4.146   1.889  0.4584  0.2888 -0.8714
  151MOL   C10939409   0.633   4.299   1.885 -0.4395  0.0991 -0.0113
  151MOL   C11039410   0.641   4.076   2.027 -0.3242 -0.9128 -0.3920
  151MOL   H11139411   0.790   4.207   1.643  0.2096  0.4171 -0.5956
  151MOL   H11239412   0.789   4.044   1.606 -0.6215  0.4404 -0.7040
  151MOL   H11339413   0.724   3.973   1.812  0.1671 -0.3929 -0.9135
  151MOL   H11439414   0.592   4.326   1.787  0.3036  0.0318 -0.3395
  151MOL   H11539415   0.559   4.337   1.955  1.7875  2.2562  1.2389
  151MOL   H11639416   0.729   4.348   1.900  0.9344 -2.6778  0.6235
  151MOL   H11739417   0.637   3.967   2.020 -0.3304 -0.8615 -1.2164
  151MOL   H11839418   0.546   4.114   2.065  0.2141  1.2894 -1.2026
  151MOL   C11939419   0.747   4.105   2.128  0.2147 -0.3303  0.7387
  151MOL   C12039420   0.876   4.046   2.078  0.2062 -0.3215 -0.4531
  151MOL   C12139421   0.987   4.112   2.041  0.1916  0.6318  0.3215
  151MOL   C12239422   1.110   4.029   1.995  1.3561  0.2965  0.0198
  151MOL   C12339423   1.002   4.266   2.034  0.1227  0.1157  0.1079
  151MOL   H12439424   0.717   4.071   2.227  0.1672 -0.7084  0.5953
  151MOL   H12539425   0.751   4.212   2.147  1.5279 -0.8628  3.6156
  151MOL   H12639426   0.883   3.938   2.077 -0.8750 -0.3793 -2.0786
  151MOL   H12739427   1.131   4.034   1.888 -0.4748 -0.0734 -0.3815
  151MOL   H12839428   1.099   3.923   2.018 -2.1133  0.8037  0.9865
  151MOL   H12939429   1.193   4.072   2.050  0.4297  0.3208  1.4219
  151MOL   H13039430   1.073   4.304   2.107 -0.0771  0.2413  0.2381
  151MOL   H13139431   0.911   4.324   2.047  0.1878 -0.1176  1.6605
  151MOL   C13239432   1.064   4.313   1.894  0.0859 -0.2416 -0.4293
  151MOL   C13339433   1.080   4.458   1.893 -0.1390  0.0085 -0.1851
  151MOL   C13439434   1.115   4.535   1.788 -0.5406  0.1053  0.1450
  151MOL   C13539435   1.112   4.685   1.791 -0.2692  0.4504 -0.1151
  151MOL   C13639436   1.163   4.478   1.653  0.2117  0.4966  0.1133
  151MOL   H13739437   0.989   4.285   1.820 -0.2288 -4.9672  1.4928
  151MOL   H13839438   1.160   4.263   1.878  0.2721  0.6406 -2.2142
  151MOL   H13939439   1.044   4.501   1.985  0.6270  0.6322 -0.1675
  151MOL   H14039440   1.055   4.731   1.710  0.2897 -0.1608 -0.8553
  151MOL   H14139441   1.203   4.741   1.773 -0.9669  2.0326  1.1018
  151MOL   H14239442   1.079   4.732   1.885  1.9027 -1.2215  1.5248
  151MOL   H14339443   1.115   4.532   1.572 -1.6630  0.0970  0.9476
  151MOL   H14439444   1.132   4.375   1.634 -0.9047  1.1480 -1.5919
  151MOL   C14539445   1.325   4.488   1.636  0.3887  0.4588 -0.2517
  151MOL   C14639446   1.397   4.411   1.746 -0.6109  0.1532  0.1676
  151MOL   C14739447   1.426   4.283   1.743 -0.5609  0.2384  0.4898
  151MOL   C14839448   1.505   4.220   1.857  0.5472 -0.0805 -0.3637
  151MOL   C14939449   1.374   4.182   1.638 -0.8955 -0.1136  0.4680
  151MOL   H15039450   1.353   4.591   1.654  2.3798 -0.5593  2.8921
  151MOL   H15139451   1.344   4.444   1.538 -2.0319  0.3850 -0.7332
  151MOL   H15239452   1.443   4.468   1.825 -0.9078  0.8866 -0.1819
  151MOL   H15339453   1.447   4.223   1.949 -0.4269 -0.4366 -0.9692
  151MOL   H15439454   1.591   4.282   1.883  1.4034 -0.7005 -1.6543
  151MOL   H15539455   1.548   4.121   1.842  0.0400  0.2654 -4.5540
  151MOL   H15639456   1.310   4.241   1.571  0.9412 -0.5473 -1.6994
  151MOL   H15739457   1.333   4.095   1.689 -2.2905 -1.7927 -3.3709
  151MOL   C15839458   1.493   4.135   1.551 -0.8685  0.1713 -0.2845
  151MOL   C15939459   1.461   4.003   1.476  0.3843 -0.4185 -1.4677
  151MOL   C16039460   1.547   3.905   1.456 -1.0459  0.7853  0.6372
  151MOL   C16139461   1.695   3.915   1.485  0.4049  0.1015  0.2861
  151MOL   C16239462   1.496   3.772   1.391 -0.1585  1.0542  0.1054
  151MOL   H16339463   1.587   4.123   1.604 -1.4284  0.3673  0.7613
  151MOL   H16439464   1.513   4.214   1.479 -0.0903  0.1114 -0.1360
  151MOL   H16539465   1.358   3.985   1.448 -0.2302 -2.2094  1.5876
  151MOL   H16639466   1.729   3.973   1.571  1.7589 -1.2599  0.6846
  151MOL   H16739467   1.751   3.946   1.397  2.2412 -0.7697  1.1360
  151MOL   H16839468   1.723   3.815   1.517 -0.7461 -0.3288 -0.0221
  151MOL   H16939469   1.393   3.781   1.357  0.1338 -0.1605 -1.1195
  151MOL   H17039470   1.489   3.694   1.467  1.4851 -0.4201 -1.2076
  151MOL   C17139471   1.575   3.708   1.276 -0.8171 -0.4683  0.0210
  151MOL   C17239472   1.493   3.610   1.203 -0.4134  0.0328  0.7345
  151MOL   C17339473   1.457   3.614   1.070  0.0046  0.3399  0.2491
  151MOL   C17439474   1.485   3.721   0.974  1.2024 -0.0349  0.0999
  151MOL   C17539475   1.392   3.493   1.013 -0.4654 -0.2842 -0.0737
  151MOL   H17639476   1.654   3.641   1.311  0.1694  0.7630  0.1912
  151MOL   H17739477   1.630   3.780   1.215  0.3191 -1.3317  0.0085
  151MOL   H17839478   1.479   3.517   1.255  0.8520  0.1239  1.2464
  151MOL   H17939479   1.541   3.691   0.886 -0.2920  1.4492 -1.3771
  151MOL   H18039480   1.536   3.806   1.020  2.1165 -0.5472  0.0506
  151MOL   H18139481   1.385   3.758   0.952  1.5359 -0.5283 -2.3606
  151MOL   H18239482   1.399   3.404   1.075 -0.2306 -1.3064 -1.5468
  151MOL   H18339483   1.458   3.463   0.932  0.4611  1.3359  0.0465
  151MOL   C18439484   1.253   3.524   0.961 -0.4595 -0.3262 -0.5306
  151MOL   C18539485   1.212   3.400   0.885  0.2608  0.2034 -0.0317
  151MOL   C18639486   1.093   3.343   0.859  0.2191  0.2558  0.0369
  151MOL   C18739487   1.099   3.208   0.788  0.0526 -0.0338  0.4635
  151MOL   C18839488   0.962   3.408   0.890 -0.1548  0.1107  0.0351
  151MOL   H18939489   1.261   3.605   0.889  1.3258 -0.9491 -1.0542
  151MOL   H19039490   1.179   3.547   1.038 -0.4009  0.6269 -0.7580
  151MOL   H19139491   1.296   3.341   0.855  0.6413  1.4393 -1.4331
  151MOL   H19239492   1.032   3.129   0.820 -0.7827  0.4400 -0.1144
  151MOL   H19339493   1.197   3.163   0.772  1.2769  2.8161 -0.5454
  151MOL   H19439494   1.082   3.223   0.682  0.6290 -3.0672 -0.0837
  151MOL   H19539495   0.982   3.501   0.943  0.2619 -0.5246  1.0199
  151MOL   H19639496   0.905   3.347   0.961  1.2261 -0.2704  0.8550
  151MOL   C19739497   0.879   3.441   0.767 -0.0648 -0.3577  0.4591
  151MOL   C19839498   0.753   3.525   0.797  1.3241  0.4269  0.1252
  151MOL   C19939499   0.752   3.662   0.789 -0.4609  0.2438  0.1036
  151MOL   C20039500   0.630   3.743   0.804  0.1554  0.1818 -0.4089
  151MOL   C20139501   0.875   3.751   0.766  0.5670 -0.1312  0.5522
  151MOL   H20239502   0.853   3.348   0.716 -0.6177  0.0341  0.0155
  151MOL   H20339503   0.947   3.488   0.695 -1.2168 -0.8292 -0.9637
  151MOL   H20439504   0.670   3.475   0.844  0.5027  0.9453 -0.7657
  151MOL   H20539505   0.539   3.696   0.768  1.5363 -2.4225 -0.6625
  151MOL   H20639506   0.647   3.830   0.740  1.5251  0.9501  0.9640
  151MOL   H20739507   0.619   3.769   0.909 -1.4265  1.3753 -0.8530
  151MOL   H20839508   0.857   3.780   0.663  1.2933 -1.7763 -0.0603
  151MOL   H20939509   0.968   3.695   0.758  0.7974  0.3561 -0.1733
  151MOL   C21039510   0.896   3.875   0.858  0.7954 -0.2642  0.1003
  151MOL   C21139511   1.029   3.938   0.851  0.4073 -1.1504 -0.8524
  151MOL   C21239512   1.122   3.954   0.946  0.7421 -0.8076 -0.1867
  151MOL   C21339513   1.244   4.032   0.921  0.0582 -0.2770  0.3433
  151MOL   C21439514   1.116   3.900   1.087  0.5180  0.4990  0.2706
  151MOL   H21539515   0.854   3.854   0.957 -2.1774  0.1399 -1.0005
  151MOL   H21639516   0.821   3.948   0.826  0.9711  0.4036  1.1689
  151MOL   H21739517   1.053   3.981   0.755  0.4352  0.0263 -0.3213
  151MOL   H21839518   1.253   4.119   0.988  1.4638  0.1310 -0.3493
  151MOL   H21939519   1.251   4.076   0.822 -1.0508  2.3845  1.3759
  151MOL   H22039520   1.338   3.978   0.929 -0.0378 -0.3148  1.3064
  151MOL   H22139521   1.199   3.830   1.097  0.1723  0.3001  1.8693
  151MOL   H22239522   1.027   3.839   1.101  1.7814 -1.6872 -1.0500
  151MOL   C22339523   1.125   4.001   1.209 -0.3652 -0.0780 -0.4988
  151MOL   C22439524   1.024   4.113   1.209 -0.0441  0.3810 -0.4770
  151MOL   C22539525   1.042   4.233   1.261 -0.1666 -0.6765  0.8696
  151MOL   C22639526   0.934   4.336   1.270  0.1835 -0.0281  0.2281
  151MOL   C22739527   1.172   4.282   1.324  0.1364  0.1945 -0.0226
  151MOL   H22839528   1.227   4.037   1.196 -0.0870 -0.1269  1.3753
  151MOL   H22939529   1.119   3.941   1.299 -0.1124  0.2288 -0.2754
  151MOL   H23039530   0.926   4.088   1.172  0.3911  0.3018 -1.5912
  151MOL   H23139531   0.877   4.331   1.362 -0.8605 -0.0467 -0.4019
  151MOL   H23239532   0.857   4.317   1.195  0.8697  0.7617 -0.6945
  151MOL   H23339533   0.976   4.433   1.244  1.2122 -0.6032 -0.3138
  151MOL   H23439534   1.237   4.209   1.374  0.7856  0.3523 -0.6260
  151MOL   H23539535   1.154   4.348   1.409 -0.4702  0.5542 -0.4330
  151MOL   C23639536   1.253   4.357   1.219 -0.1870  0.2000  0.4477
  151MOL   C23739537   1.372   4.423   1.284 -0.2369 -0.0599 -0.1057
  151MOL   C23839538   1.499   4.407   1.256  0.5697  0.3655 -0.1185
  151MOL   C23939539   1.605   4.487   1.337  0.2790  0.6547 -0.0157
  151MOL   C24039540   1.556   4.320   1.143  1.1428 -0.6263  0.3244
  151MOL   H24139541   1.196   4.439   1.176 -2.5914 -0.9280  1.3935
  151MOL   H24239542   1.291   4.295   1.137  0.4674 -0.7473  1.4623
  151MOL   H24339543   1.327   4.498   1.346 -2.2301  0.3202 -1.9563
  151MOL   H24439544   1.653   4.556   1.268 -2.4862 -0.3860 -3.1221
  151MOL   H24539545   1.680   4.422   1.381  0.0985 -0.2222 -0.9754
  151MOL   H24639546   1.557   4.554   1.408  0.9531  0.7719  0.3317
  151MOL   H24739547   1.622   4.391   1.093 -0.5698  0.5751 -0.2687
  151MOL   H24839548   1.479   4.279   1.078  2.0413 -1.8712  0.0290
  151MOL   C24939549   1.635   4.195   1.179  0.0728 -0.1294 -0.7457
  151MOL   C25039550   1.705   4.144   1.057 -0.9890 -0.0439 -0.3941
  151MOL   C25139551   1.829   4.088   1.048 -0.1864  0.0777 -0.1530
  151MOL   C25239552   1.872   4.014   0.924 -1.0933 -0.1731  0.1603
  151MOL   C25339553   1.942   4.087   1.155  0.0275  0.1562  0.6406
  151MOL   H25439554   1.580   4.107   1.215  1.0054 -0.2025  0.5118
  151MOL   H25539555   1.706   4.221   1.257 -2.7821  1.7187  1.3713
  151MOL   H25639556   1.641   4.141   0.970 -2.9643 -3.4290  1.0853
  151MOL   H25739557   1.806   4.043   0.843 -0.8449 -2.5199 -0.9068
  151MOL   H25839558   1.861   3.907   0.941  1.3154 -0.4353  0.1662
  151MOL   H25939559   1.976   4.034   0.900 -1.1904  1.1379  0.7933
  151MOL   H26039560   1.921   4.148   1.243 -1.8342 -0.1690  0.4410
  151MOL   H26139561   2.033   4.126   1.109  0.2281  0.2897  1.1475
  151MOL   H26239562   1.960   3.983   1.184  0.9675 -0.3690 -1.6815
  152MOL     C139563   6.368   3.600   3.686 -0.2948  0.5695  0.3196
  152MOL     C239564   6.477   3.567   3.779  0.0992  0.3460  0.6410
  152MOL     C339565   6.486   3.473   3.876  0.4924  0.3723 -0.6425
  152MOL     C439566   6.600   3.470   3.975 -0.0536 -0.8967 -0.3925
  152MOL     C539567   6.380   3.359   3.893  0.1965  0.9145  0.2226
  152MOL     H639568   6.356   3.708   3.681  0.0729  0.5487 -0.9906
  152MOL     H739569   6.418   3.560   3.598  0.1621  1.3697  0.2155
  152MOL     H839570   6.558   3.638   3.770 -0.1105  0.4881 -0.1851
  152MOL     H939571   6.682   3.536   3.948  0.1436 -1.3708 -0.9562
  152MOL    H1039572   6.638   3.368   3.981 -0.2305 -1.0418 -1.7381
  152MOL    H1139573   6.553   3.507   4.067 -0.5328  0.3361 -1.1225
  152MOL    H1239574   6.425   3.261   3.908 -0.2492  0.7606  0.5446
  152MOL    H1339575   6.319   3.352   3.803  2.1127  2.0942 -1.2197
  152MOL    H1439576   6.280   3.538   3.704 -0.0395  0.4162  1.0642
  152MOL    C1539577   6.292   3.407   4.016  0.5229 -0.3768  0.6051
  152MOL    C1639578   6.182   3.318   4.061 -0.4958  0.0867  1.0389
  152MOL    C1739579   6.049   3.340   4.069  1.0929  0.3586  0.1877
  152MOL    C1839580   5.949   3.248   4.137  0.2105  0.5117  0.2203
  152MOL    C1939581   5.986   3.470   4.018 -0.0769 -0.3743  0.1374
  152MOL    H2039582   6.255   3.502   3.978  1.3627 -0.8296 -1.4072
  152MOL    H2139583   6.353   3.432   4.103  0.6506  0.3963  0.3009
  152MOL    H2239584   6.217   3.229   4.110  1.4898  1.7914  2.8181
  152MOL    H2339585   6.000   3.159   4.174  0.2601  0.3175 -0.3031
  152MOL    H2439586   5.867   3.224   4.069 -2.2587  2.9883  2.2519
  152MOL    H2539587   5.902   3.292   4.224 -0.4220 -0.1284  0.2067
  152MOL    H2639588   5.889   3.444   3.976  0.5572 -0.2179 -1.5008
  152MOL    H2739589   6.045   3.523   3.943  1.4682 -0.7597  1.0604
  152MOL    C2839590   5.968   3.570   4.131  0.3073 -0.0367 -0.2348
  152MOL    C2939591   5.823   3.585   4.171  0.0699 -0.4442  0.0040
  152MOL    C3039592   5.756   3.706   4.160 -0.4374  0.6458  0.1268
  152MOL    C3139593   5.613   3.725   4.190  0.2088  0.3855 -0.6618
  152MOL    C3239594   5.814   3.833   4.106 -0.1339 -0.1035  0.6377
  152MOL    H3339595   6.009   3.663   4.091 -0.1824 -0.3372 -1.4498
  152MOL    H3439596   6.026   3.556   4.222  1.9098 -0.6401 -1.3221
  152MOL    H3539597   5.769   3.498   4.205 -1.1213  0.4603  0.4731
  152MOL    H3639598   5.614   3.795   4.273  1.7333 -2.5308  1.8980
  152MOL    H3739599   5.569   3.631   4.226  0.0657  0.0844 -1.6067
  152MOL    H3839600   5.565   3.762   4.100 -2.7413  0.0961  0.6979
  152MOL    H3939601   5.918   3.855   4.134  0.0061  1.5715 -1.0945
  152MOL    H4039602   5.768   3.914   4.163  0.8084  2.0783 -1.6068
  152MOL    C4139603   5.801   3.864   3.950 -0.4351  0.7292  0.6285
  152MOL    C4239604   5.856   3.763   3.862 -0.1050 -0.4447 -0.0907
  152MOL    C4339605   5.813   3.731   3.742 -0.1594  0.1983 -0.6616
  152MOL    C4439606   5.882   3.623   3.661 -0.1370 -1.4982  0.1652
  152MOL    C4539607   5.696   3.803   3.680  0.2968 -0.0420 -0.0173
  152MOL    H4639608   5.851   3.959   3.928  1.8855 -0.5155  0.4303
  152MOL    H4739609   5.693   3.873   3.936 -0.1170 -0.4542 -2.9295
  152MOL    H4839610   5.935   3.698   3.895 -0.2792  0.1601  1.5575
  152MOL    H4939611   5.885   3.661   3.559  0.5664 -1.6471  0.1326
  152MOL    H5039612   5.822   3.531   3.658 -1.7167 -0.6554  3.0460
  152MOL    H5139613   5.977   3.592   3.703  0.8874  1.1231 -0.1287
  152MOL    H5239614   5.700   3.808   3.571  0.5484  0.4565  0.0159
  152MOL    H5339615   5.692   3.909   3.706  1.3182 -0.0647  0.2442
  152MOL    C5439616   5.565   3.732   3.702  0.0629  0.3527  0.2263
  152MOL    C5539617   5.454   3.801   3.627  0.6344 -0.2964 -0.2529
  152MOL    C5639618   5.342   3.849   3.682  1.1232  0.1061 -0.2108
  152MOL    C5739619   5.220   3.902   3.596  0.3911 -0.2289  0.5854
  152MOL    C5839620   5.311   3.855   3.830  0.2261  0.2769  0.3373
  152MOL    H5939621   5.538   3.727   3.807 -2.0310 -0.7616 -0.3502
  152MOL    H6039622   5.569   3.628   3.670 -1.2220  0.4191 -0.1620
  152MOL    H6139623   5.456   3.794   3.520  0.4534  0.4508 -0.3090
  152MOL    H6239624   5.230   3.887   3.488  3.8039  0.6314  0.7517
  152MOL    H6339625   5.203   4.008   3.615 -0.8281 -0.4531  0.7733
  152MOL    H6439626   5.124   3.854   3.617 -1.1133  1.3252 -2.3676
  152MOL    H6539627   5.280   3.959   3.845 -0.8665  0.3131 -2.0217
  152MOL    H6639628   5.396   3.853   3.897  1.4682  2.4422 -1.1163
  152MOL    C6739629   5.198   3.751   3.870 -0.1291  0.3222 -0.1109
  152MOL    C6839630   5.167   3.763   4.019 -0.3809 -0.0404  0.6898
  152MOL    C6939631   5.134   3.667   4.111 -0.0104 -0.1590  0.1792
  152MOL    C7039632   5.114   3.696   4.261 -0.1389  0.5574 -0.0179
  152MOL    C7139633   5.122   3.517   4.075  0.0751  0.1192 -0.8565
  152MOL    H7239634   5.236   3.655   3.836 -0.5284  0.0197  0.2966
  152MOL    H7339635   5.099   3.756   3.823 -0.8937 -0.3980  1.3876
  152MOL    H7439636   5.167   3.864   4.058 -1.1493 -0.4071  1.6437
  152MOL    H7539637   5.199   3.668   4.323 -1.4474 -0.5327  1.3578
  152MOL    H7639638   5.028   3.642   4.302  0.9794 -2.1399 -1.1281
  152MOL    H7739639   5.105   3.804   4.267  1.7344  0.7747 -0.9043
  152MOL    H7839640   5.174   3.452   4.145  0.3349  0.0127 -1.1514
  152MOL    H7939641   5.163   3.512   3.975  2.0009  0.5654 -0.1212
  152MOL    C8039642   4.971   3.489   4.066  0.5257 -0.5554 -0.0423
  152MOL    C8139643   4.943   3.343   4.106  0.2833 -0.8207  0.4958
  152MOL    C8239644   4.834   3.271   4.085 -0.1484  0.0698 -0.4696
  152MOL    C8339645   4.715   3.334   4.016  0.0501  0.0612  0.3115
  152MOL    C8439646   4.819   3.121   4.117  0.2236 -0.5513  0.4396
  152MOL    H8539647   4.942   3.522   3.966  0.0269  0.6080  0.4774
  152MOL    H8639648   4.907   3.553   4.127  0.4030 -3.4639  3.0240
  152MOL    H8739649   5.032   3.293   4.140  0.4399  0.4156  1.9435
  152MOL    H8839650   4.705   3.285   3.919  2.1215 -0.3071  0.2646
  152MOL    H8939651   4.718   3.439   3.989  1.7133 -0.3321 -1.1358
  152MOL    H9039652   4.624   3.319   4.075 -0.1067  0.9846  0.3023
  152MOL    H9139653   4.819   3.067   4.022 -0.1670 -1.3968  0.9101
  152MOL    H9239654   4.734   3.106   4.184 -1.6713 -1.3153 -2.0796
  152MOL    C9339655   4.947   3.067   4.179  0.2626 -0.5985 -0.0497
  152MOL    C9439656   4.937   2.916   4.203 -0.1714 -0.6209 -0.7197
  152MOL    C9539657   4.985   2.815   4.121 -0.0446  0.1661  0.1369
  152MOL    C9639658   4.947   2.674   4.148  0.4713  0.3053 -0.4458
  152MOL    C9739659   5.063   2.831   3.982 -0.0452 -0.1062  0.2908
  152MOL    H9839660   4.968   3.118   4.273  3.1508  0.1292 -1.0507
  152MOL    H9939661   5.032   3.071   4.111 -0.3788 -1.2639 -0.9087
  152MOL   H10039662   4.874   2.886   4.285  3.0077 -0.6358  1.7731
  152MOL   H10139663   5.033   2.614   4.117  0.6600  1.7067 -2.8161
  152MOL   H10239664   4.919   2.650   4.251  1.1594  1.3736 -0.0040
  152MOL   H10339665   4.859   2.648   4.089  0.9428 -0.4130 -0.8494
  152MOL   H10439666   5.065   2.934   3.947  1.1115 -0.8934 -2.0496
  152MOL   H10539667   5.019   2.770   3.904 -0.4386 -0.0795  0.4885
  152MOL   C10639668   5.215   2.792   3.985  0.7498  0.0831  0.8106
  152MOL   C10739669   5.266   2.756   3.842 -0.7686 -0.8194  0.1603
  152MOL   C10839670   5.383   2.791   3.783  0.1679  0.3283  0.3902
  152MOL   C10939671   5.489   2.880   3.846 -0.5150  0.6485 -0.5270
  152MOL   C11039672   5.421   2.748   3.641 -0.0919 -0.8410 -0.5447
  152MOL   H11139673   5.246   2.711   4.052  1.9827  1.3307  1.7778
  152MOL   H11239674   5.276   2.875   4.021  1.5555 -0.1720  0.0425
  152MOL   H11339675   5.202   2.689   3.786 -1.6153  0.5580 -0.5520
  152MOL   H11439676   5.469   2.893   3.953 -2.6162  0.7995 -0.9152
  152MOL   H11539677   5.590   2.843   3.834 -0.7176  0.7186 -2.4657
  152MOL   H11639678   5.482   2.983   3.811 -0.3443  0.7252 -0.3376
  152MOL   H11739679   5.467   2.831   3.588 -2.8249  1.7318  0.8978
  152MOL   H11839680   5.326   2.728   3.590 -0.2277  0.5042 -0.8289
  152MOL   C11939681   5.511   2.622   3.633 -0.4962 -0.2162  0.1744
  152MOL   C12039682   5.490   2.553   3.508  0.0373  0.3302  0.4785
  152MOL   C12139683   5.445   2.429   3.487 -0.6624  0.3563  0.4254
  152MOL   C12239684   5.436   2.369   3.352 -0.0114  0.2944  0.0767
  152MOL   C12339685   5.410   2.328   3.595  0.4354  0.6022  0.4568
  152MOL   H12439686   5.503   2.553   3.717 -0.2598  0.5563  0.8309
  152MOL   H12539687   5.618   2.645   3.629 -0.5320 -0.0260  0.3026
  152MOL   H12639688   5.515   2.609   3.420  0.2856  0.2633  0.5059
  152MOL   H12739689   5.337   2.339   3.316  1.1537 -0.5927 -2.5200
  152MOL   H12839690   5.512   2.291   3.357  1.5496  1.7915  0.1286
  152MOL   H12939691   5.465   2.444   3.278  0.5500  0.0071  0.0037
  152MOL   H13039692   5.485   2.325   3.673 -0.8787  2.0332  1.7953
  152MOL   H13139693   5.413   2.224   3.561 -1.9836  1.4181 -2.4563
  152MOL   C13239694   5.273   2.366   3.654 -0.4303 -0.7990  0.0559
  152MOL   C13339695   5.248   2.285   3.780 -0.0432  0.3054  0.2003
  152MOL   C13439696   5.157   2.316   3.876  0.0829  0.3335  1.2863
  152MOL   C13539697   5.138   2.223   3.995  0.1215 -0.1693 -0.1299
  152MOL   C13639698   5.061   2.428   3.864 -0.8262  0.2133 -0.0466
  152MOL   H13739699   5.197   2.339   3.581  0.0372 -1.8512 -0.0506
  152MOL   H13839700   5.282   2.473   3.671 -0.9235 -0.8830  0.8494
  152MOL   H13939701   5.297   2.189   3.788  1.8125  1.0780 -1.3578
  152MOL   H14039702   5.220   2.151   3.995 -0.2936 -0.6572  2.1275
  152MOL   H14139703   5.043   2.169   3.985  0.7747 -1.4740  0.6010
  152MOL   H14239704   5.139   2.271   4.092 -2.4665  1.3178 -0.7931
  152MOL   H14339705   5.099   2.498   3.790  0.0610  0.5319  0.6933
  152MOL   H14439706   5.056   2.475   3.963 -0.1754  2.0288 -0.8461
  152MOL   C14539707   4.923   2.371   3.825  0.4760 -0.4526 -0.9190
  152MOL   C14639708   4.811   2.476   3.805 -0.7328  0.5205 -0.0662
  152MOL   C14739709   4.790   2.544   3.688 -0.1966  0.1674  0.1279
  152MOL   C14839710   4.690   2.657   3.690  0.8838  0.3494 -0.0406
  152MOL   C14939711   4.870   2.524   3.558 -0.1587  0.8868  0.5602
  152MOL   H15039712   4.890   2.295   3.895 -1.5730 -0.2036 -1.5835
  152MOL   H15139713   4.936   2.321   3.729  0.9568 -0.5224 -0.8210
  152MOL   H15239714   4.755   2.497   3.895 -1.6464 -1.9790 -0.0023
  152MOL   H15339715   4.606   2.651   3.759 -1.6446  0.6462 -2.9695
  152MOL   H15439716   4.640   2.682   3.596  3.1189 -1.7452 -1.8633
  152MOL   H15539717   4.752   2.743   3.715 -1.1450  1.4884  1.1849
  152MOL   H15639718   4.795   2.493   3.485 -0.6034 -1.4965  1.9805
  152MOL   H15739719   4.941   2.442   3.567 -1.3457 -0.1132  0.9119
  152MOL   C15839720   4.938   2.654   3.517  0.4397  0.6589  0.6444
  152MOL   C15939721   5.066   2.639   3.432 -0.3703 -0.4355  0.2003
  152MOL   C16039722   5.098   2.708   3.323  0.1886 -0.3287  0.3055
  152MOL   C16139723   4.992   2.806   3.259 -0.0452  0.3935 -0.2582
  152MOL   C16239724   5.232   2.700   3.256  0.1491  0.5553  0.6502
  152MOL   H16339725   4.977   2.694   3.611 -3.4003  2.0648  1.7582
  152MOL   H16439726   4.857   2.722   3.491  1.6117  1.9904  0.4478
  152MOL   H16539727   5.144   2.567   3.457 -0.8696 -0.8029  0.7293
  152MOL   H16639728   4.984   2.807   3.150 -0.5899 -1.9011 -0.2726
  152MOL   H16739729   5.024   2.907   3.282  0.5096  0.2732 -0.4781
  152MOL   H16839730   4.891   2.789   3.295  0.4985 -0.6662  0.8037
  152MOL   H16939731   5.236   2.670   3.151 -2.0923 -0.9197  0.9450
  152MOL   H17039732   5.305   2.629   3.296  0.1293  1.4003  2.2330
  152MOL   C17139733   5.316   2.824   3.274 -0.1377  0.0144  0.6019
  152MOL   C17239734   5.436   2.824   3.179  0.0989 -0.2636  0.7041
  152MOL   C17339735   5.569   2.854   3.208 -0.0650 -0.2477  0.3352
  152MOL   C17439736   5.613   2.893   3.351  0.4000 -0.4220 -0.2361
  152MOL   C17539737   5.677   2.851   3.099 -0.9035 -0.5389 -0.3488
  152MOL   H17639738   5.352   2.838   3.376  3.1918  2.1419 -0.7397
  152MOL   H17739739   5.257   2.910   3.243 -0.5990 -0.2353  0.7902
  152MOL   H17839740   5.418   2.792   3.078 -1.3193  0.8537  0.5878
  152MOL   H17939741   5.663   2.809   3.398 -0.0522 -0.9085 -0.6188
  152MOL   H18039742   5.527   2.927   3.409  0.2247 -3.9894  1.7344
  152MOL   H18139743   5.678   2.977   3.328  0.1629 -0.1376  0.1324
  152MOL   H18239744   5.723   2.948   3.077 -2.1638  0.2591  0.5045
  152MOL   H18339745   5.636   2.814   3.005  1.6977 -0.9296 -1.3659
  152MOL   C18439746   5.794   2.763   3.150  0.6067 -0.3085 -0.5490
  152MOL   C18539747   5.901   2.745   3.035  0.5043 -0.4330 -0.6375
  152MOL   C18639748   6.026   2.798   3.022 -0.3918 -0.3264  0.1160
  152MOL   C18739749   6.119   2.797   2.895  0.0902  0.3596  0.3651
  152MOL   C18839750   6.076   2.887   3.134  0.8690  0.7847  0.4512
  152MOL   H18939751   5.753   2.667   3.180  1.0627  0.0901  1.4482
  152MOL   H19039752   5.827   2.812   3.243  0.0016 -0.9848  0.0262
  152MOL   H19139753   5.852   2.705   2.947 -3.0738  0.2604  0.9136
  152MOL   H19239754   6.208   2.734   2.902  0.2505  0.4500 -0.7176
  152MOL   H19339755   6.147   2.900   2.870  1.2134 -0.0696 -0.1911
  152MOL   H19439756   6.069   2.767   2.803  1.0006  0.0458 -0.0305
  152MOL   H19539757   6.184   2.878   3.131  0.8521  1.2098 -2.2753
  152MOL   H19639758   6.053   2.840   3.230 -1.4189  0.7664 -0.0788
  152MOL   C19739759   6.027   3.031   3.113  0.1512  0.3737 -0.2619
  152MOL   C19839760   6.111   3.113   3.025 -0.7154 -0.8668  0.4640
  152MOL   C19939761   6.077   3.237   2.981 -0.4679 -0.0130 -0.4145
  152MOL   C20039762   6.168   3.318   2.887  0.0687 -0.8928 -0.4105
  152MOL   C20139763   5.961   3.317   3.030 -0.4587 -0.2462  0.2698
  152MOL   H20239764   6.040   3.074   3.212  1.4313 -1.0733  0.2138
  152MOL   H20339765   5.930   3.042   3.064  0.1240 -0.9773 -0.5391
  152MOL   H20439766   6.204   3.079   2.981 -0.3156  2.7022 -1.6676
  152MOL   H20539767   6.220   3.397   2.941  0.0313 -0.8224 -0.4765
  152MOL   H20639768   6.116   3.377   2.811  0.9696  0.8937  0.3391
  152MOL   H20739769   6.248   3.253   2.852 -0.5561 -2.2532  0.6345
  152MOL   H20839770   6.019   3.405   3.059  1.8367 -1.5484 -0.2437
  152MOL   H20939771   5.927   3.268   3.122 -3.0058 -2.1869 -1.6513
  152MOL   C21039772   5.852   3.336   2.926 -0.4088 -0.4627  0.4532
  152MOL   C21139773   5.770   3.462   2.953  1.1461  0.3712 -0.4904
  152MOL   C21239774   5.636   3.473   2.974 -0.2868  0.2281 -0.2105
  152MOL   C21339775   5.573   3.613   2.993 -0.2549  0.1576 -0.2823
  152MOL   C21439776   5.546   3.352   2.960 -0.3859 -0.4542 -0.2864
  152MOL   H21539777   5.780   3.255   2.916 -1.5034  0.7127 -1.4616
  152MOL   H21639778   5.897   3.348   2.828 -0.8094 -0.2668  0.2914
  152MOL   H21739779   5.831   3.550   2.964 -0.1170  1.1496  0.4121
  152MOL   H21839780   5.653   3.678   3.029  1.6098 -2.3248  0.2064
  152MOL   H21939781   5.502   3.609   3.076  0.2472 -3.8435  0.0935
  152MOL   H22039782   5.522   3.660   2.909 -1.0113 -3.2061 -1.8165
  152MOL   H22139783   5.582   3.294   2.875 -0.6058  0.9129 -1.3204
  152MOL   H22239784   5.440   3.370   2.944 -0.9936 -2.7318  0.9390
  152MOL   C22339785   5.549   3.264   3.088 -0.2240 -0.9984  0.2881
  152MOL   C22439786   5.475   3.337   3.206 -0.4487  1.0783 -0.5038
  152MOL   C22539787   5.533   3.389   3.318 -0.7371  0.0498 -0.4091
  152MOL   C22639788   5.446   3.468   3.423 -0.3460  0.0279 -0.0251
  152MOL   C22739789   5.686   3.400   3.339  0.1496 -0.4997 -0.2120
  152MOL   H22839790   5.650   3.235   3.116  0.5549  0.5818 -0.7826
  152MOL   H22939791   5.508   3.164   3.073  1.0007 -1.3306 -0.9311
  152MOL   H23039792   5.368   3.353   3.201 -0.3721  1.7331 -0.1549
  152MOL   H23139793   5.431   3.572   3.394 -0.8220  0.2988  1.1639
  152MOL   H23239794   5.496   3.470   3.519 -1.2937 -0.4528  0.4913
  152MOL   H23339795   5.343   3.433   3.430 -0.4664  0.6033  1.2129
  152MOL   H23439796   5.702   3.481   3.411 -1.9703 -0.3453  0.1131
  152MOL   H23539797   5.736   3.439   3.251 -1.3666  1.0524 -0.4196
  152MOL   C23639798   5.759   3.273   3.398  0.2008 -0.2054  0.3708
  152MOL   C23739799   5.907   3.308   3.412 -0.7355 -1.2163 -0.7128
  152MOL   C23839800   5.993   3.229   3.482  0.3780 -0.1271 -0.1650
  152MOL   C23939801   6.142   3.264   3.493  0.8175  0.1871  0.4093
  152MOL   C24039802   5.945   3.096   3.548 -0.2691 -0.3676 -0.9203
  152MOL   H24139803   5.741   3.189   3.331 -0.5980 -1.3093  1.9378
  152MOL   H24239804   5.707   3.233   3.485  0.8379  1.9470  1.7601
  152MOL   H24339805   5.943   3.394   3.357  0.8330 -0.9482  0.7013
  152MOL   H24439806   6.177   3.271   3.596  0.7461 -1.8718  0.5988
  152MOL   H24539807   6.146   3.355   3.433 -1.4773  0.7003  0.9671
  152MOL   H24639808   6.205   3.199   3.433  0.5656 -1.3282  1.7532
  152MOL   H24739809   6.028   3.025   3.543  0.0160 -0.3530  2.5187
  152MOL   H24839810   5.864   3.064   3.482 -1.1557 -1.7183  0.8004
  152MOL   C24939811   5.891   3.114   3.689  0.2937 -0.2631  1.0892
  152MOL   C25039812   5.857   2.981   3.756 -0.1638  0.8518  0.6726
  152MOL   C25139813   5.927   2.931   3.860  0.2348 -0.3498 -0.1139
  152MOL   C25239814   5.889   2.802   3.917  0.0139  0.4856  0.4739
  152MOL   C25339815   6.051   2.992   3.924  0.2501  0.1479 -0.3890
  152MOL   H25439816   5.800   3.172   3.703 -0.7177 -1.7969  1.0638
  152MOL   H25539817   5.969   3.161   3.749  0.5900 -0.6349  0.9966
  152MOL   H25639818   5.770   2.924   3.725  0.3486 -0.5664  1.8225
  152MOL   H25739819   5.807   2.761   3.857  1.9277 -0.3792 -1.6020
  152MOL   H25839820   5.837   2.819   4.012  0.2015 -0.6423  0.7901
  152MOL   H25939821   5.969   2.728   3.912  1.6465  2.2180  0.3759
  152MOL   H26039822   6.060   3.099   3.904 -0.6306  0.3021  0.0424
  152MOL   H26139823   6.147   2.943   3.909  0.0107 -0.4470 -0.0170
  152MOL   H26239824   6.033   2.977   4.031 -0.5727 -2.6761 -0.8872
  153MOL     C139825   6.959   5.557   5.281 -0.2717  0.3057  0.1554
  153MOL     C239826   7.099   5.584   5.335 -0.4056 -1.0908  0.0293
  153MOL     C339827   7.188   5.669   5.288 -0.5300  0.2344 -0.0524
  153MOL     C439828   7.328   5.673   5.345  0.3973 -0.1768 -0.1838
  153MOL     C539829   7.148   5.760   5.169  0.1624 -0.1785 -0.4547
  153MOL     H639830   6.965   5.495   5.191 -0.3612  0.3119  0.1444
  153MOL     H739831   6.891   5.512   5.354  0.8503  0.2279  1.1739
  153MOL     H839832   7.145   5.514   5.403  0.7433 -0.3245  0.0467
  153MOL     H939833   7.392   5.652   5.260  1.3482 -0.0539  0.4933
  153MOL    H1039834   7.338   5.601   5.426 -0.4450  0.6817  0.7026
  153MOL    H1139835   7.357   5.774   5.375  0.8836 -0.7518  1.3327
  153MOL    H1239836   7.124   5.851   5.224 -1.7961  0.3009 -2.0288
  153MOL    H1339837   7.054   5.745   5.116 -1.9600  1.6241  2.6673
  153MOL    H1439838   6.899   5.646   5.260 -1.5198  0.0139  2.3680
  153MOL    C1539839   7.260   5.794   5.070 -0.0840 -0.6699  0.2762
  153MOL    C1639840   7.221   5.912   4.982  0.7360  0.1280 -0.2644
  153MOL    C1739841   7.207   5.927   4.849 -0.1200  0.2482 -0.3601
  153MOL    C1839842   7.182   6.060   4.792 -0.4804 -0.0536  0.1756
  153MOL    C1939843   7.226   5.810   4.748 -0.3308 -0.4252 -0.0979
  153MOL    H2039844   7.278   5.707   5.008  1.0212 -2.8604  3.5475
  153MOL    H2139845   7.346   5.814   5.133  0.7741  2.2167 -1.6962
  153MOL    H2239846   7.203   5.997   5.046  0.0346 -0.7832  0.7709
  153MOL    H2339847   7.225   6.138   4.856 -1.8511  0.1948  0.7990
  153MOL    H2439848   7.074   6.068   4.782 -0.8140 -4.0433 -0.3728
  153MOL    H2539849   7.215   6.074   4.689 -1.9327 -0.0244 -0.2919
  153MOL    H2639850   7.295   5.733   4.782  0.1997 -0.0482 -0.3012
  153MOL    H2739851   7.279   5.853   4.663 -3.5126  1.7372 -1.0999
  153MOL    C2839852   7.095   5.755   4.694 -0.2058  0.1105  0.4866
  153MOL    C2939853   7.027   5.652   4.784  0.6606 -0.3012 -0.3967
  153MOL    C3039854   6.896   5.653   4.813  0.0680 -0.2621 -0.2862
  153MOL    C3139855   6.841   5.552   4.915  0.5654  0.7443 -0.5744
  153MOL    C3239856   6.792   5.744   4.760  0.1414  0.4160  0.4602
  153MOL    H3339857   7.131   5.703   4.605  0.0865  0.6921  0.2587
  153MOL    H3439858   7.027   5.835   4.666  0.2322  0.4892  0.5027
  153MOL    H3539859   7.086   5.574   4.830  0.6320  0.4853  1.0037
  153MOL    H3639860   6.906   5.465   4.921  0.9130  0.8397 -2.7036
  153MOL    H3739861   6.742   5.512   4.890  0.3062 -0.1233  1.6641
  153MOL    H3839862   6.831   5.587   5.018  0.7131 -2.7636  0.7270
  153MOL    H3939863   6.706   5.679   4.747  1.9911 -2.0837  0.2686
  153MOL    H4039864   6.812   5.779   4.658 -0.1368  1.7427  0.8562
  153MOL    C4139865   6.760   5.863   4.844  0.3205  0.0349  0.3405
  153MOL    C4239866   6.685   5.819   4.972  0.3692  0.5788  0.3200
  153MOL    C4339867   6.687   5.893   5.085  0.7623 -0.1137  0.0524
  153MOL    C4439868   6.612   5.837   5.206 -0.5353 -0.0454  0.1645
  153MOL    C4539869   6.754   6.029   5.100  0.4510 -0.4522  0.2538
  153MOL    H4639870   6.681   5.919   4.793 -0.0087  0.8957  1.7783
  153MOL    H4739871   6.851   5.921   4.854  2.2112 -2.7806  0.1584
  153MOL    H4839872   6.633   5.724   4.972 -0.9279  1.2520  1.8809
  153MOL    H4939873   6.520   5.782   5.184 -0.3527  0.1507 -1.1022
  153MOL    H5039874   6.593   5.920   5.274  0.8749  0.5062 -0.1165
  153MOL    H5139875   6.683   5.769   5.251 -0.4231  0.2201  0.3940
  153MOL    H5239876   6.687   6.089   5.160 -1.5031  0.4484 -2.7391
  153MOL    H5339877   6.738   6.090   5.011 -1.2600 -1.1616  0.0521
  153MOL    C5439878   6.901   6.025   5.158 -0.2513  0.3079  0.7614
  153MOL    C5539879   6.912   6.146   5.247  0.5229 -0.2110 -0.7006
  153MOL    C5639880   6.970   6.157   5.368 -0.4665  0.8537 -0.4056
  153MOL    C5739881   6.982   6.293   5.435 -0.7938  0.0844 -0.1558
  153MOL    C5839882   7.027   6.041   5.446  0.6605  0.2337 -0.5575
  153MOL    H5939883   6.967   6.009   5.073 -0.3901  2.0156  0.3007
  153MOL    H6039884   6.907   5.937   5.222 -0.6947 -0.3820 -0.1276
  153MOL    H6139885   6.886   6.241   5.201  0.8626  0.9520  1.4452
  153MOL    H6239886   6.900   6.321   5.502  0.2266  0.8808  0.7646
  153MOL    H6339887   6.986   6.379   5.369 -1.2011 -0.4210 -0.8505
  153MOL    H6439888   7.074   6.291   5.492 -0.5962 -2.7909 -0.5079
  153MOL    H6539889   7.132   6.069   5.454  1.1512 -0.8712 -3.0194
  153MOL    H6639890   7.029   5.944   5.399  0.8182 -0.3037  0.5342
  153MOL    C6739891   6.965   6.016   5.583  0.5933 -0.4446  0.5161
  153MOL    C6839892   7.055   5.940   5.671  0.6952 -0.8616 -0.2762
  153MOL    C6939893   7.090   5.965   5.801 -0.1859 -0.4566  0.5101
  153MOL    C7039894   7.199   5.879   5.867  0.6059 -0.2993 -0.4283
  153MOL    C7139895   7.036   6.084   5.882 -0.0045  0.2464  0.3018
  153MOL    H7239896   6.874   5.959   5.567 -0.0104  0.8433 -0.7312
  153MOL    H7339897   6.934   6.107   5.635 -0.3106 -0.8997  0.7645
  153MOL    H7439898   7.098   5.849   5.631  2.4279 -0.2315  0.0912
  153MOL    H7539899   7.289   5.940   5.863  1.0065 -0.7359  1.6854
  153MOL    H7639900   7.214   5.785   5.815 -1.9890 -1.2126  0.3825
  153MOL    H7739901   7.180   5.856   5.972  1.9636 -1.2171 -0.3778
  153MOL    H7839902   7.052   6.053   5.986  1.9744 -0.5129 -0.1940
  153MOL    H7939903   6.933   6.109   5.859  0.3396  0.5614 -0.9318
  153MOL    C8039904   7.118   6.218   5.877 -0.1285 -0.4470  0.3499
  153MOL    C8139905   7.064   6.331   5.972  0.0338 -1.0678 -0.5437
  153MOL    C8239906   7.055   6.466   5.951 -0.3833  0.1669 -0.5242
  153MOL    C8339907   7.057   6.525   5.811 -0.2814 -0.2687 -0.1226
  153MOL    C8439908   7.018   6.551   6.067 -1.1391  0.4531  0.1779
  153MOL    H8539909   7.132   6.254   5.775  2.4871 -0.6024  0.6351
  153MOL    H8639910   7.218   6.191   5.910  0.0850 -0.9136 -0.6586
  153MOL    H8739911   7.057   6.301   6.075  2.4131  0.1514 -0.0092
  153MOL    H8839912   7.071   6.460   5.725  0.4911  0.7712 -0.8040
  153MOL    H8939913   7.133   6.602   5.797 -0.5661 -0.2516 -1.6583
  153MOL    H9039914   6.964   6.577   5.788  0.1096  1.0220  1.1251
  153MOL    H9139915   7.046   6.655   6.057  0.3407  0.0348 -0.1864
  153MOL    H9239916   7.078   6.512   6.150 -1.5989 -2.7040 -0.9028
  153MOL    C9339917   6.866   6.526   6.097  0.1128 -0.3574  0.8034
  153MOL    C9439918   6.831   6.630   6.210  0.3431  0.1730 -0.1393
  153MOL    C9539919   6.784   6.601   6.334  0.8253 -0.2838  0.2395
  153MOL    C9639920   6.775   6.719   6.433  0.2519  0.1811 -0.0179
  153MOL    C9739921   6.753   6.462   6.391  0.1097 -0.0846  0.5177
  153MOL    H9839922   6.846   6.422   6.124 -2.2990  0.5944  2.8316
  153MOL    H9939923   6.798   6.556   6.017  1.1928  1.9470  0.7039
  153MOL   H10039924   6.846   6.734   6.187  1.9048  0.1802  0.8073
  153MOL   H10139925   6.678   6.732   6.480 -0.5110 -0.3243 -1.4185
  153MOL   H10239926   6.833   6.692   6.521 -2.2458 -1.3815  1.2153
  153MOL   H10339927   6.813   6.810   6.386  2.1072 -1.2144 -1.2812
  153MOL   H10439928   6.835   6.418   6.447 -1.1381 -1.8269  1.0233
  153MOL   H10539929   6.753   6.403   6.299  0.9443  1.1480 -0.2916
  153MOL   C10639930   6.620   6.443   6.473 -0.3611 -0.1315 -0.3191
  153MOL   C10739931   6.500   6.497   6.395 -0.6142  0.0761  0.0043
  153MOL   C10839932   6.374   6.447   6.380 -1.0699  0.0982 -0.8257
  153MOL   C10939933   6.319   6.320   6.434 -0.8435  0.1591 -0.3996
  153MOL   C11039934   6.275   6.535   6.305 -0.1102 -0.0734 -0.0806
  153MOL   H11139935   6.630   6.493   6.569  0.4905 -0.8885 -0.0040
  153MOL   H11239936   6.604   6.337   6.491  0.2555 -0.2027 -0.1894
  153MOL   H11339937   6.518   6.596   6.357 -0.6388 -0.5710 -1.7506
  153MOL   H11439938   6.263   6.328   6.527 -0.7290  1.5009 -0.4326
  153MOL   H11539939   6.264   6.271   6.354 -3.0956 -0.4803  1.4833
  153MOL   H11639940   6.401   6.250   6.447 -1.6878 -0.9734 -1.0126
  153MOL   H11739941   6.245   6.492   6.209 -0.2488 -0.5508  0.1779
  153MOL   H11839942   6.319   6.628   6.268 -1.2498  1.2384  1.7950
  153MOL   C11939943   6.154   6.572   6.394 -0.5747 -0.5693 -0.1878
  153MOL   C12039944   6.193   6.669   6.501  0.3370 -0.6526  0.1215
  153MOL   C12139945   6.115   6.742   6.579  0.4569  0.1014  0.2411
  153MOL   C12239946   6.172   6.830   6.693 -0.0207  0.3073 -0.2461
  153MOL   C12339947   5.955   6.742   6.575 -0.6404  0.1272 -0.2875
  153MOL   H12439948   6.114   6.479   6.436  1.2323 -1.1040  0.4482
  153MOL   H12539949   6.086   6.624   6.327 -1.3762  2.1694  2.6509
  153MOL   H12639950   6.299   6.673   6.520  0.3063  1.1312 -0.0474
  153MOL   H12739951   6.276   6.858   6.678 -0.6649  1.1515 -3.5399
  153MOL   H12839952   6.153   6.774   6.784 -1.2926  2.8526  1.1210
  153MOL   H12939953   6.113   6.921   6.705 -0.7266 -0.5324  3.0902
  153MOL   H13039954   5.924   6.686   6.487 -1.7450  1.9486 -1.1074
  153MOL   H13139955   5.919   6.844   6.561  1.2880  0.7298 -1.1334
  153MOL   C13239956   5.901   6.671   6.704  0.3536 -0.4504 -0.6170
  153MOL   C13339957   5.752   6.649   6.701 -0.4845 -0.0654  0.0818
  153MOL   C13439958   5.653   6.726   6.760 -0.2730  0.1158 -1.0274
  153MOL   C13539959   5.502   6.676   6.758 -0.4309 -0.7648 -0.2897
  153MOL   C13639960   5.676   6.861   6.815 -1.1176 -0.6678  0.0603
  153MOL   H13739961   5.920   6.736   6.790  1.0808  0.3497 -1.3747
  153MOL   H13839962   5.960   6.582   6.723 -0.3347 -0.5538  1.2354
  153MOL   H13939963   5.736   6.553   6.654  1.9838 -0.3079 -0.2996
  153MOL   H14039964   5.501   6.587   6.696 -0.4639 -2.8536  2.5960
  153MOL   H14139965   5.447   6.746   6.695 -2.0246  0.5448  2.4639
  153MOL   H14239966   5.460   6.669   6.858 -1.7156  0.1744 -0.7605
  153MOL   H14339967   5.585   6.919   6.799  0.2077  1.9785  1.8191
  153MOL   H14439968   5.755   6.914   6.762  0.8823 -1.0828  2.4983
  153MOL   C14539969   5.711   6.863   6.966  0.6880  0.3626  0.3640
  153MOL   C14639970   5.754   7.001   7.010  0.0124  1.0997 -0.0563
  153MOL   C14739971   5.723   7.070   7.122 -0.0803  0.5127  0.6018
  153MOL   C14839972   5.820   7.190   7.158  0.5411  0.0642 -0.2520
  153MOL   C14939973   5.611   7.028   7.216  0.2218 -0.0504  0.1278
  153MOL   H15039974   5.798   6.800   6.983  1.3127  0.5853 -1.8873
  153MOL   H15139975   5.626   6.826   7.024 -0.0604  1.6304  0.0935
  153MOL   H15239976   5.827   7.041   6.942  0.8504  0.2804  0.3570
  153MOL   H15339977   5.864   7.173   7.257 -0.1444 -1.1453 -0.1535
  153MOL   H15439978   5.769   7.287   7.160  0.1736 -0.1062 -1.5200
  153MOL   H15539979   5.907   7.198   7.092 -0.6915  1.8777 -1.7032
  153MOL   H15639980   5.663   6.975   7.296  0.3896 -1.0496 -0.6355
  153MOL   H15739981   5.533   6.965   7.174 -1.4907  0.0076  3.0733
  153MOL   C15839982   5.535   7.141   7.284  1.2931 -0.5300  0.0249
  153MOL   C15939983   5.411   7.095   7.352  0.2773 -0.6521 -0.5250
  153MOL   C16039984   5.371   7.109   7.480 -0.9324 -0.1223  0.1021
  153MOL   C16139985   5.450   7.181   7.584 -0.1308 -0.1393  0.3105
  153MOL   C16239986   5.227   7.068   7.519 -0.7312 -1.1565  0.8389
  153MOL   H16339987   5.513   7.222   7.215 -0.8588 -1.3042 -0.2524
  153MOL   H16439988   5.598   7.193   7.356  1.0457  1.4800 -1.1925
  153MOL   H16539989   5.338   7.045   7.289  2.4456 -2.4179 -1.7410
  153MOL   H16639990   5.397   7.256   7.642 -1.0942 -0.1213 -0.5685
  153MOL   H16739991   5.543   7.228   7.554 -0.7998  0.5270 -0.7822
  153MOL   H16839992   5.474   7.104   7.657  1.4147 -0.9153 -0.9788
  153MOL   H16939993   5.181   7.023   7.431  0.5956  0.9351 -0.9785
  153MOL   H17039994   5.168   7.158   7.536 -2.3562 -1.9367 -0.5085
  153MOL   C17139995   5.227   6.982   7.640  0.7153 -0.3838 -0.2480
  153MOL   C17239996   5.091   6.915   7.645 -0.3328 -0.2230  0.2689
  153MOL   C17339997   5.065   6.785   7.654 -0.7835  0.2361  0.2199
  153MOL   C17439998   5.165   6.670   7.651  0.3429 -0.0056  0.1087
  153MOL   C17539999   4.920   6.738   7.678  0.0729  0.0225 -0.9161
  153MOL   H17640000   5.234   7.037   7.734  2.5262 -3.0803  1.2776
  153MOL   H17740001   5.308   6.909   7.638  0.0129 -1.1914  0.2989
  153MOL   H17840002   5.010   6.986   7.642  1.4488  1.8399 -2.3982
  153MOL   H17940003   5.266   6.703   7.623  0.9754 -1.3815  0.7477
  153MOL   H18040004   5.132   6.584   7.593 -1.1328  0.8954 -0.4104
  153MOL   H18140005   5.169   6.648   7.757 -1.8296  2.4595  0.7605
  153MOL   H18240006   4.862   6.824   7.711 -1.1616 -1.4267  0.7776
  153MOL   H18340007   4.913   6.664   7.758  1.2559  1.5552  0.6310
  153MOL   C18440008   4.848   6.696   7.546 -0.5880 -0.5578 -0.0262
  153MOL   C18540009   4.789   6.554   7.545  0.3375  0.9519 -0.5474
  153MOL   C18640010   4.659   6.515   7.514 -0.1138 -0.3128  0.0620
  153MOL   C18740011   4.620   6.372   7.531  0.1709 -0.1426  0.6772
  153MOL   C18840012   4.554   6.610   7.467  0.6870 -0.2073 -0.3636
  153MOL   H18940013   4.927   6.675   7.474 -1.8375 -1.7705 -1.0752
  153MOL   H19040014   4.777   6.772   7.513 -1.0336  0.2313  2.5992
  153MOL   H19140015   4.854   6.470   7.565 -0.6675 -0.2785 -2.2800
  153MOL   H19240016   4.622   6.319   7.435 -1.8317  0.3960  0.3074
  153MOL   H19340017   4.519   6.370   7.571  0.1484 -0.2776  0.6110
  153MOL   H19440018   4.696   6.322   7.590  1.4271  2.3203  1.2261
  153MOL   H19540019   4.508   6.559   7.382  0.1176 -0.4800  0.1022
  153MOL   H19640020   4.586   6.705   7.423 -0.6074  0.3820 -0.0551
  153MOL   C19740021   4.461   6.665   7.571  0.2830 -0.8984 -0.7273
  153MOL   C19840022   4.529   6.771   7.658 -0.5912  0.2875  0.6598
  153MOL   C19940023   4.483   6.879   7.715  0.1313  0.9417 -0.3419
  153MOL   C20040024   4.566   6.954   7.816  0.0583 -0.2711  0.5501
  153MOL   C20140025   4.341   6.938   7.694 -0.0528 -0.1271 -0.2473
  153MOL   H20240026   4.439   6.577   7.632 -0.2578 -0.7205 -0.6594
  153MOL   H20340027   4.372   6.712   7.529  0.9174 -0.4707 -1.6096
  153MOL   H20440028   4.628   6.745   7.690  0.5393  3.1949 -0.2682
  153MOL   H20540029   4.671   6.926   7.814 -0.1730 -1.1040 -0.0186
  153MOL   H20640030   4.520   6.935   0.034 -2.0524  0.3084 -0.2882
  153MOL   H20740031   4.561   7.059   7.784  0.5138 -0.3580  0.1946
  153MOL   H20840032   4.307   6.976   7.790  2.9064 -1.5740  1.4450
  153MOL   H20940033   4.268   6.860   7.671 -1.0991  1.0971 -1.1253
  153MOL   C21040034   4.323   7.051   7.590  0.9720  0.5686  0.2420
  153MOL   C21140035   4.369   7.006   7.449  0.0680 -0.3913 -0.5033
  153MOL   C21240036   4.302   6.994   7.337  0.1470 -1.2535  0.3727
  153MOL   C21340037   4.375   6.941   7.211 -0.0681 -0.3383 -0.0271
  153MOL   C21440038   4.152   7.022   7.322 -0.0005  0.1242 -0.2648
  153MOL   H21540039   4.378   7.142   7.613 -1.3125  2.4437 -1.4663
  153MOL   H21640040   4.218   7.076   7.588  1.1892  1.5831  1.3813
  153MOL   H21740041   4.468   6.964   7.443 -0.4013 -1.6283  0.2468
  153MOL   H21840042   4.354   6.834   7.201 -0.4024 -0.4115  1.3355
  153MOL   H21940043   4.480   6.959   7.231 -0.1857  0.3561 -0.0238
  153MOL   H22040044   4.337   6.989   7.121 -2.5314  0.3364  1.3334
  153MOL   H22140045   4.095   6.989   7.409  3.9407 -1.8153  1.6784
  153MOL   H22240046   4.105   6.953   7.251 -0.8492  0.4858 -0.0669
  153MOL   C22340047   4.119   7.161   7.263 -0.2333 -0.3695 -0.2346
  153MOL   C22440048   3.975   7.191   7.236  0.2027  0.2257 -0.0675
  153MOL   C22540049   3.922   7.250   7.127 -0.2925 -0.2464 -0.5784
  153MOL   C22640050   3.778   7.273   7.124 -0.0078  0.1840 -0.0861
  153MOL   C22740051   4.003   7.285   7.002  0.2466 -0.1431 -0.4056
  153MOL   H22840052   4.180   7.179   7.174 -0.4682  3.4076  0.2724
  153MOL   H22940053   4.153   7.247   7.321  1.0233  0.9370 -2.8269
  153MOL   H23040054   3.917   7.169   7.325  0.7815  0.5314  0.3888
  153MOL   H23140055   3.733   7.255   7.026  1.4053  1.1344 -0.9282
  153MOL   H23240056   3.768   7.378   7.150 -0.5285  0.4624 -1.3622
  153MOL   H23340057   3.723   7.215   7.198  2.0256  1.0247  2.1498
  153MOL   H23440058   4.108   7.299   7.024 -0.2101  0.5422  1.4099
  153MOL   H23540059   3.963   7.379   6.963 -1.7771 -0.2699  1.2321
  153MOL   C23640060   3.994   7.186   6.889 -0.2539 -0.2545  0.2427
  153MOL   C23740061   4.059   7.060   6.932  0.5734 -0.6699  0.2480
  153MOL   C23840062   4.139   6.977   6.863 -0.9955 -0.5578  0.2854
  153MOL   C23940063   4.192   6.855   6.929  0.0457  0.1662 -0.6419
  153MOL   C24040064   4.179   6.991   6.712 -0.1423  0.1868 -0.3190
  153MOL   H24140065   4.049   7.228   6.805  0.6883 -1.2039  0.3787
  153MOL   H24240066   3.891   7.168   6.857  0.0114 -0.8831 -0.2498
  153MOL   H24340067   4.032   7.026   7.031  3.0753 -0.5717  0.9978
  153MOL   H24440068   4.181   6.767   6.866 -0.0665  0.4841 -1.0611
  153MOL   H24540069   4.153   6.828   7.027  1.6312  1.2239  0.2994
  153MOL   H24640070   4.298   6.872   6.948 -0.4160  1.1368  1.1841
  153MOL   H24740071   4.104   7.063   6.677  0.8534  1.7207  0.6590
  153MOL   H24840072   4.159   6.893   6.668  0.9119 -0.8772  1.5300
  153MOL   C24940073   4.323   7.047   6.691 -0.0391  0.4837  0.2572
  153MOL   C25040074   4.348   7.080   6.541  0.3060  0.9305 -0.2940
  153MOL   C25140075   4.463   7.059   6.469 -0.2905  0.3653 -0.6362
  153MOL   C25240076   4.472   7.117   6.328  0.3815 -0.3112  0.4544
  153MOL   C25340077   4.590   6.992   6.523  0.5136 -0.2026  0.1927
  153MOL   H25440078   4.399   6.976   6.722 -0.6808 -0.4174 -0.1982
  153MOL   H25540079   4.332   7.138   6.751 -2.0756  0.7171  0.2337
  153MOL   H25640080   4.270   7.139   6.493 -0.9412 -1.7283 -1.6126
  153MOL   H25740081   4.480   7.031   6.262  0.8015 -0.6746  0.9732
  153MOL   H25840082   4.566   7.169   6.312  0.1717  0.4586  1.6419
  153MOL   H25940083   4.385   7.180   6.309  0.9120 -0.0380 -1.1010
  153MOL   H26040084   4.593   6.883   6.523  2.8552 -0.1487 -0.3329
  153MOL   H26140085   4.604   7.032   6.624  1.6527  0.0899 -0.0752
  153MOL   H26240086   4.675   7.036   6.473 -1.6347  1.9594 -1.6870
  154MOL     C140087   6.482   1.986   5.458 -0.2926  0.1570  0.6795
  154MOL     C240088   6.558   2.116   5.492  0.4644  0.7412  0.9350
  154MOL     C340089   6.689   2.124   5.485 -0.5415 -0.1119 -0.1085
  154MOL     C440090   6.751   2.255   5.551 -0.5416 -0.0463 -0.1325
  154MOL     C540091   6.789   2.026   5.421 -0.0083 -0.2957 -0.6107
  154MOL     H640092   6.484   1.905   5.530  0.3731  1.5168  2.2101
  154MOL     H740093   6.376   2.006   5.446 -0.5004 -0.7392  1.0334
  154MOL     H840094   6.493   2.182   5.547  0.5449  1.4394  0.2018
  154MOL     H940095   6.776   2.221   5.651  0.1529  1.8187  0.3485
  154MOL    H1040096   6.677   2.334   5.564  0.1404  0.6103 -0.2666
  154MOL    H1140097   6.839   2.290   5.498 -1.0943  3.1282  0.9285
  154MOL    H1240098   6.835   2.092   5.348 -0.7159  1.4024  0.4503
  154MOL    H1340099   6.728   1.958   5.362  0.5797 -1.3906  0.0322
  154MOL    H1440100   6.514   1.950   5.360 -0.1908  0.6288  0.5360
  154MOL    C1540101   6.894   1.970   5.513  0.5293  0.1707  0.5225
  154MOL    C1640102   6.993   1.886   5.437 -0.1545 -0.1760  0.0918
  154MOL    C1740103   7.110   1.921   5.381 -0.3595  0.3977 -0.1682
  154MOL    C1840104   7.189   1.821   5.299  0.3337 -0.0957  0.2986
  154MOL    C1940105   7.165   2.063   5.391  0.1868 -0.3934  0.6967
  154MOL    H2040106   6.859   1.907   5.594  1.9267 -0.8771  0.3311
  154MOL    H2140107   6.942   2.044   5.577  1.1362  1.1227 -1.0079
  154MOL    H2240108   6.953   1.788   5.416 -0.8980  0.5218 -1.8334
  154MOL    H2340109   7.140   1.726   5.278 -0.7324  0.0181  2.1177
  154MOL    H2440110   7.269   1.805   5.372  0.4285 -2.0318 -0.1938
  154MOL    H2540111   7.226   1.866   5.207  2.2385 -2.1544  0.0208
  154MOL    H2640112   7.091   2.131   5.433 -2.8533 -2.3988 -1.2125
  154MOL    H2740113   7.186   2.103   5.292 -2.8309  1.0727  0.5999
  154MOL    C2840114   7.289   2.069   5.476  0.1789 -0.1470  0.0500
  154MOL    C2940115   7.348   2.206   5.503  0.5078  0.0931  0.4571
  154MOL    C3040116   7.324   2.291   5.607  0.1009 -0.5936  0.0985
  154MOL    C3140117   7.395   2.426   5.621  0.3493 -0.8347 -0.1057
  154MOL    C3240118   7.226   2.262   5.718  0.1234  0.4105  0.8931
  154MOL    H3340119   7.369   2.012   5.430 -0.5335 -0.2459 -1.0910
  154MOL    H3440120   7.261   2.016   5.567  2.8275 -2.5559 -0.4709
  154MOL    H3540121   7.428   2.235   5.436 -1.2365  1.0416 -1.2684
  154MOL    H3640122   7.495   2.427   5.665  0.8355 -2.6506 -1.1382
  154MOL    H3740123   7.351   2.494   5.694 -0.1381 -0.0534 -1.1177
  154MOL    H3840124   7.395   2.475   5.524 -0.9986 -1.9709 -0.7030
  154MOL    H3940125   7.263   2.290   5.817 -0.4859 -0.5156  1.3851
  154MOL    H4040126   7.191   2.159   5.720  0.1648  0.3758  0.0067
  154MOL    C4140127   7.100   2.348   5.693 -0.2429  0.8782 -0.2557
  154MOL    C4240128   7.001   2.318   5.805  0.3080  0.6377  0.2967
  154MOL    C4340129   6.919   2.409   5.859 -0.1412 -0.3518 -1.3610
  154MOL    C4440130   6.828   2.372   5.969  0.8269  1.0324 -0.0458
  154MOL    C4540131   6.914   2.555   5.816  0.2383  0.1434  0.2781
  154MOL    H4640132   7.055   2.341   5.594 -0.7536 -1.1992  0.1057
  154MOL    H4740133   7.134   2.451   5.684 -1.2774  1.4065  1.5861
  154MOL    H4840134   6.992   2.213   5.831 -0.1658  0.6328  0.1248
  154MOL    H4940135   6.852   2.272   6.004  0.3764  0.4029 -1.5349
  154MOL    H5040136   6.724   2.358   5.939  1.2387  1.0027 -1.4539
  154MOL    H5140137   6.847   2.434   6.057  0.3971  1.2733 -0.1178
  154MOL    H5240138   7.007   2.597   5.776 -0.1673  2.7123  1.9296
  154MOL    H5340139   6.896   2.612   5.907 -1.7176 -1.6551  1.0522
  154MOL    C5440140   6.786   2.565   5.727 -0.7161  0.0539 -0.4998
  154MOL    C5540141   6.781   2.692   5.640  0.2622 -0.6516 -0.7098
  154MOL    C5640142   6.678   2.730   5.566 -0.0762 -0.1397  0.5900
  154MOL    C5740143   6.696   2.848   5.468  0.3127  0.4937 -0.2566
  154MOL    C5840144   6.540   2.658   5.571  0.1333 -0.2063 -0.4128
  154MOL    H5940145   6.698   2.554   5.791 -1.7801 -1.3266 -2.1578
  154MOL    H6040146   6.797   2.494   5.645 -1.4559 -0.5987 -0.0451
  154MOL    H6140147   6.876   2.744   5.638 -0.1485  0.1807  0.8560
  154MOL    H6240148   6.604   2.888   5.425 -0.4109 -1.9308 -1.0481
  154MOL    H6340149   6.763   2.817   5.388 -0.4239 -2.4186  0.1882
  154MOL    H6440150   6.762   2.923   5.511  0.4909  0.2812 -0.1585
  154MOL    H6540151   6.479   2.741   5.607  0.8304 -0.0746  0.4858
  154MOL    H6640152   6.530   2.596   5.660  0.4894  2.1300  1.3057
  154MOL    C6740153   6.494   2.610   5.434  0.0835  0.3970  0.0600
  154MOL    C6840154   6.351   2.548   5.440 -0.4609  0.4661  0.1824
  154MOL    C6940155   6.245   2.577   5.365  0.0309 -0.3882  0.4316
  154MOL    C7040156   6.113   2.500   5.373  0.3762  0.5372  0.1837
  154MOL    C7140157   6.247   2.690   5.259 -0.0164 -0.9059 -0.1809
  154MOL    H7240158   6.564   2.537   5.393 -1.8540 -0.9947 -0.8618
  154MOL    H7340159   6.502   2.697   5.369 -2.8873 -0.2724 -1.2791
  154MOL    H7440160   6.343   2.459   5.502 -1.7063 -0.2940 -1.0177
  154MOL    H7540161   6.031   2.571   5.367 -0.8607 -0.9882 -1.4841
  154MOL    H7640162   6.108   2.446   5.468  0.2562  1.5428  0.7492
  154MOL    H7740163   6.101   2.420   5.299 -0.2062 -1.9415  2.8502
  154MOL    H7840164   6.343   2.740   5.249  0.0578 -0.9361  0.3695
  154MOL    H7940165   6.176   2.762   5.300  0.3284 -0.1638 -0.8831
  154MOL    C8040166   6.213   2.649   5.113 -0.3663 -0.1513 -0.1382
  154MOL    C8140167   6.183   2.767   5.016  0.3569  0.3470  0.3421
  154MOL    C8240168   6.062   2.792   4.967 -0.3298 -0.0318  0.8885
  154MOL    C8340169   5.936   2.712   5.015 -0.3918 -0.4144 -0.9040
  154MOL    C8440170   6.034   2.909   4.873 -0.5956  0.2241  0.0205
  154MOL    H8540171   6.132   2.576   5.110  0.3873 -0.9342 -2.5564
  154MOL    H8640172   6.294   2.594   5.067 -0.2632  0.2955 -0.4886
  154MOL    H8740173   6.255   2.844   4.995  0.2750  0.2991 -0.1374
  154MOL    H8840174   5.941   2.676   5.118  0.3325 -1.9265 -1.4411
  154MOL    H8940175   5.926   2.623   4.952  0.0195 -1.6163  0.6829
  154MOL    H9040176   5.847   2.774   5.016  0.6320  1.0706  1.5929
  154MOL    H9140177   6.125   2.962   4.848 -1.5024  1.5181 -0.5882
  154MOL    H9240178   5.981   2.979   4.937 -1.1694 -2.3032  2.4297
  154MOL    C9340179   5.965   2.877   4.745  0.3900  0.6287  0.1550
  154MOL    C9440180   5.970   2.996   4.654  0.4104 -0.5781  0.6676
  154MOL    C9540181   5.858   3.070   4.615  0.5729 -0.6940 -0.6043
  154MOL    C9640182   5.874   3.186   4.527 -0.2333 -1.3909  0.7006
  154MOL    C9740183   5.725   3.044   4.678 -0.7303  0.1291 -0.1295
  154MOL    H9840184   5.867   2.831   4.765  0.0986  1.3004  0.2765
  154MOL    H9940185   6.015   2.790   4.703 -0.5976 -0.3779  0.9937
  154MOL   H10040186   6.068   3.028   4.621  0.6190  0.6747  2.3946
  154MOL   H10140187   5.930   3.266   4.573 -1.4778 -0.4247  0.5602
  154MOL   H10240188   5.937   3.157   4.442  0.3763  2.6440 -0.2970
  154MOL   H10340189   5.777   3.222   4.493  0.2511 -1.5689 -0.9378
  154MOL   H10440190   5.705   2.945   4.717 -1.0253  0.7494  1.2998
  154MOL   H10540191   5.649   3.044   4.599 -2.7617  2.4914  1.7259
  154MOL   C10640192   5.671   3.137   4.782  0.2952 -0.1446  0.3206
  154MOL   C10740193   5.520   3.148   4.780 -0.1699  0.1752  0.5788
  154MOL   C10840194   5.428   3.088   4.859  0.1212  0.2828  0.5955
  154MOL   C10940195   5.463   2.980   4.958 -0.1828 -0.6610  0.4048
  154MOL   C11040196   5.284   3.116   4.836 -0.1927 -0.0138  0.2037
  154MOL   H11140197   5.720   3.234   4.770 -0.3959  0.1637 -0.0160
  154MOL   H11240198   5.703   3.099   4.879  2.5412 -0.1980 -0.4095
  154MOL   H11340199   5.473   3.217   4.712 -3.4995 -2.9252 -0.4498
  154MOL   H11440200   5.570   2.964   4.970  0.2464  0.7789 -1.4078
  154MOL   H11540201   5.424   2.992   5.059 -1.5005 -0.8313 -0.0695
  154MOL   H11640202   5.410   2.891   4.924  0.0930 -0.3921 -0.7586
  154MOL   H11740203   5.226   3.073   4.917  2.4668 -0.9235  1.6713
  154MOL   H11840204   5.247   3.060   4.750  0.5038 -0.8884  0.4626
  154MOL   C11940205   5.238   3.262   4.825 -0.3019  0.0370  0.1602
  154MOL   C12040206   5.090   3.273   4.824 -0.0251 -0.9218 -0.3232
  154MOL   C12140207   5.004   3.269   4.925  0.2934  0.0602 -0.4843
  154MOL   C12240208   4.860   3.292   4.903  1.2701  0.4158 -0.1009
  154MOL   C12340209   5.051   3.251   5.074  0.2735 -0.6492 -0.3603
  154MOL   H12440210   5.269   3.310   4.732  0.6256  3.5137  2.1688
  154MOL   H12540211   5.280   3.320   4.906  0.1710  1.3698 -1.0134
  154MOL   H12640212   5.046   3.303   4.730  0.6406 -0.0212 -0.3619
  154MOL   H12740213   4.821   3.375   4.962 -3.4318 -1.4070 -0.4434
  154MOL   H12840214   4.811   3.205   4.946 -1.8033  1.5551 -1.1401
  154MOL   H12940215   4.825   3.310   4.802  3.3019  1.3339 -0.6702
  154MOL   H13040216   5.027   3.341   5.130 -1.7158 -0.4043 -1.5672
  154MOL   H13140217   5.160   3.259   5.076  0.0820  3.5704  3.6550
  154MOL   C13240218   5.008   3.122   5.140 -0.2367 -0.1742  0.4428
  154MOL   C13340219   5.080   3.105   5.272  1.0332  0.3595 -0.0421
  154MOL   C13440220   5.153   2.992   5.304 -0.4172 -0.1287  0.2360
  154MOL   C13540221   5.227   2.982   5.436  0.1019  0.0197  0.3470
  154MOL   C13640222   5.162   2.870   5.217  0.2356  0.8030  0.2394
  154MOL   H13740223   5.035   3.042   5.070  2.3481  1.3345 -0.3777
  154MOL   H13840224   4.900   3.117   5.156 -0.1239 -0.5519  1.1029
  154MOL   H13940225   5.079   3.189   5.341 -0.6303  0.6957 -0.4450
  154MOL   H14040226   5.322   3.036   5.434 -0.0175  0.2080 -0.1644
  154MOL   H14140227   5.262   2.879   5.448 -1.6087 -0.5406  0.6241
  154MOL   H14240228   5.166   3.004   5.523 -2.1216  0.5788 -1.3303
  154MOL   H14340229   5.267   2.843   5.222  0.1044  0.2723  0.2430
  154MOL   H14440230   5.163   2.894   5.111  1.1928 -1.5984 -0.3249
  154MOL   C14540231   5.078   2.755   5.257 -0.0620 -0.0783  0.2840
  154MOL   C14640232   4.931   2.798   5.278  0.6952  0.1457  0.9997
  154MOL   C14740233   4.823   2.773   5.204  0.1095  0.4063 -0.3855
  154MOL   C14840234   4.679   2.821   5.242 -0.0367 -0.1212  0.0930
  154MOL   C14940235   4.813   2.677   5.085 -0.4275  0.8146 -0.1379
  154MOL   H15040236   5.108   2.717   5.355 -1.6120 -1.7832  0.1282
  154MOL   H15140237   5.091   2.660   5.205 -0.6344  1.0302 -1.9443
  154MOL   H15240238   4.925   2.863   5.365 -0.4400  1.6666 -0.1845
  154MOL   H15340239   4.689   2.861   5.343 -0.2460 -0.1093  0.1089
  154MOL   H15440240   4.600   2.746   5.250 -0.4358  0.0457 -2.0118
  154MOL   H15540241   4.639   2.896   5.174 -2.5784  0.7777  2.4867
  154MOL   H15640242   4.912   2.660   5.043 -0.7292 -1.6621  0.0870
  154MOL   H15740243   4.747   2.729   5.015 -2.7434  2.0386  2.8563
  154MOL   C15840244   4.759   2.539   5.122  0.4898  0.1150 -0.3645
  154MOL   C15940245   4.841   2.470   5.229  0.3017 -0.3188 -0.0612
  154MOL   C16040246   4.926   2.363   5.213  0.0992  0.0873 -0.3120
  154MOL   C16140247   4.955   2.291   5.082  0.2561  0.2537 -0.2342
  154MOL   C16240248   4.998   2.314   5.332 -0.3682 -0.1859  0.2531
  154MOL   H16340249   4.738   2.477   5.035  5.1999 -2.2108  0.0225
  154MOL   H16440250   4.657   2.543   5.162  0.6964 -2.7453  0.4861
  154MOL   H16540251   4.819   2.510   5.326  1.8691 -0.4136  0.3453
  154MOL   H16640252   4.926   2.188   5.102  0.4165  0.1488 -0.5289
  154MOL   H16740253   5.059   2.291   5.047  0.0827  0.4250 -0.7607
  154MOL   H16840254   4.901   2.336   4.999  2.7286  2.3007 -0.8231
  154MOL   H16940255   5.002   2.205   5.342  1.9729 -0.5823 -4.0232
  154MOL   H17040256   4.947   2.347   5.422 -1.1553 -1.7259  0.3932
  154MOL   C17140257   5.151   2.355   5.330  0.2725  0.1510  0.0416
  154MOL   C17240258   5.244   2.303   5.436  0.3766 -0.4504 -0.6978
  154MOL   C17340259   5.303   2.185   5.451 -0.3020 -0.3003  0.2043
  154MOL   C17440260   5.291   2.074   5.347 -0.0574  0.0465  0.3925
  154MOL   C17540261   5.391   2.162   5.572  0.3142 -0.6077 -0.0496
  154MOL   H17640262   5.168   2.463   5.334 -1.6059  0.5009 -0.6149
  154MOL   H17740263   5.189   2.315   5.236  2.1923  0.4029  0.6862
  154MOL   H17840264   5.275   2.371   5.513  0.1346  0.5713 -1.4984
  154MOL   H17940265   5.264   1.984   5.401  1.4007 -0.4660  0.2754
  154MOL   H18040266   5.376   2.062   5.279 -1.6925 -1.5436 -1.4517
  154MOL   H18140267   5.203   2.086   5.284  0.2532 -1.9467 -0.4445
  154MOL   H18240268   5.356   2.070   5.618 -1.2745  0.2074  0.4281
  154MOL   H18340269   5.385   2.231   5.656 -0.8834 -0.6522 -0.0940
  154MOL   C18440270   5.539   2.130   5.544 -0.1387  0.2282 -0.1451
  154MOL   C18540271   5.609   2.217   5.439  0.7298 -0.1124  0.4071
  154MOL   C18640272   5.735   2.263   5.434  0.0744 -0.0100 -0.7257
  154MOL   C18740273   5.779   2.351   5.320 -0.1979 -0.3420  0.6923
  154MOL   C18840274   5.849   2.220   5.533 -0.1403 -0.3379 -0.1910
  154MOL   H18940275   5.555   2.027   5.512  0.5937 -0.1441  1.3494
  154MOL   H19040276   5.583   2.134   5.644 -1.6383 -0.9689  0.5880
  154MOL   H19140277   5.539   2.244   5.361 -1.3163  0.5981  2.4367
  154MOL   H19240278   5.698   2.368   5.248 -2.3518  0.4116  3.2255
  154MOL   H19340279   5.850   2.292   5.261 -3.1456 -1.8432 -1.5173
  154MOL   H19440280   5.811   2.450   5.352 -2.2325  0.6123 -0.0889
  154MOL   H19540281   5.813   2.145   5.604 -0.1827 -0.1405 -0.0032
  154MOL   H19640282   5.889   2.305   5.589 -0.8129 -0.9180  1.1959
  154MOL   C19740283   5.975   2.159   5.469  0.0450  0.6655 -0.0238
  154MOL   C19840284   6.086   2.125   5.567 -0.2490 -0.4322 -0.3478
  154MOL   C19940285   6.096   2.001   5.624 -0.1975 -0.5344 -0.0751
  154MOL   C20040286   6.208   1.980   5.727 -0.1555  0.1627 -0.8619
  154MOL   C20140287   6.000   1.881   5.599 -0.1450  0.5373 -0.4739
  154MOL   H20240288   6.027   2.234   5.410  3.9317 -2.7558 -1.1967
  154MOL   H20340289   5.947   2.088   5.391 -0.9322  2.4932 -1.3528
  154MOL   H20440290   6.149   2.204   5.604 -0.6134 -0.8762  1.2397
  154MOL   H20540291   6.214   1.888   5.785 -0.1455 -0.5138 -1.9191
  154MOL   H20640292   6.203   2.061   5.800  0.7061 -0.8909  0.3846
  154MOL   H20740293   6.299   1.973   5.667 -1.1762  3.8702 -3.0089
  154MOL   H20840294   6.053   1.795   5.557 -1.2271 -0.3251 -0.0835
  154MOL   H20940295   5.928   1.915   5.525 -1.2986  0.5449  0.6378
  154MOL   C21040296   5.917   1.843   5.727 -0.3416 -0.2185 -0.4379
  154MOL   C21140297   5.823   1.732   5.689 -0.2034  0.2725  0.3791
  154MOL   C21240298   5.775   1.625   5.761  0.5608 -0.1354  0.9397
  154MOL   C21340299   5.676   1.527   5.706 -0.2722 -1.2329 -0.5659
  154MOL   C21440300   5.817   1.611   5.907  0.1040 -0.2154  0.4419
  154MOL   H21540301   5.857   1.930   5.753 -2.1347 -2.0087  1.4807
  154MOL   H21640302   5.980   1.819   5.813 -1.8417 -0.8495  0.4881
  154MOL   H21740303   5.783   1.750   5.590  0.1198  0.0446  0.2040
  154MOL   H21840304   5.670   1.538   5.597  1.5529  1.6795 -0.4142
  154MOL   H21940305   5.580   1.547   5.753  0.6118 -0.1330  0.7872
  154MOL   H22040306   5.711   1.428   5.735 -0.3838 -1.4093 -1.0309
  154MOL   H22140307   5.921   1.643   5.914  0.3953 -0.2253 -3.0065
  154MOL   H22240308   5.815   1.506   5.933 -2.2646 -0.8700 -2.1048
  154MOL   C22340309   5.725   1.692   6.009 -0.7856  0.1230  0.3097
  154MOL   C22440310   5.582   1.622   6.012 -0.3908  0.4285 -0.1330
  154MOL   C22540311   5.461   1.682   6.003  0.2774  0.6207 -0.7271
  154MOL   C22640312   5.331   1.606   6.012 -0.1262  0.8762 -0.2207
  154MOL   C22740313   5.433   1.838   5.999  0.0091 -0.0499  0.1338
  154MOL   H22840314   5.713   1.791   5.965  2.8436 -0.0481 -1.2000
  154MOL   H22940315   5.777   1.701   6.104  0.7841  0.3287 -0.5616
  154MOL   H23040316   5.577   1.515   6.009 -0.5612  0.3811  1.5167
  154MOL   H23140317   5.310   1.558   6.108  0.1093 -1.0634 -1.1144
  154MOL   H23240318   5.320   1.539   5.927  0.1393 -0.9941  1.1823
  154MOL   H23340319   5.242   1.669   6.004  0.0978  1.3293  0.7959
  154MOL   H23440320   5.529   1.888   6.016 -1.0219  1.5454  1.4004
  154MOL   H23540321   5.383   1.861   6.093  0.8504 -0.4122  0.6793
  154MOL   C23640322   5.357   1.881   5.877 -0.2101  0.1128  0.1517
  154MOL   C23740323   5.423   1.820   5.750 -0.4001 -0.1987 -0.2854
  154MOL   C23840324   5.362   1.770   5.643 -0.0278  0.2211  0.1267
  154MOL   C23940325   5.436   1.699   5.532 -0.5767 -0.2933 -0.1448
  154MOL   C24040326   5.211   1.790   5.626  0.3308  0.0213  0.0521
  154MOL   H24140327   5.377   1.988   5.875 -0.8153  0.3155  3.0447
  154MOL   H24240328   5.250   1.861   5.884 -0.1416  0.3216  2.0731
  154MOL   H24340329   5.531   1.820   5.749 -0.3644  0.0914  1.1737
  154MOL   H24440330   5.410   1.593   5.538 -1.8279  0.0249  0.3248
  154MOL   H24540331   5.542   1.722   5.537 -1.1014  1.9875  1.0580
  154MOL   H24640332   5.395   1.740   5.439  1.8020  0.7411 -0.7699
  154MOL   H24740333   5.187   1.798   5.520  2.0273 -1.4969 -0.4637
  154MOL   H24840334   5.186   1.888   5.667  1.2260  0.4643 -0.4461
  154MOL   C24940335   5.129   1.672   5.677 -0.0345 -0.2806 -0.8658
  154MOL   C25040336   4.980   1.678   5.650 -0.8533 -0.1957 -0.8461
  154MOL   C25140337   4.874   1.655   5.727  0.0283  0.2322  0.2609
  154MOL   C25240338   4.734   1.662   5.664  0.7892 -0.1908  0.3936
  154MOL   C25340339   4.881   1.619   5.869 -0.0290 -0.6429  0.5501
  154MOL   H25440340   5.138   1.659   5.785  1.1020 -0.2426 -0.9480
  154MOL   H25540341   5.164   1.581   5.631  0.2917 -0.0674 -1.0417
  154MOL   H25640342   4.952   1.709   5.551 -1.0454 -1.5668 -1.2280
  154MOL   H25740343   4.651   1.611   5.713  2.1708 -1.1704  1.7301
  154MOL   H25840344   4.737   1.635   5.559 -2.8116 -0.4469  0.2761
  154MOL   H25940345   4.703   1.767   5.659  3.4504  0.6179  0.3491
  154MOL   H26040346   4.795   1.651   5.928  0.9551 -0.3466  1.8529
  154MOL   H26140347   4.971   1.646   5.925  1.0417  1.6002 -2.0902
  154MOL   H26240348   4.883   1.511   5.874 -0.6753 -0.6038  1.9717
  155MOL     C140349   1.734   6.165   0.219  0.6876  0.1219  0.2085
  155MOL     C240350   1.859   6.187   0.301  0.0584 -0.0057  0.4027
  155MOL     C340351   1.869   6.165   0.431 -0.5945 -0.8012 -0.9542
  155MOL     C440352   1.998   6.209   0.510 -0.1570  0.2290  0.0823
  155MOL     C540353   1.760   6.102   0.512  0.1829 -0.8162 -0.1401
  155MOL     H640354   1.757   6.126   0.120  0.7130 -0.0410  0.2786
  155MOL     H740355   1.672   6.087   0.262  0.0747  0.2117 -0.4834
  155MOL     H840356   1.945   6.234   0.256 -1.1320  1.5040 -0.3923
  155MOL     H940357   1.968   6.279   0.587 -0.9026  0.4211 -0.3743
  155MOL    H1040358   2.072   6.259   0.447  0.5846  1.5225  1.9608
  155MOL    H1140359   2.046   6.118   0.548 -0.0728  0.7928  1.3436
  155MOL    H1240360   1.663   6.118   0.465  1.0151 -0.0659 -1.6566
  155MOL    H1340361   1.750   6.167   0.598 -3.5930 -1.3040 -0.1338
  155MOL    H1440362   1.671   6.255   0.222  1.4149  0.6684 -0.6401
  155MOL    C1540363   1.793   5.962   0.566  1.0946  0.2046 -0.1807
  155MOL    C1640364   1.814   5.850   0.469 -0.4773  0.0242 -0.3269
  155MOL    C1740365   1.781   5.720   0.483  0.0011  0.0102 -0.1904
  155MOL    C1840366   1.813   5.612   0.386 -0.3720  0.3443 -0.1025
  155MOL    C1940367   1.727   5.656   0.606 -0.6178  0.4297 -0.2952
  155MOL    H2040368   1.727   5.940   0.649  0.1980 -0.4158 -1.0450
  155MOL    H2140369   1.891   5.962   0.614  1.0097  0.1367 -0.0099
  155MOL    H2240370   1.861   5.873   0.374  0.2858 -0.9060 -0.1861
  155MOL    H2340371   1.856   5.655   0.295 -1.6951  1.5098 -0.2000
  155MOL    H2440372   1.726   5.551   0.360  0.1789  0.0637 -1.3340
  155MOL    H2540373   1.873   5.535   0.433 -2.1416 -1.4580 -0.6813
  155MOL    H2640374   1.657   5.573   0.594 -1.4619  1.1214 -0.2329
  155MOL    H2740375   1.674   5.735   0.660  0.2083 -0.0481  1.2615
  155MOL    C2840376   1.835   5.595   0.696 -0.1704  0.2759  0.0465
  155MOL    C2940377   1.950   5.690   0.723  0.5345 -0.3770 -0.0819
  155MOL    C3040378   1.992   5.735   0.839 -0.1717  0.3693  0.0784
  155MOL    C3140379   2.110   5.823   0.863 -0.1970  0.1964 -0.1593
  155MOL    C3240380   1.914   5.718   0.973 -0.1234 -0.6200 -0.0721
  155MOL    H3340381   1.886   5.523   0.632  2.1979  1.5880  0.3957
  155MOL    H3440382   1.788   5.541   0.778  1.0492 -1.3570 -0.3024
  155MOL    H3540383   2.015   5.728   0.644  1.3766 -1.4032  0.1054
  155MOL    H3640384   2.186   5.780   0.797  0.6936 -2.2633  2.3448
  155MOL    H3740385   2.145   5.802   0.964 -3.8904 -1.7139  0.8270
  155MOL    H3840386   2.101   5.930   0.851 -2.4011 -0.0652 -0.9950
  155MOL    H3940387   1.989   5.666   1.033  0.4713  0.0050 -0.2670
  155MOL    H4040388   1.835   5.646   0.952  0.6560 -0.6139 -3.2732
  155MOL    C4140389   1.835   5.838   1.037 -0.1666 -0.7794  0.3009
  155MOL    C4240390   1.767   5.795   1.164  0.2297  0.3066 -0.4865
  155MOL    C4340391   1.680   5.866   1.237 -0.5529  0.2371  0.3908
  155MOL    C4440392   1.610   5.817   1.365 -1.0324 -0.1061 -0.1979
  155MOL    C4540393   1.628   6.000   1.189  0.6623 -0.0803 -0.1887
  155MOL    H4640394   1.752   5.852   0.968 -1.1266  2.9160  2.1006
  155MOL    H4740395   1.901   5.924   1.042  2.0144 -2.4056  0.4924
  155MOL    H4840396   1.776   5.691   1.190 -0.9174  0.7315  1.7199
  155MOL    H4940397   1.504   5.836   1.353 -1.0389  1.0744  1.5589
  155MOL    H5040398   1.657   5.859   1.454 -1.0038  0.7908 -0.6337
  155MOL    H5140399   1.625   5.709   1.367  1.0457  0.1422 -0.9824
  155MOL    H5240400   1.685   6.062   1.120  0.6290 -0.7764 -0.8468
  155MOL    H5340401   1.603   6.063   1.275 -1.0107 -0.3320 -0.4796
  155MOL    C5440402   1.500   5.984   1.107 -0.3002  0.3274  0.8019
  155MOL    C5540403   1.472   6.112   1.027 -0.5650 -0.1885 -0.2433
  155MOL    C5640404   1.460   6.118   0.893  0.2143  0.1446 -0.2458
  155MOL    C5740405   1.422   6.253   0.823  0.0811  0.0980  0.3088
  155MOL    C5840406   1.476   5.997   0.800  0.2562 -0.1904  0.4456
  155MOL    H5940407   1.417   5.961   1.175 -1.4631  0.3348 -0.5897
  155MOL    H6040408   1.515   5.897   1.043  1.6216  2.8238 -2.2661
  155MOL    H6140409   1.448   6.197   1.090 -0.3286 -1.0186  0.9822
  155MOL    H6240410   1.368   6.230   0.732  2.8394 -1.6356 -0.9549
  155MOL    H6340411   1.492   6.334   0.803  0.0122  0.2189  0.5530
  155MOL    H6440412   1.343   6.301   0.880  0.8353  3.6413 -1.5158
  155MOL    H6540413   1.566   5.944   0.829 -0.3844 -0.1418  2.6130
  155MOL    H6640414   1.486   6.023   0.694 -0.0695 -0.6205  0.3064
  155MOL    C6740415   1.352   5.905   0.809  0.0634  0.3555  0.8534
  155MOL    C6840416   1.364   5.777   0.720  0.9237 -0.6339 -0.1396
  155MOL    C6940417   1.267   5.686   0.696 -0.5067 -0.3232  0.0009
  155MOL    C7040418   1.284   5.560   0.617 -0.0921  0.0981 -0.0240
  155MOL    C7140419   1.127   5.719   0.733  0.1680  0.0755 -0.6988
  155MOL    H7240420   1.265   5.964   0.778 -0.0026 -0.5820 -0.8094
  155MOL    H7340421   1.337   5.871   0.911  0.4811  0.8917  1.0949
  155MOL    H7440422   1.460   5.746   0.682  0.2742 -0.6246 -1.7998
  155MOL    H7540423   1.198   5.542   0.553  0.2665  4.6190 -1.9588
  155MOL    H7640424   1.297   5.486   0.695  0.9508  2.2012  1.8551
  155MOL    H7740425   1.370   5.552   0.550  0.7463 -1.2933  1.1849
  155MOL    H7840426   1.107   5.811   0.788  2.4212  1.5522 -2.2503
  155MOL    H7940427   1.083   5.630   0.779 -0.6289 -0.2924 -2.1363
  155MOL    C8040428   1.031   5.740   0.609 -0.7016 -0.6184  1.1959
  155MOL    C8140429   0.899   5.806   0.646  0.1992 -0.5596 -0.0504
  155MOL    C8240430   0.784   5.743   0.677 -0.6465 -0.2508  0.6548
  155MOL    C8340431   0.757   5.599   0.681 -0.0151  0.2431 -0.5295
  155MOL    C8440432   0.664   5.826   0.714  1.1507  0.0875 -0.0438
  155MOL    H8540433   1.023   5.646   0.554 -1.5072 -0.1107  0.4270
  155MOL    H8640434   1.080   5.808   0.540 -1.5058  0.7261  1.9389
  155MOL    H8740435   0.894   5.914   0.637 -0.2558 -0.5868 -0.1386
  155MOL    H8840436   0.816   5.548   0.605  0.8234 -0.5512  0.6290
  155MOL    H8940437   0.657   5.558   0.663 -0.8566  0.9677  2.2363
  155MOL    H9040438   0.788   5.554   0.775  0.2169  2.9555  0.7300
  155MOL    H9140439   0.684   5.930   0.687 -0.6060  1.3860  3.3006
  155MOL    H9240440   0.632   5.819   0.818  1.9714 -0.5896  0.1649
  155MOL    C9340441   0.544   5.796   0.623 -0.2491  0.0409 -0.3157
  155MOL    C9440442   0.423   5.871   0.661 -0.0336  0.0182  0.0093
  155MOL    C9540443   0.293   5.842   0.638  0.2616 -0.4428 -0.0668
  155MOL    C9640444   0.190   5.938   0.692 -0.0584 -0.1921  0.2397
  155MOL    C9740445   0.242   5.728   0.550 -1.1183 -0.5377  0.0636
  155MOL    H9840446   0.512   5.693   0.635  0.5655  0.1138  2.7225
  155MOL    H9940447   0.571   5.821   0.520 -0.5782 -1.0866 -0.6860
  155MOL   H10040448   0.445   5.966   0.707  1.8979 -0.7140  0.6509
  155MOL   H10140449   0.227   5.994   0.778  1.2995  2.9751 -2.2379
  155MOL   H10240450   0.169   6.013   0.616  0.2043 -1.7852 -1.4401
  155MOL   H10340451   0.093   5.897   0.719 -1.0691  1.9985  0.1022
  155MOL   H10440452   0.165   5.674   0.606 -1.9894 -1.0667 -1.6103
  155MOL   H10540453   0.327   5.664   0.531 -1.6180 -0.8432 -1.2099
  155MOL   C10640454   0.184   5.772   0.413 -0.2174 -0.2744  0.0746
  155MOL   C10740455   0.290   5.858   0.332 -0.2756 -0.1642  0.0627
  155MOL   C10840456   0.309   5.842   0.196 -0.0629 -0.0977 -0.7812
  155MOL   C10940457   0.224   5.734   0.110 -0.6858  0.0721  0.3530
  155MOL   C11040458   0.398   5.939   0.119  0.2344  0.0014 -0.0090
  155MOL   H11140459   0.085   5.813   0.434 -0.8393 -0.8493 -1.6438
  155MOL   H11240460   0.165   5.677   0.363 -0.2954  0.1319 -0.6829
  155MOL   H11340461   0.339   5.930   0.395 -1.3292  0.5214  0.1176
  155MOL   H11440462   0.156   5.666   0.161 -1.2645 -0.5254 -1.1965
  155MOL   H11540463   0.163   5.790   0.039  0.0468 -0.6503 -0.8541
  155MOL   H11640464   0.294   5.682   0.045 -0.2340  3.9197 -2.3903
  155MOL   H11740465   0.398   6.035   0.171  1.6985  2.1816 -3.8575
  155MOL   H11840466   0.351   5.957   0.023 -2.5387 -1.2028  1.0686
  155MOL   C11940467   0.544   5.903   0.110 -0.3469 -0.6855 -0.1295
  155MOL   C12040468   0.634   6.003   0.035 -0.0732 -0.2810  0.3312
  155MOL   C12140469   0.762   6.039   0.058 -0.2177  0.0443 -0.2278
  155MOL   C12240470   0.835   6.139   7.852 -0.6753  0.1579 -0.4702
  155MOL   C12340471   0.847   5.989   0.173 -0.4448 -0.2525  0.3269
  155MOL   H12440472   0.535   5.809   0.055 -2.0004 -0.5249 -0.1663
  155MOL   H12540473   0.567   5.892   0.216 -1.9521  2.7212  0.6419
  155MOL   H12640474   0.585   6.041   7.825 -0.2783 -3.0802 -0.7784
  155MOL   H12740475   0.773   6.141   7.762 -2.3121  0.3876  0.6421
  155MOL   H12840476   0.937   6.107   7.833 -1.0478 -0.7544 -1.0004
  155MOL   H12940477   0.836   6.243   0.003 -2.2341 -0.2013  0.8991
  155MOL   H13040478   0.793   5.925   0.243 -1.5834  0.5716  0.2078
  155MOL   H13140479   0.908   6.058   0.231 -1.3964  0.5889  0.3137
  155MOL   C13240480   0.953   5.888   0.118 -0.2275  0.4219  0.4829
  155MOL   C13340481   0.874   5.772   0.054 -0.8686  0.1378 -0.3804
  155MOL   C13440482   0.862   5.649   0.101 -0.5573 -0.0414 -0.1486
  155MOL   C13540483   0.774   5.548   0.022 -0.1884 -0.3411  0.3121
  155MOL   C13640484   0.935   5.603   0.229 -0.3116 -0.1837 -0.1727
  155MOL   H13740485   1.015   5.850   0.199  0.0397  0.4350  0.2888
  155MOL   H13840486   1.018   5.926   0.038  0.2842 -2.2310 -0.4322
  155MOL   H13940487   0.828   5.799   7.840 -1.6977 -0.1630 -0.0550
  155MOL   H14040488   0.685   5.528   0.083 -2.3700  2.1362 -1.9577
  155MOL   H14140489   0.814   5.447   0.009 -1.0244 -0.8975  1.8219
  155MOL   H14240490   0.739   5.587   7.806  0.9792  1.1230  0.4683
  155MOL   H14340491   0.855   5.585   0.301  0.3502  1.1402  0.9071
  155MOL   H14440492   0.985   5.678   0.291  0.2652 -0.8423  0.1689
  155MOL   C14540493   1.025   5.476   0.215  0.0174  0.0222  0.1006
  155MOL   C14640494   1.133   5.507   0.112  0.2490  0.8133 -1.0205
  155MOL   C14740495   1.180   5.422   0.019 -0.7404  0.2488  0.0988
  155MOL   C14840496   1.292   5.470   7.802  0.3278  0.4899  0.2440
  155MOL   C14940497   1.125   5.278   7.866  0.0704  0.0071 -0.3544
  155MOL   H15040498   0.969   5.386   0.192 -0.9544  0.6000  0.1901
  155MOL   H15140499   1.071   5.451   0.311  1.0059  1.1363 -0.0668
  155MOL   H15240500   1.176   5.605   0.123  1.6365  0.3216 -1.8894
  155MOL   H15340501   1.314   5.576   7.814  0.2042  0.7788 -1.8684
  155MOL   H15440502   1.269   5.444   7.698 -1.3857 -1.0236  0.9791
  155MOL   H15540503   1.382   5.413   7.825 -1.2493 -2.6451 -1.0703
  155MOL   H15640504   1.066   5.258   0.077  0.0731  4.7770  0.8592
  155MOL   H15740505   1.208   5.208   7.864  1.5973  1.7948 -1.4145
  155MOL   C15840506   1.036   5.270   7.746  0.5760 -0.2846  0.0133
  155MOL   C15940507   0.976   5.123   7.735 -0.2413  0.4310 -0.0919
  155MOL   C16040508   0.846   5.080   7.718 -0.1451 -0.0213 -1.3269
  155MOL   C16140509   0.722   5.162   7.695 -0.5843 -0.3975 -0.3002
  155MOL   C16240510   0.817   4.929   7.717  0.1051  0.3718  0.0492
  155MOL   H16340511   1.093   5.301   7.659 -0.3341 -1.3066 -0.9643
  155MOL   H16440512   0.957   5.345   7.756 -1.5308 -2.5593  1.0098
  155MOL   H16540513   1.049   5.046   7.752 -0.4354  0.6565  1.8542
  155MOL   H16640514   0.638   5.094   7.706 -0.7863 -0.1913 -0.5528
  155MOL   H16740515   0.730   5.198   7.592  0.2036 -1.1938 -0.5183
  155MOL   H16840516   0.715   5.250   7.760 -0.3965 -1.8303  1.7057
  155MOL   H16940517   0.733   4.897   7.779  0.1743 -1.2945 -0.6803
  155MOL   H17040518   0.903   4.866   7.739 -0.7223 -1.1116 -0.8540
  155MOL   C17140519   0.780   4.888   7.569 -0.3089  0.2149  0.1537
  155MOL   C17240520   0.906   4.861   7.488  0.7565  0.3446 -0.0937
  155MOL   C17340521   0.985   4.953   7.422 -0.6727  0.4089 -0.3307
  155MOL   C17440522   0.951   5.091   7.399 -0.1079 -0.2966 -0.0507
  155MOL   C17540523   1.114   4.903   7.346  1.0054 -0.4599  0.2450
  155MOL   H17640524   0.730   4.963   7.509  0.0902  0.6919  0.4144
  155MOL   H17740525   0.726   4.793   7.565 -0.1496  0.0314  1.9721
  155MOL   H17840526   0.943   4.762   7.507  1.3742  0.7139  0.6295
  155MOL   H17940527   0.937   5.104   7.291  0.9690  0.7871 -0.0713
  155MOL   H18040528   1.021   5.166   7.436  0.1951 -0.5234 -0.1553
  155MOL   H18140529   0.857   5.127   7.440  0.5520 -0.6271  1.7647
  155MOL   H18240530   1.127   4.934   7.243 -0.7916 -0.9386 -0.1345
  155MOL   H18340531   1.103   4.794   7.346 -1.5597 -0.2244 -0.5120
  155MOL   C18440532   1.232   4.964   7.427 -0.3217 -0.4825  0.6201
  155MOL   C18540533   1.363   4.884   7.390 -0.2818  0.1694  0.1675
  155MOL   C18640534   1.480   4.928   7.342  0.4235  1.0525  0.9783
  155MOL   C18740535   1.594   4.845   7.317 -0.7135  0.6787 -0.3960
  155MOL   C18840536   1.499   5.062   7.279 -0.7511 -0.3161  0.0000
  155MOL   H18940537   1.223   4.940   7.533  1.3657  0.6318  1.0133
  155MOL   H19040538   1.235   5.071   7.409 -1.5472 -0.0773  2.6010
  155MOL   H19140539   1.357   4.780   7.417 -1.9313 -0.2796 -1.8490
  155MOL   H19240540   1.643   4.850   7.220 -0.3503 -1.3801 -0.3597
  155MOL   H19340541   1.570   4.743   7.349  2.0950  0.7434  2.2639
  155MOL   H19440542   1.676   4.875   7.383  0.0485 -2.6937  0.2947
  155MOL   H19540543   1.394   5.088   7.265 -1.0964 -1.8883 -0.4357
  155MOL   H19640544   1.558   5.038   7.190 -0.1987  0.3110  0.1932
  155MOL   C19740545   1.560   5.168   7.371 -0.0805  0.1867 -0.3662
  155MOL   C19840546   1.584   5.304   7.313 -0.1540  0.1435  0.4058
  155MOL   C19940547   1.497   5.407   7.315  0.1024 -0.1920 -0.4196
  155MOL   C20040548   1.537   5.529   7.242 -0.0102 -0.6148 -0.0667
  155MOL   C20140549   1.369   5.403   7.383 -0.7451 -0.1724  0.5666
  155MOL   H20240550   1.651   5.133   7.420 -0.4497  0.8857  0.8432
  155MOL   H20340551   1.494   5.176   7.457 -0.4798  0.5664 -0.7042
  155MOL   H20440552   1.683   5.307   7.270 -0.1301 -1.5743  0.3042
  155MOL   H20540553   1.471   5.555   7.159 -0.5257  0.2085  0.5969
  155MOL   H20640554   1.635   5.516   7.197 -0.2597 -1.7358 -0.3176
  155MOL   H20740555   1.530   5.619   7.302 -1.8720 -0.4923 -0.4365
  155MOL   H20840556   1.362   5.489   7.449 -0.0495 -0.3746  0.9173
  155MOL   H20940557   1.346   5.321   7.451 -1.1785  1.3521  2.2838
  155MOL   C21040558   1.247   5.424   7.282  0.3632  0.4808 -0.6368
  155MOL   C21140559   1.115   5.426   7.354 -0.6524 -0.1822 -0.0819
  155MOL   C21240560   0.999   5.475   7.304 -0.0062  0.1615 -0.3539
  155MOL   C21340561   0.867   5.463   7.376 -0.9674 -0.6403  0.1432
  155MOL   C21440562   0.984   5.527   7.158 -0.0576  0.4948 -0.3188
  155MOL   H21540563   1.246   5.335   7.219 -0.9461  0.1178 -0.1049
  155MOL   H21640564   1.267   5.514   7.224 -1.1170  0.4912 -1.1457
  155MOL   H21740565   1.112   5.387   7.454 -0.2092 -0.3832 -0.1444
  155MOL   H21840566   0.892   5.439   7.480 -1.1073 -2.5544 -0.2491
  155MOL   H21940567   0.803   5.391   7.326 -0.8262  0.6252 -1.9259
  155MOL   H22040568   0.824   5.562   7.367  0.0805  0.1160  2.8221
  155MOL   H22140569   0.887   5.505   7.113 -0.1175  3.0680 -1.5063
  155MOL   H22240570   1.053   5.461   7.105 -0.2381  1.6888 -2.0805
  155MOL   C22340571   1.013   5.677   7.151 -0.1190 -0.5533  0.1800
  155MOL   C22440572   1.021   5.719   7.007 -0.6943  0.6488 -0.1592
  155MOL   C22540573   0.937   5.797   6.936  0.0958  0.0467  0.2449
  155MOL   C22640574   0.949   5.828   6.791  0.8405 -0.0903  0.2385
  155MOL   C22740575   0.811   5.862   7.002 -0.9199  0.7654  0.5044
  155MOL   H22840576   1.107   5.709   7.195  0.5398 -1.5689 -0.4777
  155MOL   H22940577   0.939   5.740   7.202  1.7556  0.2641  1.9560
  155MOL   H23040578   1.095   5.677   6.941 -1.3330 -1.2074  0.2735
  155MOL   H23140579   0.915   5.929   6.768 -1.3048 -0.9354 -0.5249
  155MOL   H23240580   0.885   5.761   6.732  1.2927  1.4129 -2.0424
  155MOL   H23340581   1.055   5.815   6.772  1.4662 -0.7946  3.9743
  155MOL   H23440582   0.793   5.955   6.947  0.0384  1.2094  0.9378
  155MOL   H23540583   0.833   5.897   7.103 -0.0382 -0.9001  0.9002
  155MOL   C23640584   0.698   5.774   6.990  0.2121  0.4824 -0.2581
  155MOL   C23740585   0.565   5.844   7.028  0.2408 -0.0231  0.2998
  155MOL   C23840586   0.454   5.787   7.075  0.4433  0.0253  0.3680
  155MOL   C23940587   0.329   5.871   7.079  0.2142 -0.0273 -0.0012
  155MOL   C24040588   0.430   5.643   7.095 -0.1171  0.8537 -0.0337
  155MOL   H24140589   0.711   5.679   7.042 -0.8335  0.0160 -0.8264
  155MOL   H24240590   0.694   5.751   6.883 -2.8888  1.2918 -0.3547
  155MOL   H24340591   0.579   5.950   7.012  0.4965 -0.1902 -0.6773
  155MOL   H24440592   0.281   5.853   6.983  1.3375  3.1769 -1.2518
  155MOL   H24540593   0.346   5.976   7.105  0.8656 -0.2493  0.4862
  155MOL   H24640594   0.273   5.825   7.160  0.1821  0.5122  0.2839
  155MOL   H24740595   0.405   5.635   7.201  1.0547  1.0048  0.2602
  155MOL   H24840596   0.521   5.583   7.089  0.1147  1.3572 -1.9929
  155MOL   C24940597   0.328   5.586   6.999 -0.3888  0.2238  0.0922
  155MOL   C25040598   0.354   5.438   6.984  0.1634  0.1153  0.3690
  155MOL   C25140599   0.253   5.351   6.955 -0.2073  0.5484 -0.0852
  155MOL   C25240600   0.284   5.204   6.939  0.1035 -0.3625 -0.0600
  155MOL   C25340601   0.114   5.388   6.931  0.6491  0.0120 -0.6613
  155MOL   H25440602   0.337   5.632   6.901 -4.5852 -0.1951 -0.6122
  155MOL   H25540603   0.235   5.615   7.048  0.6520  0.7756  1.7883
  155MOL   H25640604   0.457   5.408   7.001 -0.3107 -1.7127  0.1705
  155MOL   H25740605   0.339   5.172   6.851  1.2234  0.3155  0.3900
  155MOL   H25840606   0.192   5.146   6.931  0.7523 -1.9844  3.1293
  155MOL   H25940607   0.338   5.161   7.023 -0.0085 -1.2753 -0.4524
  155MOL   H26040608   0.041   5.337   6.995  2.0145  0.1300  1.0440
  155MOL   H26140609   0.089   5.365   6.828  0.9483  0.3026 -0.8000
  155MOL   H26240610   0.105   5.495   6.950 -1.1371 -0.2198 -0.1007
  156MOL     C140611   3.406   1.748   7.849  0.1263 -0.5055 -0.2976
  156MOL     C240612   3.464   1.875   7.792  0.0256 -0.1524  0.3153
  156MOL     C340613   3.583   1.941   7.819  0.2538 -0.5072 -0.2894
  156MOL     C440614   3.627   2.055   7.735 -0.2358  0.0928  0.4302
  156MOL     C540615   3.686   1.902   0.050 -0.2311 -0.1435  0.2344
  156MOL     H640616   3.369   1.785   0.065 -1.3143  0.6285 -1.2845
  156MOL     H740617   3.342   1.707   7.771 -0.2053 -1.5686  0.5284
  156MOL     H840618   3.404   1.922   7.716  0.4136  0.9907  0.6928
  156MOL     H940619   3.710   2.099   7.791 -0.3299  1.3160 -0.3891
  156MOL    H1040620   3.538   2.118   7.739  0.1985  0.6780  0.9652
  156MOL    H1140621   3.667   2.037   7.635 -0.7154  1.2214  0.0283
  156MOL    H1240622   3.653   1.839   0.132 -0.6236 -1.0898 -0.6388
  156MOL    H1340623   3.721   1.994   0.097  1.7575 -1.2400  0.9399
  156MOL    H1440624   3.489   1.682   7.876  0.0975 -1.1245 -1.6574
  156MOL    C1540625   3.820   1.853   7.878  0.1680  0.0019 -0.2049
  156MOL    C1640626   3.810   1.704   7.845 -0.0471  0.2651 -0.3795
  156MOL    C1740627   3.911   1.616   7.842 -0.0252  0.2258  0.9099
  156MOL    C1840628   3.883   1.469   7.822 -0.0316 -0.6666 -0.6063
  156MOL    C1940629   4.061   1.649   7.876  0.6316 -0.9597 -0.0580
  156MOL    H2040630   3.903   1.879   0.065  0.0335  1.3526 -0.5605
  156MOL    H2140631   3.863   1.901   7.790  1.3091  0.4083  0.5622
  156MOL    H2240632   3.707   1.674   7.833 -0.3114 -0.0829  2.3715
  156MOL    H2340633   3.885   1.410   0.035 -1.3482 -0.0739 -0.1791
  156MOL    H2440634   3.954   1.438   7.745  1.6585 -0.7153  0.9367
  156MOL    H2540635   3.782   1.441   7.792 -0.7041  0.8456  0.2155
  156MOL    H2640636   4.116   1.558   0.022  0.2230 -1.3894 -0.7064
  156MOL    H2740637   4.063   1.713   0.085  2.7810  2.3251 -2.3703
  156MOL    C2840638   4.133   1.723   7.763 -0.1808  0.6941 -0.0574
  156MOL    C2940639   4.276   1.759   7.809  0.4646 -0.0141 -0.0923
  156MOL    C3040640   4.389   1.719   7.748 -0.3774 -0.0046  0.5540
  156MOL    C3140641   4.524   1.738   7.807 -0.0830  0.3264  0.8191
  156MOL    C3240642   4.383   1.661   7.608  0.2057  0.3038  0.5266
  156MOL    H3340643   4.083   1.818   7.744  0.3382  0.7213 -1.4163
  156MOL    H3440644   4.131   1.667   7.669  0.9898  0.2747  0.1503
  156MOL    H3540645   4.291   1.802   0.028  0.5930  2.2620 -1.0747
  156MOL    H3640646   4.589   1.798   7.744 -1.3899  1.6531  0.6893
  156MOL    H3740647   4.556   1.636   7.829 -1.9003 -0.4011  0.2102
  156MOL    H3840648   4.514   1.792   0.022 -1.6987  0.2576  0.7006
  156MOL    H3940649   4.479   1.686   7.562  0.4834 -0.0338  0.9148
  156MOL    H4040650   4.309   1.713   7.547  1.9001 -0.7007 -2.5260
  156MOL    C4140651   4.378   1.503   7.612  0.6478  0.2340  0.5491
  156MOL    C4240652   4.346   1.446   7.477  0.4546 -0.0891  0.2583
  156MOL    C4340653   4.436   1.393   7.391  0.0636 -0.3566 -0.5021
  156MOL    C4440654   4.382   1.319   7.262  0.1354 -0.1226 -0.2503
  156MOL    C4540655   4.584   1.383   7.411  0.2192 -0.6595  0.1303
  156MOL    H4640656   4.304   1.478   7.687  0.2144  2.4428  0.8980
  156MOL    H4740657   4.466   1.462   7.661 -0.4021 -1.0997  1.3534
  156MOL    H4840658   4.239   1.453   7.464  0.7438  4.8177 -0.3328
  156MOL    H4940659   4.347   1.218   7.279  0.6050 -0.2757 -0.1664
  156MOL    H5040660   4.451   1.332   7.179  0.9352  0.8295  0.5407
  156MOL    H5140661   4.291   1.377   7.248 -1.1201 -1.7318  1.0781
  156MOL    H5240662   4.617   1.448   7.492 -0.9653 -0.4124  0.4160
  156MOL    H5340663   4.626   1.417   7.317 -0.8350 -1.6380 -0.7006
  156MOL    C5440664   4.623   1.242   7.447 -0.1472  0.0125 -0.3416
  156MOL    C5540665   4.763   1.214   7.405 -1.1151 -0.2491 -0.4350
  156MOL    C5640666   4.873   1.202   7.485  0.0102  0.2034  0.3537
  156MOL    C5740667   5.007   1.166   7.436 -0.0303  0.1124  0.1586
  156MOL    C5840668   4.868   1.218   7.636  0.4920 -0.3213  0.2853
  156MOL    H5940669   4.566   1.167   7.392  0.4107  0.3020 -1.3288
  156MOL    H6040670   4.599   1.218   7.550 -0.3514 -1.1566 -0.6506
  156MOL    H6140671   4.786   1.196   7.301 -0.5700  0.6732 -0.4751
  156MOL    H6240672   5.091   1.195   7.499  1.7544 -0.8967 -1.7041
  156MOL    H6340673   5.029   1.215   7.341  1.3784 -0.5405  0.1284
  156MOL    H6440674   5.008   1.057   7.422 -1.5911 -0.1683  2.1012
  156MOL    H6540675   4.942   1.153   7.683  2.1049  0.8222 -0.5831
  156MOL    H6640676   4.769   1.191   7.672  0.8253  0.3638  1.7352
  156MOL    C6740677   4.906   1.362   7.682  0.6101  0.2503  0.8961
  156MOL    C6840678   4.908   1.369   7.828 -0.1497 -0.0188 -0.5347
  156MOL    C6940679   5.014   1.345   0.031 -0.3985 -0.2925 -0.3435
  156MOL    C7040680   4.999   1.356   0.189  1.1245  0.6093  0.0755
  156MOL    C7140681   5.149   1.285   7.861  0.0745  0.0197  0.5981
  156MOL    H7240682   4.833   1.437   7.649 -1.5413 -0.9884  2.6941
  156MOL    H7340683   4.999   1.394   7.635 -1.5599  2.9075 -1.8483
  156MOL    H7440684   4.816   1.403   7.873 -1.2063 -0.5333 -2.2742
  156MOL    H7540685   5.090   1.399   0.230 -0.1273  1.6158  1.8708
  156MOL    H7640686   4.976   1.261   0.237 -2.9319  1.8577  0.8335
  156MOL    H7740687   4.913   1.419   0.213  1.1255  0.9475 -0.8128
  156MOL    H7840688   5.148   1.224   7.771  0.7116  1.1528 -0.1842
  156MOL    H7940689   5.183   1.207   0.050 -0.3161  0.4541  1.3050
  156MOL    C8040690   5.254   1.391   7.840 -0.4167 -0.0204 -0.1342
  156MOL    C8140691   5.373   1.359   7.752 -0.1609 -0.5233  0.8310
  156MOL    C8240692   5.457   1.432   7.680 -0.0910 -0.5780 -0.5980
  156MOL    C8340693   5.446   1.584   7.666  0.2668  0.5436 -0.8376
  156MOL    C8440694   5.579   1.371   7.607  0.7169  0.3577  0.1940
  156MOL    H8540695   5.291   1.412   0.061 -2.6860 -1.3201  1.0022
  156MOL    H8640696   5.220   1.491   7.811 -0.8383  0.0180  0.5048
  156MOL    H8740697   5.394   1.254   7.767  1.0364 -0.2099  1.4238
  156MOL    H8840698   5.413   1.614   7.567 -1.1069  2.2326  0.0983
  156MOL    H8940699   5.545   1.629   7.676  0.4847 -0.3691  1.5924
  156MOL    H9040700   5.378   1.622   7.743 -0.3963  0.7469 -1.5171
  156MOL    H9140701   5.592   1.271   7.649 -2.2977 -0.6746 -1.2129
  156MOL    H9240702   5.659   1.441   7.630  3.6950 -1.7112 -3.0880
  156MOL    C9340703   5.566   1.370   7.457 -0.1393  0.0647  0.0995
  156MOL    C9440704   5.463   1.270   7.415  0.3053  0.0408  0.1411
  156MOL    C9540705   5.434   1.216   7.295 -0.4261  0.4523 -0.3226
  156MOL    C9640706   5.329   1.114   7.268  0.1378 -0.1710 -0.8462
  156MOL    C9740707   5.513   1.269   7.172  0.0047  0.3316 -0.0942
  156MOL    H9840708   5.664   1.333   7.424 -0.2249  1.2023 -1.5225
  156MOL    H9940709   5.537   1.469   7.421  0.4997 -0.0930 -0.8882
  156MOL   H10040710   5.399   1.239   7.496 -0.5888 -1.7189 -1.2012
  156MOL   H10140711   5.254   1.148   7.196  0.6221  2.7986  0.0207
  156MOL   H10240712   5.384   1.030   7.225 -0.9659 -1.3934  0.1062
  156MOL   H10340713   5.272   1.082   7.355 -2.3351 -1.4726 -2.8852
  156MOL   H10440714   5.569   1.361   7.194  1.1618  0.1190 -2.0593
  156MOL   H10540715   5.444   1.301   7.095  0.9336 -0.0379 -1.0819
  156MOL   C10640716   5.628   1.182   7.119  0.0651  0.7864 -0.3841
  156MOL   C10740717   5.697   1.236   6.996  0.3670  0.3318  0.2783
  156MOL   C10840718   5.701   1.190   6.866 -0.5827  0.5376 -0.2414
  156MOL   C10940719   5.633   1.068   6.807 -0.3457 -0.2255 -0.3693
  156MOL   C11040720   5.782   1.265   6.763  0.4505  0.3340 -0.5437
  156MOL   H11140721   5.597   1.082   7.088 -1.4779  0.9926  0.4719
  156MOL   H11240722   5.706   1.165   7.194 -1.1052  0.5746  0.8009
  156MOL   H11340723   5.745   1.330   7.020  0.1789  0.0596  1.7742
  156MOL   H11440724   5.713   1.006   6.767  0.9901  0.4169  1.2477
  156MOL   H11540725   5.563   1.023   6.878 -0.4402 -1.2763 -1.1232
  156MOL   H11640726   5.563   1.087   6.726 -1.4464 -0.2837  0.5475
  156MOL   H11740727   5.825   1.187   6.702 -0.1930 -1.1838  0.9011
  156MOL   H11840728   5.858   1.320   6.818 -0.3882  0.4933  0.4850
  156MOL   C11940729   5.701   1.364   6.681  0.0076 -0.2342 -0.2287
  156MOL   C12040730   5.777   1.411   6.561 -0.3851 -0.0718  0.3881
  156MOL   C12140731   5.725   1.439   6.437  0.1426 -0.0407  0.0793
  156MOL   C12240732   5.821   1.475   6.328  0.1578 -0.0023 -0.1170
  156MOL   C12340733   5.580   1.433   6.397  0.9658 -0.0972  0.5099
  156MOL   H12440734   5.674   1.454   6.737 -0.8405 -0.2594 -0.5861
  156MOL   H12540735   5.619   1.305   6.639  0.6347 -1.1136 -0.2310
  156MOL   H12640736   5.884   1.408   6.568 -0.2504 -0.6436 -1.5598
  156MOL   H12740737   5.778   1.567   6.288 -1.0776 -0.3467  0.4040
  156MOL   H12840738   5.842   1.409   6.244 -0.3880  2.0989 -1.9722
  156MOL   H12940739   5.920   1.513   6.354 -0.4034  0.6926  1.0800
  156MOL   H13040740   5.567   1.519   6.332 -0.4459 -1.0319 -0.4908
  156MOL   H13140741   5.509   1.451   6.478 -0.1148 -0.3928 -0.3530
  156MOL   C13240742   5.552   1.296   6.328 -0.4334 -0.1164  0.3303
  156MOL   C13340743   5.410   1.284   6.280 -0.4277  0.2785  0.8629
  156MOL   C13440744   5.331   1.177   6.284  0.3692  0.6511 -0.7350
  156MOL   C13540745   5.184   1.196   6.242 -0.5469  0.3660  0.4231
  156MOL   C13640746   5.372   1.039   6.340  0.2715  0.4903  0.0890
  156MOL   H13740747   5.581   1.218   6.398  1.0408  0.1130 -0.0141
  156MOL   H13840748   5.627   1.275   6.252  1.4470 -0.7163  2.3298
  156MOL   H13940749   5.371   1.375   6.238  0.3625  0.8529  1.3551
  156MOL   H14040750   5.107   1.165   6.313  0.2568 -0.1931  1.0525
  156MOL   H14140751   5.164   1.142   6.149 -0.4772 -1.0575  1.2245
  156MOL   H14240752   5.160   1.297   6.209  0.1554  0.3047 -0.2738
  156MOL   H14340753   5.468   1.021   6.290  0.4227  1.1422  0.1450
  156MOL   H14440754   5.302   0.962   6.307 -1.8689  1.2923  2.6527
  156MOL   C14540755   5.391   1.016   6.490  0.4439  0.0275  0.9235
  156MOL   C14640756   5.501   0.915   6.523 -0.0393 -0.2417  0.3902
  156MOL   C14740757   5.474   0.796   6.575 -0.1126  0.6919  0.3985
  156MOL   C14840758   5.587   0.717   6.630 -0.0984  0.0302  0.5106
  156MOL   C14940759   5.335   0.731   6.568 -0.2267  0.4800  0.3942
  156MOL   H15040760   5.296   0.984   6.532  0.8639 -2.3927  0.0971
  156MOL   H15140761   5.422   1.111   6.534  2.3914 -0.1518  0.0054
  156MOL   H15240762   5.603   0.951   6.521  0.0081 -0.3785 -1.9933
  156MOL   H15340763   5.614   0.637   6.561 -1.7948  0.3149 -0.5087
  156MOL   H15440764   5.548   0.669   6.720 -0.4252 -0.0982  0.2994
  156MOL   H15540765   5.679   0.765   6.662  0.9914 -0.7561 -1.3872
  156MOL   H15640766   5.347   0.631   6.525  1.1473  0.2167  1.3482
  156MOL   H15740767   5.262   0.782   6.506  1.6270 -0.2126 -2.4854
  156MOL   C15840768   5.273   0.720   6.709 -0.2079  0.2806  0.6205
  156MOL   C15940769   5.272   0.847   6.790  0.0731 -0.0896 -0.2048
  156MOL   C16040770   5.169   0.863   6.880 -0.9194 -0.5950  0.3992
  156MOL   C16140771   5.045   0.779   6.872  0.3150  0.2304 -0.1426
  156MOL   C16240772   5.154   0.993   6.957  0.0163  0.5971 -0.4615
  156MOL   H16340773   5.322   0.643   6.768  0.7652  0.9698  0.7211
  156MOL   H16440774   5.173   0.681   6.687  0.6804 -1.2528 -0.8724
  156MOL   H16540775   5.348   0.924   6.785 -0.3088  0.1804 -1.9970
  156MOL   H16640776   4.994   0.785   6.776  2.0832 -1.8452 -1.2564
  156MOL   H16740777   4.963   0.803   6.940  0.5606 -1.4543  0.7508
  156MOL   H16840778   5.067   0.677   6.901  0.1810  0.1833 -0.2068
  156MOL   H16940779   5.248   1.047   6.951  1.1536 -1.0380  1.8535
  156MOL   H17040780   5.157   0.948   7.057 -1.5270  2.1493  0.3224
  156MOL   C17140781   5.028   1.073   6.924  0.3496  1.0626  0.2728
  156MOL   C17240782   5.025   1.113   6.781 -0.2232  0.0033  0.2867
  156MOL   C17340783   5.084   1.224   6.723  0.4175  0.1466 -0.0026
  156MOL   C17440784   5.165   1.333   6.802 -0.2451 -0.0751  0.5201
  156MOL   C17540785   5.071   1.260   6.576 -0.2145  0.1873  0.2620
  156MOL   H17640786   5.017   1.167   6.978 -1.5401  1.6836 -1.1639
  156MOL   H17740787   4.938   1.015   6.944  0.5893  0.3724 -0.6243
  156MOL   H17840788   4.965   1.051   6.717 -2.5043  0.6874  1.6896
  156MOL   H17940789   5.106   1.426   6.807  0.7896  0.6043  0.2138
  156MOL   H18040790   5.263   1.353   6.759 -0.7058 -0.5118 -0.7613
  156MOL   H18140791   5.185   1.302   6.904  4.0556 -0.5332 -0.3830
  156MOL   H18240792   5.038   1.177   6.515 -1.4166  0.6789  0.2355
  156MOL   H18340793   5.174   1.271   6.540  0.0037 -1.6119  0.3194
  156MOL   C18440794   4.986   1.387   6.555 -0.4577  0.2365  0.4782
  156MOL   C18540795   4.967   1.396   6.403 -0.0271  0.1317  0.1135
  156MOL   C18640796   4.972   1.505   6.331  0.2713 -0.2803  0.2271
  156MOL   C18740797   4.958   1.521   6.181 -1.1105  0.3521 -0.5704
  156MOL   C18840798   4.998   1.640   6.400  0.4761 -0.1650 -0.8161
  156MOL   H18940799   5.032   1.472   6.606 -1.9788  0.7424  1.0573
  156MOL   H19040800   4.886   1.368   6.595 -0.7648  0.1114 -0.3411
  156MOL   H19140801   4.950   1.307   6.343  0.9290  1.9663 -3.0362
  156MOL   H19240802   5.045   1.570   6.138 -0.6312  1.2097  1.3113
  156MOL   H19340803   4.879   1.593   6.156 -1.6230 -0.0902 -0.2380
  156MOL   H19440804   4.936   1.423   6.140 -0.7172  0.6784 -1.5797
  156MOL   H19540805   4.957   1.653   6.500 -0.1237  0.5935 -1.1504
  156MOL   H19640806   4.934   1.713   6.351  2.0124  0.5772 -1.7627
  156MOL   C19740807   5.148   1.695   6.398 -0.2953  0.3545 -1.2033
  156MOL   C19840808   5.230   1.647   6.520 -0.6123 -0.2091  0.1677
  156MOL   C19940809   5.265   1.715   6.629  0.2765  0.1525  0.1944
  156MOL   C20040810   5.337   1.655   6.746 -0.0420  0.1864  0.2861
  156MOL   C20140811   5.227   1.862   6.649 -0.5730  0.0090  0.0117
  156MOL   H20240812   5.141   1.803   6.387  0.6112  0.5445  0.0588
  156MOL   H20340813   5.205   1.679   6.306 -0.1164  3.3152 -1.6669
  156MOL   H20440814   5.268   1.546   6.521  1.7992  0.6738  0.1257
  156MOL   H20540815   5.385   1.571   6.697  0.6259  1.5090 -1.3870
  156MOL   H20640816   5.267   1.618   6.821 -1.7000  3.4185  0.4506
  156MOL   H20740817   5.402   1.728   6.795  1.6818  0.2392 -2.0243
  156MOL   H20840818   5.184   1.907   6.560  0.7641 -0.5172 -0.9184
  156MOL   H20940819   5.320   1.915   6.671 -1.2262  0.3453  1.9905
  156MOL   C21040820   5.118   1.875   6.758  0.8357 -0.6570 -0.2113
  156MOL   C21140821   5.109   2.020   6.802 -0.3586 -0.2846 -0.5112
  156MOL   C21240822   5.040   2.058   6.913  0.1704 -0.1451  0.0688
  156MOL   C21340823   5.027   2.207   6.951  0.5926 -0.0745  0.0279
  156MOL   C21440824   4.963   1.952   6.994  0.2090  0.2152 -0.9178
  156MOL   H21540825   5.148   1.818   6.846 -0.1280  0.1770  0.6819
  156MOL   H21640826   5.022   1.843   6.719  0.7186  0.4008 -0.8227
  156MOL   H21740827   5.158   2.091   6.737  0.9810 -0.1739  0.5950
  156MOL   H21840828   5.034   2.211   7.060 -0.3185 -1.8882  0.1667
  156MOL   H21940829   4.922   2.233   6.935  0.0376 -1.6977  0.9800
  156MOL   H22040830   5.080   2.274   6.883 -1.2630 -0.0909 -1.4991
  156MOL   H22140831   4.952   1.853   6.950 -2.1879  0.1497 -0.2373
  156MOL   H22240832   4.859   1.981   7.005  0.3812  0.6939 -0.5487
  156MOL   C22340833   5.015   1.929   7.133 -0.0189  0.3166 -0.3873
  156MOL   C22440834   4.967   1.801   7.206 -0.7176  0.0679 -0.1040
  156MOL   C22540835   5.027   1.683   7.203 -0.3904  0.5370  0.2615
  156MOL   C22640836   4.974   1.561   7.279 -0.3933 -0.0250 -0.9586
  156MOL   C22740837   5.156   1.651   7.127  0.3896 -0.2473  0.1049
  156MOL   H22840838   4.989   2.012   7.199 -1.1931  0.2839 -0.7988
  156MOL   H22940839   5.124   1.933   7.134  0.1055 -2.4830 -0.1708
  156MOL   H23040840   4.868   1.800   7.249 -1.0538 -1.0392 -0.8796
  156MOL   H23140841   4.865   1.568   7.274 -0.5219 -2.1343 -1.2780
  156MOL   H23240842   5.018   1.553   7.378  0.7082 -0.0176 -1.4396
  156MOL   H23340843   5.009   1.472   7.227  1.6886 -0.0971  0.5052
  156MOL   H23440844   5.175   1.727   7.051 -0.3685  0.2362  0.3945
  156MOL   H23540845   5.135   1.564   7.064  2.2849  0.4194 -1.5163
  156MOL   C23640846   5.285   1.644   7.215 -0.2634  0.2585 -0.9300
  156MOL   C23740847   5.413   1.613   7.133 -0.1019 -0.2913 -0.4230
  156MOL   C23840848   5.516   1.690   7.112 -0.4920  0.2956 -0.2290
  156MOL   C23940849   5.633   1.634   7.028  0.2671 -0.6369  0.1183
  156MOL   C24040850   5.529   1.826   7.185 -0.9337  0.2535  0.6263
  156MOL   H24140851   5.272   1.562   7.285  1.3425  1.5331  0.9197
  156MOL   H24240852   5.286   1.733   7.278  0.3790 -1.5831  1.7741
  156MOL   H24340853   5.416   1.514   7.089 -2.8195 -1.1224  1.1702
  156MOL   H24440854   5.601   1.538   6.989  0.6041 -1.1570  1.0931
  156MOL   H24540855   5.715   1.624   7.100  0.2283  0.1058  0.2766
  156MOL   H24640856   5.658   1.707   6.951 -0.0216 -1.3454 -0.6533
  156MOL   H24740857   5.631   1.841   7.220 -0.7151  4.1692 -1.3858
  156MOL   H24840858   5.463   1.834   7.271 -0.0328  2.1915  1.1715
  156MOL   C24940859   5.517   1.935   7.089 -0.4756 -0.0130  0.8678
  156MOL   C25040860   5.574   2.063   7.150  0.4787  0.0285 -0.1080
  156MOL   C25140861   5.506   2.177   7.179 -0.1323 -0.0351 -0.1319
  156MOL   C25240862   5.583   2.283   7.253  0.4596 -0.0994 -0.0887
  156MOL   C25340863   5.362   2.219   7.163  0.5315 -0.0436 -0.5559
  156MOL   H25440864   5.413   1.943   7.056 -0.1435  0.4535 -0.0863
  156MOL   H25540865   5.572   1.922   6.996 -2.1627 -0.9323 -0.0135
  156MOL   H25640866   5.673   2.045   7.190  0.2622 -3.6341 -1.0003
  156MOL   H25740867   5.687   2.279   7.221  0.8259 -2.4152  1.2604
  156MOL   H25840868   5.574   2.272   7.361  1.1889  1.0246  0.0926
  156MOL   H25940869   5.544   2.378   7.216 -1.7371 -1.0214 -0.2162
  156MOL   H26040870   5.307   2.147   7.103  0.0391  1.3755 -1.8434
  156MOL   H26140871   5.369   2.310   7.104  0.5314 -0.5055 -1.2824
  156MOL   H26240872   5.316   2.238   7.259  0.2904  0.0813 -0.6958
  157MOL     C140873   0.929   1.576   3.059 -0.0156  0.3851  0.3639
  157MOL     C240874   0.864   1.710   3.028 -1.1307  0.1660 -0.6913
  157MOL     C340875   0.796   1.742   2.918 -0.0448  0.6711  0.6154
  157MOL     C440876   0.724   1.878   2.902 -0.5406 -0.3332 -0.4038
  157MOL     C540877   0.761   1.639   2.811 -0.0710 -0.7751  0.4836
  157MOL     H640878   0.864   1.518   3.124 -0.2897 -1.3311 -1.3627
  157MOL     H740879   0.955   1.514   2.972  0.3355 -0.3428  0.9809
  157MOL     H840880   0.879   1.778   3.110  1.0411 -0.9316 -0.1376
  157MOL     H940881   0.728   1.942   2.990 -1.7581  0.7221 -1.0961
  157MOL    H1040882   0.620   1.873   2.868 -0.6631  0.6849 -0.1898
  157MOL    H1140883   0.781   1.922   2.821  1.0341 -1.4677  0.0703
  157MOL    H1240884   0.652   1.641   2.800 -0.0158 -0.7202 -0.0536
  157MOL    H1340885   0.780   1.539   2.850  0.2891 -1.0465 -0.3778
  157MOL    H1440886   1.018   1.587   3.121 -0.4426 -0.3187  1.1092
  157MOL    C1540887   0.829   1.661   2.677  0.0816 -0.1836  0.2395
  157MOL    C1640888   0.797   1.554   2.575  0.6845  0.1724 -0.8946
  157MOL    C1740889   0.697   1.551   2.482  0.3270  0.6436 -0.0630
  157MOL    C1840890   0.672   1.434   2.390  0.0770 -0.4385 -0.3749
  157MOL    C1940891   0.587   1.656   2.475 -0.3294  0.5464 -0.2044
  157MOL    H2040892   0.935   1.686   2.677 -0.7256  3.4973 -1.3313
  157MOL    H2140893   0.807   1.749   2.618 -0.4526  1.5292  2.9383
  157MOL    H2240894   0.859   1.466   2.575 -1.2069 -1.1954 -2.2698
  157MOL    H2340895   0.742   1.359   2.425 -2.4889 -2.1364  1.3092
  157MOL    H2440896   0.696   1.433   2.283 -1.1185 -0.2480 -0.6579
  157MOL    H2540897   0.573   1.392   2.406 -0.3097  1.3770  2.3211
  157MOL    H2640898   0.587   1.727   2.558 -0.3760 -0.2899  0.5181
  157MOL    H2740899   0.491   1.608   2.489 -0.3810  0.5758 -0.4677
  157MOL    C2840900   0.587   1.739   2.349  0.8026 -0.5777 -0.3385
  157MOL    C2940901   0.519   1.873   2.362 -0.0055 -0.2222  0.6116
  157MOL    C3040902   0.397   1.905   2.317 -0.6186 -0.3540  0.3499
  157MOL    C3140903   0.344   2.046   2.324 -0.2979 -0.6367  0.0514
  157MOL    C3240904   0.293   1.793   2.271  0.7592  0.1763  0.1221
  157MOL    H3340905   0.545   1.678   2.268 -0.9416  1.4969 -1.0361
  157MOL    H3440906   0.688   1.759   2.313 -0.2723  0.7980 -2.6956
  157MOL    H3540907   0.583   1.949   2.404 -0.2211 -0.6288  1.6894
  157MOL    H3640908   0.427   2.117   2.326 -2.3855  1.9192 -1.5148
  157MOL    H3740909   0.286   2.048   2.417 -0.6015 -0.7695 -0.1363
  157MOL    H3840910   0.293   2.057   2.229  0.9611 -0.3352 -0.5879
  157MOL    H3940911   0.346   1.698   2.261 -1.0060 -0.6623 -1.6485
  157MOL    H4040912   0.235   1.825   2.184 -4.2793 -1.4659  2.7033
  157MOL    C4140913   0.193   1.757   2.390  0.6046  0.1493 -0.1861
  157MOL    C4240914   0.077   1.659   2.354 -0.6942 -0.7300 -0.3956
  157MOL    C4340915   7.826   1.696   2.351  0.0611 -0.2148 -0.4577
  157MOL    C4440916   7.737   1.590   2.286  0.2840 -0.4272  0.2255
  157MOL    C4540917   7.770   1.827   2.408 -0.3395  0.1320  0.3118
  157MOL    H4640918   0.157   1.854   2.424 -0.4048 -0.4263  0.4103
  157MOL    H4740919   0.249   1.711   2.471 -0.2453  0.0666  0.3607
  157MOL    H4840920   0.104   1.558   2.327  0.6889 -1.7333  4.1731
  157MOL    H4940921   7.631   1.604   2.310 -0.7091 -2.0377 -2.9142
  157MOL    H5040922   7.766   1.489   2.313  1.2714  0.1571  1.3772
  157MOL    H5140923   7.732   1.592   2.177  0.1606  0.8860  0.2478
  157MOL    H5240924   7.842   1.868   2.478 -1.5981  0.7995  1.2344
  157MOL    H5340925   7.685   1.806   2.472 -0.9981 -1.9386 -1.1853
  157MOL    C5440926   7.727   1.934   2.305  0.1485  0.0451  0.1207
  157MOL    C5540927   7.834   1.993   2.211  0.2997 -0.4609 -0.5590
  157MOL    C5640928   7.818   2.065   2.103  0.8411 -0.4063  0.8158
  157MOL    C5740929   0.063   2.106   2.028 -0.6666 -0.5575  0.5289
  157MOL    C5840930   7.690   2.098   2.037  0.3151 -0.1355  0.1554
  157MOL    H5940931   7.683   2.017   2.360  0.3930  0.6051 -0.5231
  157MOL    H6040932   7.647   1.877   2.258 -0.8466 -0.0784  1.9076
  157MOL    H6140933   0.058   1.972   2.237  0.6350 -1.1543 -2.3879
  157MOL    H6240934   0.109   2.014   1.992 -1.3084 -0.3432 -0.8524
  157MOL    H6340935   0.128   2.168   2.090  0.0562 -1.3932  0.6086
  157MOL    H6440936   0.039   2.162   1.938 -1.5623 -1.5064  0.1819
  157MOL    H6540937   7.602   2.055   2.085  0.6847 -1.8339 -0.6455
  157MOL    H6640938   7.701   2.060   1.935  3.8615 -0.0760  0.4381
  157MOL    C6740939   7.659   2.251   2.034 -0.4850 -0.7156 -0.2064
  157MOL    C6840940   7.534   2.281   1.951 -0.0462  0.2736  0.1924
  157MOL    C6940941   7.529   2.353   1.832  0.3089  0.3327  0.2618
  157MOL    C7040942   7.390   2.391   1.785 -0.1473  0.5234 -0.1516
  157MOL    C7140943   7.649   2.393   1.743  0.6702 -0.5005 -1.1445
  157MOL    H7240944   7.749   2.306   2.005 -0.8310  0.6317  1.1944
  157MOL    H7340945   7.636   2.286   2.135  0.5622 -1.1519  0.1909
  157MOL    H7440946   7.443   2.258   2.005  1.0950  1.0527  2.5196
  157MOL    H7540947   7.381   2.357   1.682  2.9781 -0.2100 -0.2426
  157MOL    H7640948   7.376   2.498   1.797 -1.1221  0.2971  0.7970
  157MOL    H7740949   7.315   2.330   1.836  1.3991 -1.3916 -0.1090
  157MOL    H7840950   7.646   2.371   1.636  3.4414  2.5408 -1.9567
  157MOL    H7940951   7.728   2.324   1.773 -0.2471 -0.8946  0.3762
  157MOL    C8040952   7.684   2.538   1.746 -0.1025  0.4118  0.6550
  157MOL    C8140953   7.802   2.569   1.652  0.5427 -0.1158 -0.1435
  157MOL    C8240954   0.051   2.598   1.686  0.3806  0.4597 -0.2042
  157MOL    C8340955   0.108   2.602   1.832  0.3778  0.2517 -0.0962
  157MOL    C8440956   0.147   2.632   1.582 -0.0540  0.2860  0.2244
  157MOL    H8540957   7.701   2.559   1.852 -0.2802  1.5605  0.4678
  157MOL    H8640958   7.595   2.592   1.713 -0.1305 -0.3654 -0.5606
  157MOL    H8740959   7.769   2.590   1.552 -2.0330 -0.7683  0.5267
  157MOL    H8840960   0.196   2.666   1.830  1.6449 -1.4356  0.3659
  157MOL    H8940961   0.147   2.508   1.870 -0.7790 -0.3965 -0.4989
  157MOL    H9040962   0.031   2.645   1.896  0.3625  1.7590 -1.0993
  157MOL    H9140963   0.124   2.578   1.490  1.8593 -2.2040  1.1634
  157MOL    H9240964   0.243   2.592   1.612  0.9831  1.8360 -0.9373
  157MOL    C9340965   0.151   2.776   1.545  0.2384  0.2329 -0.5606
  157MOL    C9440966   0.245   2.811   1.434 -1.3228  0.4029  0.3677
  157MOL    C9540967   0.233   2.795   1.297 -0.3434 -0.2801 -0.1748
  157MOL    C9640968   0.346   2.815   1.210 -0.7425  0.1198  0.1734
  157MOL    C9740969   0.104   2.732   1.243  0.2645  1.0428  0.4150
  157MOL    H9840970   0.176   2.837   1.633 -0.4794  0.8113 -0.7512
  157MOL    H9940971   0.052   2.805   1.509  1.0297  2.1504 -1.2639
  157MOL   H10040972   0.336   2.850   1.477 -0.2165 -2.1438  0.4713
  157MOL   H10140973   0.310   2.858   1.116  0.5958  0.5305 -0.1569
  157MOL   H10240974   0.428   2.871   1.254  1.6370 -2.0252 -1.3844
  157MOL   H10340975   0.390   2.718   1.189 -0.1985  0.5013 -0.4809
  157MOL   H10440976   0.055   2.805   1.179  0.0155  1.5868  1.2102
  157MOL   H10540977   0.027   2.705   1.315 -0.3946 -2.3083 -1.4534
  157MOL   C10640978   0.130   2.606   1.163  0.7021  0.0290 -0.0476
  157MOL   C10740979   0.003   2.530   1.108  0.2825  0.0281 -0.6844
  157MOL   C10840980   7.832   2.415   1.170 -0.1695 -0.4025  0.0919
  157MOL   C10940981   0.005   2.359   1.302  0.7020  0.4236  0.3609
  157MOL   C11040982   7.714   2.343   1.104  0.8171 -0.4586  0.2291
  157MOL   H11140983   0.186   2.540   1.230  0.1262 -1.0474 -0.6064
  157MOL   H11240984   0.204   2.620   1.084  0.7908 -0.0086  0.0287
  157MOL   H11340985   7.835   2.575   1.022  0.6770  2.9932  0.5675
  157MOL   H11440986   0.113   2.376   1.309  0.5844  0.7984  1.2306
  157MOL   H11540987   7.846   2.411   1.389  0.3695  0.8394 -0.0295
  157MOL   H11640988   7.863   2.253   1.312  0.5650  0.4689  0.5483
  157MOL   H11740989   7.737   2.237   1.094  0.0714 -0.6538  0.5703
  157MOL   H11840990   7.700   2.387   1.005  0.6976 -0.8434  0.0715
  157MOL   C11940991   7.576   2.336   1.178  0.9252  0.6105  0.2014
  157MOL   C12040992   7.531   2.445   1.271 -0.4089 -0.2348 -0.0972
  157MOL   C12140993   7.423   2.459   1.352 -0.0479  0.3125 -0.4298
  157MOL   C12240994   7.393   2.585   1.439 -0.3217  0.2596  0.0181
  157MOL   C12340995   7.322   2.347   1.366  0.5184 -0.2403  0.5947
  157MOL   H12440996   7.579   2.247   1.240 -1.7259 -0.3586 -0.9884
  157MOL   H12540997   7.494   2.313   1.111  1.7347  0.4959 -0.7632
  157MOL   H12640998   7.608   2.521   1.274  0.7228 -1.3839  1.9802
  157MOL   H12740999   7.483   2.645   1.451  0.9022 -0.1548 -5.6201
  157MOL   H12841000   7.356   2.553   1.536 -0.0447  1.1329  0.4176
  157MOL   H12941001   7.317   2.644   1.387  0.5255  0.2736 -1.2293
  157MOL   H13041002   7.316   2.307   1.467 -0.2374  2.5237  1.6904
  157MOL   H13141003   7.363   2.261   1.313  1.9998  0.1492  1.0688
  157MOL   C13241004   7.184   2.387   1.309  0.2421 -0.4728 -0.3236
  157MOL   C13341005   7.090   2.269   1.304 -0.2830 -0.2189 -0.2207
  157MOL   C13441006   6.954   2.267   1.303 -0.2184 -0.2517 -0.5198
  157MOL   C13541007   6.876   2.130   1.298  0.3993  0.1026 -0.0813
  157MOL   C13641008   6.861   2.391   1.308  0.0840  0.0540  0.0046
  157MOL   H13741009   7.190   2.431   1.210 -1.4115  1.8264  0.5545
  157MOL   H13841010   7.130   2.461   1.368 -2.8897 -2.7527 -0.1903
  157MOL   H13941011   7.137   2.172   1.295 -1.9157 -0.9956 -0.6266
  157MOL   H14041012   6.945   2.049   1.276 -0.5984 -1.2558  1.6486
  157MOL   H14141013   6.806   2.130   1.214  1.0928  1.4124 -0.6690
  157MOL   H14241014   6.823   2.113   1.392  0.1643  2.9690  0.3724
  157MOL   H14341015   6.790   2.368   1.228  0.8512 -0.0961 -0.6450
  157MOL   H14441016   6.910   2.485   1.283 -1.5541  1.2592  1.2248
  157MOL   C14541017   6.794   2.411   1.444  0.0003  0.2298  0.2014
  157MOL   C14641018   6.880   2.390   1.565 -0.6365 -0.2852 -0.1743
  157MOL   C14741019   6.908   2.467   1.671  0.8398 -0.0326 -0.0719
  157MOL   C14841020   7.015   2.425   1.776  0.2989  0.8108 -0.1967
  157MOL   C14941021   6.860   2.611   1.695 -0.3303 -0.1052 -0.3026
  157MOL   H15041022   6.708   2.343   1.449  0.2070 -0.0985 -0.6740
  157MOL   H15141023   6.753   2.510   1.460  1.0275  0.8022 -0.6583
  157MOL   H15241024   6.919   2.290   1.578  2.1766  0.7625 -0.2862
  157MOL   H15341025   7.021   2.317   1.768  1.3410  0.8609 -0.1536
  157MOL   H15441026   6.978   2.446   1.876 -0.4190  0.0071 -0.2910
  157MOL   H15541027   7.110   2.472   1.751  2.9371 -4.8744 -1.6044
  157MOL   H15641028   6.806   2.611   1.789 -0.5482  0.0316 -0.4298
  157MOL   H15741029   6.787   2.644   1.622 -0.9663 -1.7437 -0.4348
  157MOL   C15841030   6.977   2.715   1.711  0.1190  0.1527 -0.6487
  157MOL   C15941031   6.924   2.857   1.743  0.1804  0.0746 -0.1645
  157MOL   C16041032   6.866   2.932   1.653  0.1179  0.4144 -0.0543
  157MOL   C16141033   6.850   2.899   1.502  0.1738 -0.3813  0.6750
  157MOL   C16241034   6.820   3.066   1.706  0.0009 -0.0581 -0.0867
  157MOL   H16341035   7.041   2.705   1.624  2.5789 -2.4945  1.3659
  157MOL   H16441036   7.037   2.693   1.799  0.9957  0.8896 -1.0539
  157MOL   H16541037   6.924   2.884   1.847  0.0069 -1.1128  0.1537
  157MOL   H16641038   6.904   2.967   1.437  0.0777  0.5734  1.5780
  157MOL   H16741039   6.748   2.908   1.465  0.1777  0.1228  0.7853
  157MOL   H16841040   6.878   2.798   1.473  0.1442 -0.5115  1.0828
  157MOL   H16941041   6.809   3.068   1.814 -0.1673  2.5400 -0.1336
  157MOL   H17041042   6.719   3.078   1.669 -0.1748  2.0644  1.0265
  157MOL   C17141043   6.900   3.185   1.659 -0.2528 -0.1599  0.0567
  157MOL   C17241044   6.834   3.316   1.701 -0.3128 -1.0302 -0.0950
  157MOL   C17341045   6.872   3.401   1.807 -0.1462 -0.1346  0.1476
  157MOL   C17441046   7.000   3.389   1.879  0.0342  0.0071  0.3281
  157MOL   C17541047   6.788   3.522   1.848  0.1732 -0.6587  0.0383
  157MOL   H17641048   6.907   3.171   1.551 -0.0518 -0.5223  0.1179
  157MOL   H17741049   7.003   3.179   1.693 -0.4776  0.3171  0.8495
  157MOL   H17841050   6.745   3.335   1.644  0.5253  1.4196 -0.6296
  157MOL   H17941051   6.975   3.377   1.984 -1.4988  0.5132  0.0467
  157MOL   H18041052   7.078   3.462   1.856 -1.1774  1.2127 -0.1087
  157MOL   H18141053   7.064   3.305   1.856 -1.1555 -0.6825 -0.5120
  157MOL   H18241054   6.804   3.538   1.954  0.1818  1.8312 -0.2982
  157MOL   H18341055   6.683   3.498   1.830  0.4322  0.3612 -3.0884
  157MOL   C18441056   6.823   3.646   1.768  0.8990  0.6203  0.4432
  157MOL   C18541057   6.741   3.768   1.788  0.0519  0.2019 -0.4071
  157MOL   C18641058   6.787   3.896   1.803  0.2515 -0.3556  0.2685
  157MOL   C18741059   6.694   4.017   1.817  0.1082 -0.0436 -0.4879
  157MOL   C18841060   6.931   3.937   1.780 -0.1065  0.1789 -0.3465
  157MOL   H18941061   6.806   3.614   1.666  2.0674 -2.0714  1.0356
  157MOL   H19041062   6.928   3.675   1.772  0.4578  2.2194  0.7399
  157MOL   H19141063   6.635   3.753   1.800 -0.2383  2.3710 -0.0408
  157MOL   H19241064   6.683   4.074   1.725 -0.5963 -0.7442 -0.8488
  157MOL   H19341065   6.733   4.080   1.897 -0.6326 -1.1035  0.7548
  157MOL   H19441066   6.595   3.984   1.848  0.3899 -0.1566  0.3035
  157MOL   H19541067   6.999   3.865   1.824  2.0688  2.4651  0.1477
  157MOL   H19641068   6.964   4.029   1.829  1.7771 -0.2531 -0.7629
  157MOL   C19741069   6.965   3.957   1.636 -0.3093  0.1708 -0.2765
  157MOL   C19841070   7.119   3.948   1.605  0.3031 -0.8406 -0.1527
  157MOL   C19941071   7.198   4.044   1.555 -0.0770 -0.2827 -0.2330
  157MOL   C20041072   7.345   4.018   1.537 -0.0936 -0.6109 -0.4406
  157MOL   C20141073   7.144   4.180   1.517  0.1599  0.3755 -0.5311
  157MOL   H20241074   6.916   4.048   1.600 -2.3880 -0.6546  0.3626
  157MOL   H20341075   6.918   3.882   1.573 -0.0037  0.0647 -0.3765
  157MOL   H20441076   7.165   3.858   1.644  0.9894 -0.4211  0.0110
  157MOL   H20541077   7.385   3.918   1.554  0.7755 -0.1075  0.5512
  157MOL   H20641078   7.404   4.091   1.592  0.0175  0.1580 -1.5578
  157MOL   H20741079   7.368   4.034   1.431  0.0195 -1.3492 -0.5300
  157MOL   H20841080   7.051   4.168   1.462 -0.7374  3.8781  0.1525
  157MOL   H20941081   7.204   4.221   1.436  0.2851 -0.5756 -0.9338
  157MOL   C21041082   7.143   4.291   1.625 -0.7105 -0.2782 -0.4082
  157MOL   C21141083   7.106   4.433   1.568 -0.7634  0.0436 -1.1421
  157MOL   C21241084   6.987   4.494   1.578 -0.1994 -0.3510  0.4327
  157MOL   C21341085   6.961   4.617   1.494  0.3926 -0.1316  0.3146
  157MOL   C21441086   6.866   4.441   1.660  0.0653  0.1620  0.2772
  157MOL   H21541087   7.242   4.298   1.671 -1.3723  1.1979  0.8508
  157MOL   H21641088   7.081   4.271   1.712 -0.3772 -3.5779 -0.8987
  157MOL   H21741089   7.186   4.483   1.515  1.0223 -3.0186 -1.4413
  157MOL   H21841090   6.923   4.699   1.555  0.2438  0.4005 -0.4841
  157MOL   H21941091   6.890   4.601   1.413 -0.8823 -0.9610  1.5900
  157MOL   H22041092   7.053   4.662   1.456  0.6371 -1.1865 -0.3705
  157MOL   H22141093   6.820   4.524   1.712 -0.4551  0.8916 -1.3065
  157MOL   H22241094   6.897   4.376   1.742 -1.4608  1.4004  1.8546
  157MOL   C22341095   6.766   4.368   1.565  0.4723 -0.3849 -0.0079
  157MOL   C22441096   6.624   4.365   1.616 -0.1179  0.0936  0.0062
  157MOL   C22541097   6.522   4.456   1.590  0.2389 -0.9451 -0.3376
  157MOL   C22641098   6.376   4.423   1.632 -1.0986 -0.3832 -0.6918
  157MOL   C22741099   6.530   4.586   1.505  0.4712 -0.1445  0.3923
  157MOL   H22841100   6.795   4.264   1.550  0.8451  0.0925 -2.8868
  157MOL   H22941101   6.748   4.420   1.471  2.9725 -0.9178 -0.8315
  157MOL   H23041102   6.597   4.280   1.677 -1.4755  1.2332  1.0459
  157MOL   H23141103   6.371   4.348   1.710  2.2015 -0.7597 -0.8088
  157MOL   H23241104   6.320   4.375   1.552 -1.3977  0.0202 -0.7253
  157MOL   H23341105   6.316   4.505   1.672  0.3260  0.7404 -0.8033
  157MOL   H23441106   6.629   4.628   1.523 -0.2331  2.1711 -1.0681
  157MOL   H23541107   6.464   4.665   1.540  0.1212  0.5926 -1.8601
  157MOL   C23641108   6.514   4.554   1.355  0.0124 -0.2057  0.4707
  157MOL   C23741109   6.537   4.684   1.268  0.0438  0.4654 -0.3934
  157MOL   C23841110   6.445   4.745   1.185  0.1940  0.5547 -0.4742
  157MOL   C23941111   6.482   4.866   1.104  0.6867 -0.1012 -0.0200
  157MOL   C24041112   6.309   4.687   1.153  0.2882 -0.4447 -0.5957
  157MOL   H24141113   6.425   4.496   1.333 -0.9816  1.6462 -0.5230
  157MOL   H24241114   6.593   4.490   1.317 -0.7503 -1.1288  0.4466
  157MOL   H24341115   6.635   4.728   1.277  0.7121 -0.8804 -0.9486
  157MOL   H24441116   6.402   4.939   1.108  0.6775 -0.0943 -0.3135
  157MOL   H24541117   6.502   4.835   1.001  1.0690 -0.1123  0.0575
  157MOL   H24641118   6.579   4.905   1.133 -0.3449  1.2276  1.6975
  157MOL   H24741119   6.316   4.583   1.185  1.4330  0.2912  1.6129
  157MOL   H24841120   6.290   4.690   1.045 -3.6706 -0.7801  0.0057
  157MOL   C24941121   6.198   4.748   1.246  0.0220 -0.2477  0.5653
  157MOL   C25041122   6.060   4.738   1.189  1.6359 -0.2933 -0.6865
  157MOL   C25141123   5.942   4.749   1.262 -0.0415  0.1002  0.3594
  157MOL   C25241124   5.811   4.698   1.194 -0.5115 -0.3788  0.2281
  157MOL   C25341125   5.933   4.792   1.411 -0.4432  0.1466 -0.7656
  157MOL   H25441126   6.225   4.854   1.253  0.6021 -0.3776  0.2995
  157MOL   H25541127   6.197   4.706   1.347  0.6674 -0.2273  0.5797
  157MOL   H25641128   6.063   4.707   1.085  2.8085  1.7398 -1.2928
  157MOL   H25741129   5.821   4.670   1.090  0.2803 -1.4612  0.5859
  157MOL   H25841130   5.728   4.768   1.204 -1.7253 -2.1630  3.4640
  157MOL   H25941131   5.776   4.606   1.241 -2.6469 -0.4913 -1.5453
  157MOL   H26041132   5.876   4.885   1.420 -1.3561 -0.3373 -1.4711
  157MOL   H26141133   6.027   4.799   1.465 -1.2233  0.4357  0.5697
  157MOL   H26241134   5.874   4.713   1.458  0.4207  0.5232  0.9839
  158MOL     C141135   6.821   6.648   1.004  0.5126 -0.1233 -0.3740
  158MOL     C241136   6.789   6.536   1.099  0.1835 -0.6910 -0.2106
  158MOL     C341137   6.792   6.552   1.233 -0.8242  0.5277 -0.4421
  158MOL     C441138   6.744   6.457   1.334 -0.1391 -0.2928  0.4206
  158MOL     C541139   6.833   6.683   1.298  0.4370 -0.7938  0.1990
  158MOL     H641140   6.865   6.604   0.915  1.4673 -1.1039  0.5681
  158MOL     H741141   6.727   6.691   0.971 -0.0791 -2.4218 -1.7989
  158MOL     H841142   6.759   6.449   1.043  0.6989 -0.3006 -1.1038
  158MOL     H941143   6.659   6.496   1.391 -0.1116  0.5590 -0.1163
  158MOL    H1041144   6.821   6.416   1.399  2.0292  0.8332 -1.3884
  158MOL    H1141145   6.706   6.371   1.279  0.8469 -0.9861  0.8207
  158MOL    H1241146   6.767   6.686   1.384  1.6101 -0.1699  1.1034
  158MOL    H1341147   6.796   6.769   1.243 -0.7293 -0.1175  1.9853
  158MOL    H1441148   6.884   6.724   1.052 -0.3762  0.2745  0.1690
  158MOL    C1541149   6.982   6.697   1.331 -0.8217 -0.1766  0.3261
  158MOL    C1641150   7.007   6.807   1.429 -0.0627  0.7993 -0.3441
  158MOL    C1741151   7.132   6.853   1.454  0.3322 -0.1769 -0.6145
  158MOL    C1841152   7.156   6.966   1.553 -0.2051 -0.1484  0.4738
  158MOL    C1941153   7.249   6.804   1.374 -0.7501 -0.0633 -0.1903
  158MOL    H2041154   7.039   6.704   1.239  1.0803 -4.7457  0.9959
  158MOL    H2141155   7.015   6.596   1.356  1.2698  0.5078  0.4272
  158MOL    H2241156   6.920   6.863   1.461 -1.0856 -1.6353  1.3035
  158MOL    H2341157   7.059   6.994   1.592  0.3980 -0.9633  2.6046
  158MOL    H2441158   7.194   7.054   1.499  0.5973 -0.1468  1.0263
  158MOL    H2541159   7.226   6.938   1.632 -0.6771 -3.7968 -0.3135
  158MOL    H2641160   7.228   6.700   1.347  0.3637 -0.1142 -0.8943
  158MOL    H2741161   7.329   6.801   1.448 -1.6084 -0.9232  0.7136
  158MOL    C2841162   7.277   6.879   1.243 -0.1911  0.4012 -0.4488
  158MOL    C2941163   7.387   6.817   1.158 -0.0772  0.9904  0.4925
  158MOL    C3041164   7.364   6.746   1.043 -0.3317  0.1991 -0.1003
  158MOL    C3141165   7.476   6.677   0.964 -0.1992 -0.0350  0.2154
  158MOL    C3241166   7.221   6.744   0.970 -0.5129  0.3008 -0.8542
  158MOL    H3341167   7.325   6.974   1.264  1.6855 -0.9283  1.3729
  158MOL    H3441168   7.180   6.895   1.195  0.5176  0.7197 -1.7980
  158MOL    H3541169   7.487   6.823   1.199  0.1078  1.1893  0.0179
  158MOL    H3641170   7.439   6.574   0.961 -2.5283  0.7317  1.3723
  158MOL    H3741171   7.563   6.687   1.030  1.1681 -1.4441 -1.3272
  158MOL    H3841172   7.504   6.699   0.861  1.1354 -2.4166  0.0405
  158MOL    H3941173   7.132   6.762   1.030 -2.1801 -1.2053 -2.7927
  158MOL    H4041174   7.194   6.645   0.932  1.4158  0.1397 -1.9029
  158MOL    C4141175   7.218   6.843   0.854 -0.0014 -0.6870 -0.2477
  158MOL    C4241176   7.087   6.840   0.779  0.7496  0.1627 -0.2268
  158MOL    C4341177   7.066   6.826   0.648 -0.9874 -0.2099  0.0808
  158MOL    C4441178   6.921   6.823   0.608 -0.0441 -0.5106 -0.6120
  158MOL    C4541179   7.175   6.798   0.534 -0.1541 -0.6196 -0.3392
  158MOL    H4641180   7.298   6.817   0.784 -1.4036 -2.5059 -1.2226
  158MOL    H4741181   7.246   6.941   0.894  0.8351 -0.7719 -0.6018
  158MOL    H4841182   7.000   6.848   0.842 -0.0105  1.0569 -1.3580
  158MOL    H4941183   6.912   6.862   0.506 -0.3218 -0.6795 -0.6524
  158MOL    H5041184   6.847   6.862   0.678  2.8008  0.8148  1.7727
  158MOL    H5141185   6.889   6.719   0.597  0.0674 -0.3800 -2.2666
  158MOL    H5241186   7.271   6.781   0.583  0.3720 -2.1503 -1.8603
  158MOL    H5341187   7.184   6.880   0.463  0.7009 -0.2293  0.2179
  158MOL    C5441188   7.148   6.663   0.464  0.5120  0.2593 -0.4863
  158MOL    C5541189   7.277   6.612   0.404  0.4481 -0.5054  0.2896
  158MOL    C5641190   7.353   6.515   0.463  0.8882 -0.5570  0.4852
  158MOL    C5741191   7.491   6.486   0.412  0.3373 -0.0857 -0.2633
  158MOL    C5841192   7.316   6.446   0.588 -0.1131  0.2110  0.0942
  158MOL    H5941193   7.085   6.689   0.379 -0.1340 -2.0707 -0.7685
  158MOL    H6041194   7.084   6.596   0.523 -1.0900  2.1187 -0.0711
  158MOL    H6141195   7.309   6.668   0.317  0.5711 -1.1487 -0.0828
  158MOL    H6241196   7.526   6.556   0.337 -1.8338  1.0465 -0.2658
  158MOL    H6341197   7.500   6.380   0.387  0.7055 -0.7791  2.6459
  158MOL    H6441198   7.545   6.510   0.504 -0.0270  0.0334 -0.0805
  158MOL    H6541199   7.232   6.495   0.636 -2.2168 -1.4068 -1.8556
  158MOL    H6641200   7.397   6.464   0.659 -0.3102  1.1108  0.0852
  158MOL    C6741201   7.285   6.296   0.552  0.1802 -0.0818  0.6032
  158MOL    C6841202   7.267   6.231   0.693  0.5504 -0.2825  0.1166
  158MOL    C6941203   7.349   6.148   0.750  0.1651  0.4048 -0.3231
  158MOL    C7041204   7.322   6.096   0.889  0.3201  0.0832 -0.2800
  158MOL    C7141205   7.472   6.078   0.687 -0.2100 -0.5649 -0.0954
  158MOL    H7241206   7.362   6.248   0.491 -3.6770 -1.9547 -3.0994
  158MOL    H7341207   7.196   6.288   0.490  1.0488  0.7575 -0.7892
  158MOL    H7441208   7.182   6.269   0.747  1.0930  0.6353  0.3271
  158MOL    H7541209   7.222   6.118   0.927 -0.2997 -1.3123 -1.0536
  158MOL    H7641210   7.403   6.117   0.958  0.3179  1.3994 -0.6498
  158MOL    H7741211   7.320   5.988   0.878 -1.2856  0.1788 -1.1503
  158MOL    H7841212   7.478   6.090   0.579  1.5091 -1.0885 -0.0712
  158MOL    H7941213   7.474   5.975   0.721  1.4055 -0.5706 -0.1677
  158MOL    C8041214   7.607   6.135   0.741  0.2112 -0.8736  0.4337
  158MOL    C8141215   7.640   6.255   0.661  0.4826 -0.2473 -1.0133
  158MOL    C8241216   7.736   6.342   0.696  0.7458  0.2551  0.1584
  158MOL    C8341217   7.819   6.323   0.829  0.2311 -0.6727 -0.1710
  158MOL    C8441218   7.792   6.434   0.592  0.2570  0.2240 -0.0668
  158MOL    H8541219   7.690   6.069   0.716 -0.1000 -0.5371 -1.6033
  158MOL    H8641220   7.606   6.164   0.846  0.1054  0.7804 -0.0105
  158MOL    H8741221   7.614   6.248   0.557 -0.7031  0.1049 -0.7511
  158MOL    H8841222   0.015   6.401   0.842  0.9038 -1.3292 -0.1489
  158MOL    H8941223   7.878   6.233   0.815  1.5809 -0.0106  1.1670
  158MOL    H9041224   7.766   6.308   0.923 -0.3280 -1.4352 -0.6001
  158MOL    H9141225   7.776   6.531   0.640 -0.4762 -0.6863  1.5921
  158MOL    H9241226   7.737   6.440   0.499  0.8578  1.7230 -0.3307
  158MOL    C9341227   0.057   6.407   0.554 -0.3790  0.3566 -0.2107
  158MOL    C9441228   0.082   6.480   0.414  0.2604 -0.3053  0.4549
  158MOL    C9541229   0.081   6.409   0.299 -0.5002 -0.1388  0.3586
  158MOL    C9641230   0.084   6.488   0.173  0.3911 -0.2988 -0.8612
  158MOL    C9741231   0.070   6.261   0.287  0.4669  0.4462 -0.1287
  158MOL    H9841232   0.074   6.302   0.531 -1.3939  0.0525  0.4101
  158MOL    H9941233   0.119   6.448   0.633  2.5790 -1.1044 -1.7218
  158MOL   H10041234   0.092   6.587   0.417  4.3494 -0.6173  0.8523
  158MOL   H10141235   0.164   6.446   0.112 -0.9171 -1.4968 -1.7816
  158MOL   H10241236   7.859   6.472   0.146  0.5540 -0.5359 -1.3450
  158MOL   H10341237   0.099   6.591   0.206  0.0119 -0.8571  1.1481
  158MOL   H10441238   0.129   6.211   0.363  1.2683  1.4707 -0.0627
  158MOL   H10541239   0.116   6.221   0.197 -0.7174  2.1334 -1.5290
  158MOL   C10641240   7.804   6.221   0.295 -0.4582  1.1963  0.2323
  158MOL   C10741241   7.786   6.073   0.283 -0.3130 -0.5465 -0.2464
  158MOL   C10841242   7.673   6.014   0.235 -1.0406  0.3195 -0.5237
  158MOL   C10941243   7.543   6.082   0.191 -0.4599  0.4071 -0.5337
  158MOL   C11041244   7.666   5.858   0.230  0.2837  0.1677  0.2576
  158MOL   H11141245   7.742   6.267   0.218  1.6487  1.5549 -1.3075
  158MOL   H11241246   7.753   6.267   0.380  0.7096  1.3395  0.8703
  158MOL   H11341247   7.863   6.011   0.327 -1.8052 -2.8104 -0.7714
  158MOL   H11441248   7.487   6.096   0.284  2.1168  0.2742  1.0992
  158MOL   H11541249   7.564   6.178   0.143  1.9453 -0.3425 -1.0520
  158MOL   H11641250   7.487   6.024   0.118 -0.6285 -0.4255  0.2495
  158MOL   H11741251   7.765   5.813   0.227  0.3243  0.3730 -1.9273
  158MOL   H11841252   7.617   5.825   0.139  1.0784 -0.7467  0.1557
  158MOL   C11941253   7.606   5.801   0.369 -0.3100  0.0477  0.1554
  158MOL   C12041254   7.632   5.652   0.379  0.2185 -0.0014 -0.6080
  158MOL   C12141255   7.536   5.556   0.401  0.2138 -0.2129  0.0828
  158MOL   C12241256   7.583   5.414   0.412  0.2409  0.5132 -0.3638
  158MOL   C12341257   7.389   5.566   0.408 -0.1730 -0.0593  0.1718
  158MOL   H12441258   7.499   5.822   0.361 -0.6031 -1.7725 -0.9150
  158MOL   H12541259   7.651   5.839   0.460 -0.4060  0.4968  0.0199
  158MOL   H12641260   7.738   5.629   0.378  0.9588  3.0296  0.8841
  158MOL   H12741261   7.554   5.380   0.511  1.0031 -1.3587 -0.7589
  158MOL   H12841262   7.692   5.412   0.405  0.2149  0.3346 -0.7394
  158MOL   H12941263   7.544   5.350   0.333 -0.3852 -2.0254  1.9218
  158MOL   H13041264   7.352   5.463   0.402  0.8610 -0.3435 -1.5037
  158MOL   H13141265   7.338   5.624   0.332 -0.9313  0.6659  1.2138
  158MOL   C13241266   7.351   5.612   0.552  0.4183 -0.5683 -0.2239
  158MOL   C13341267   7.367   5.512   0.666  0.1076 -0.0934 -0.5759
  158MOL   C13441268   7.272   5.437   0.726 -0.3291  0.4865  0.6168
  158MOL   C13541269   7.311   5.341   0.839  0.0184 -0.0195  0.6809
  158MOL   C13641270   7.126   5.443   0.676 -0.3589 -0.2572  0.5575
  158MOL   H13741271   7.251   5.655   0.546  0.6823  0.1459  0.4457
  158MOL   H13841272   7.423   5.687   0.583  2.4074 -2.9136  1.0042
  158MOL   H13941273   7.470   5.499   0.695  0.5722 -0.2421 -2.2041
  158MOL   H14041274   7.393   5.394   0.887 -0.9066  1.1395  1.0028
  158MOL   H14141275   7.343   5.239   0.817 -0.6591 -0.1714  0.3691
  158MOL   H14241276   7.234   5.341   0.916 -0.2809  1.6625  0.3913
  158MOL   H14341277   7.119   5.520   0.599 -1.1023 -2.2506 -1.4330
  158MOL   H14441278   7.061   5.458   0.762  1.5544 -1.3266  2.2206
  158MOL   C14541279   7.089   5.318   0.601  0.4506 -0.2724 -0.2332
  158MOL   C14641280   6.966   5.335   0.513  0.1549  0.0733 -0.0274
  158MOL   C14741281   6.927   5.257   0.414  0.0000 -0.2444 -0.2335
  158MOL   C14841282   6.794   5.290   0.341  0.1765  0.0621  0.0008
  158MOL   C14941283   7.000   5.134   0.376 -0.5193  0.2401 -0.0452
  158MOL   H15041284   7.079   5.237   0.673  2.0955  2.6407  3.5003
  158MOL   H15141285   7.174   5.289   0.539  1.6607 -1.5710  1.9687
  158MOL   H15241286   6.903   5.419   0.539  0.0207  0.1117 -0.4601
  158MOL   H15341287   6.731   5.369   0.380  0.7969  1.0882 -1.0376
  158MOL   H15441288   6.724   5.207   0.347  1.0039 -0.7153 -0.7866
  158MOL   H15541289   6.817   5.306   0.235 -0.2218  1.8236  0.1708
  158MOL   H15641290   7.107   5.133   0.395 -0.3000 -1.3307 -1.2664
  158MOL   H15741291   6.987   5.130   0.268 -0.0550  1.5504 -0.1563
  158MOL   C15841292   6.949   5.006   0.443  0.5654 -0.8372 -0.1339
  158MOL   C15941293   6.995   4.884   0.361  1.0169 -0.6541  0.1696
  158MOL   C16041294   7.044   4.766   0.405  0.1561 -0.0866 -0.0624
  158MOL   C16141295   7.064   4.736   0.550  0.5864  0.5998 -0.4165
  158MOL   C16241296   7.066   4.642   0.313 -0.1768  0.0934 -0.7456
  158MOL   H16341297   6.840   5.005   0.444  0.5628 -0.6591 -0.2806
  158MOL   H16441298   6.993   5.010   0.543  1.3563  1.7788 -0.5408
  158MOL   H16541299   6.964   4.897   0.258 -0.8918 -0.0144  0.8164
  158MOL   H16641300   6.981   4.784   0.603 -0.8857 -2.2734 -0.0222
  158MOL   H16741301   7.151   4.779   0.600 -1.2291  1.9410  1.6913
  158MOL   H16841302   7.070   4.628   0.562 -0.2812  0.6027  0.0922
  158MOL   H16941303   6.987   4.569   0.331  0.2437 -0.4293 -0.9763
  158MOL   H17041304   7.153   4.587   0.349 -1.4491 -0.5178  1.4734
  158MOL   C17141305   7.069   4.671   0.166  0.0838  0.1056  0.3343
  158MOL   C17241306   7.089   4.545   0.082 -0.2609  0.2692  0.3761
  158MOL   C17341307   6.992   4.466   0.027  0.4775 -0.5986  1.3395
  158MOL   C17441308   6.846   4.496   0.042 -1.4261 -0.0357  0.0156
  158MOL   C17541309   7.017   4.335   7.822 -0.2955 -0.0008  0.0559
  158MOL   H17641310   7.153   4.736   0.140 -0.7471  1.2131  0.4010
  158MOL   H17741311   6.980   4.722   0.129 -0.1645 -0.4234  0.1886
  158MOL   H17841312   7.192   4.511   0.080 -0.8842 -1.6599 -0.1497
  158MOL   H17941313   6.831   4.604   0.037  0.2182  0.3828  3.0152
  158MOL   H18041314   6.794   4.446   0.124  0.1217  0.0768  1.0749
  158MOL   H18141315   6.799   4.451   7.834  0.7420 -0.5273 -0.9296
  158MOL   H18241316   6.936   4.319   7.751 -0.1943 -1.9853  0.3631
  158MOL   H18341317   7.013   4.250   0.011 -0.5502 -0.5701 -0.6723
  158MOL   C18441318   7.156   4.336   7.745 -0.2478  0.3383  0.0043
  158MOL   C18541319   7.184   4.200   7.679 -0.2721 -0.4445  0.0599
  158MOL   C18641320   7.282   4.178   7.591 -0.7659 -0.4345 -0.4130
  158MOL   C18741321   7.337   4.038   7.565 -0.1024 -0.0905 -0.2800
  158MOL   C18841322   7.369   4.289   7.521 -0.8401  0.4879 -0.1612
  158MOL   H18941323   7.238   4.352   7.815  0.8547 -1.4063 -0.8577
  158MOL   H19041324   7.151   4.416   7.672  1.8165  1.3320  0.9166
  158MOL   H19141325   7.135   4.111   7.717 -1.7581  0.8457  1.2121
  158MOL   H19241326   7.352   4.027   7.458  2.2500  2.9451 -0.3326
  158MOL   H19341327   7.268   3.965   7.606  1.4715 -0.5518  1.6436
  158MOL   H19441328   7.430   4.025   7.622  0.7291  1.1333 -1.3201
  158MOL   H19541329   7.475   4.268   7.510 -1.1440 -0.8780 -0.5407
  158MOL   H19641330   7.354   4.381   7.578 -0.3565 -0.9298  2.3233
  158MOL   C19741331   7.324   4.318   7.378 -0.7031  0.4441  0.6304
  158MOL   C19841332   7.415   4.422   7.311  1.4779  0.0808  0.7350
  158MOL   C19941333   7.430   4.445   7.181 -0.5136 -0.6510  0.4706
  158MOL   C20041334   7.519   4.549   7.129  0.7013 -0.0185  0.2296
  158MOL   C20141335   7.364   4.363   7.084 -0.0778 -0.1476  0.4006
  158MOL   H20241336   7.224   4.359   7.378  0.7922  4.2600 -0.3966
  158MOL   H20341337   7.325   4.226   7.319  0.5149  0.1940  1.0281
  158MOL   H20441338   7.454   4.493   7.383 -0.6233  3.0271 -0.9100
  158MOL   H20541339   7.624   4.535   7.153  0.0648 -1.8016  2.0572
  158MOL   H20641340   7.493   4.645   7.173  1.8787  0.0231  0.8551
  158MOL   H20741341   7.504   4.556   7.021  0.3122  0.9338  0.3405
  158MOL   H20841342   7.345   4.427   6.998  0.2492 -0.1195  0.3511
  158MOL   H20941343   7.268   4.332   7.126  0.3821  1.0757  2.4408
  158MOL   C21041344   7.462   4.255   7.035  0.2548 -0.3244  0.1238
  158MOL   C21141345   7.395   4.171   6.931  0.3166  0.6446  0.4665
  158MOL   C21241346   7.410   4.172   6.793  0.3753  0.2617  0.3155
  158MOL   C21341347   7.315   4.100   6.703  0.3662  0.4688 -0.0418
  158MOL   C21441348   7.513   4.261   6.730 -0.0493  0.4403  0.4620
  158MOL   H21541349   7.485   4.192   7.121 -2.4563  1.2941  2.1517
  158MOL   H21641350   7.551   4.300   6.992 -0.4763  1.7257  0.6966
  158MOL   H21741351   7.308   4.121   6.971  2.1375 -1.3563  2.0374
  158MOL   H21841352   7.359   4.047   6.618 -1.9390 -0.2924 -0.7764
  158MOL   H21941353   7.242   4.168   6.660  0.1570 -0.0409 -0.4890
  158MOL   H22041354   7.295   4.019   6.772  0.2349  1.2477  0.8481
  158MOL   H22141355   7.543   4.217   6.635  3.9159 -1.4154  2.4670
  158MOL   H22241356   7.606   4.265   6.787 -0.0980 -2.0482  0.7369
  158MOL   C22341357   7.465   4.401   6.707 -0.0074 -0.3545  0.1828
  158MOL   C22441358   7.541   4.470   6.602 -0.8494  0.3345  0.3970
  158MOL   C22541359   7.535   4.599   6.560  0.5900  0.6585 -0.5921
  158MOL   C22641360   7.620   4.632   6.437 -0.0113 -0.3630 -0.2618
  158MOL   C22741361   7.453   4.709   6.613 -0.4396  0.4851 -0.0675
  158MOL   H22841362   7.457   4.466   6.793  1.3627  0.2663 -0.1338
  158MOL   H22941363   7.363   4.402   6.668 -0.3512 -2.1342  0.9819
  158MOL   H23041364   7.604   4.405   6.543 -1.9332  1.3313 -1.9283
  158MOL   H23141365   7.543   4.631   6.360 -0.1387  0.8520 -0.1714
  158MOL   H23241366   7.698   4.560   6.413 -0.3501 -1.6795  2.4311
  158MOL   H23341367   7.664   4.732   6.442 -0.8635  0.0082 -0.0708
  158MOL   H23441368   7.368   4.666   6.666  1.3758  1.8733  4.1201
  158MOL   H23541369   7.403   4.769   6.537 -0.5214  0.2457 -0.2056
  158MOL   C23641370   7.522   4.803   6.712 -0.3836 -0.0382 -0.1983
  158MOL   C23741371   7.423   4.906   6.778  0.1121  0.6972  0.0156
  158MOL   C23841372   7.458   5.010   6.857  0.1618 -0.1857 -0.6217
  158MOL   C23941373   7.348   5.110   6.907 -0.0275 -0.0112 -0.4896
  158MOL   C24041374   7.599   5.039   6.904  0.1935  0.5762  0.3437
  158MOL   H24141375   7.594   4.861   6.654 -0.9305  0.0322 -0.8080
  158MOL   H24241376   7.584   4.744   6.781 -0.2291  1.2685  0.8032
  158MOL   H24341377   7.320   4.886   6.753  0.9183 -2.0503 -1.3221
  158MOL   H24441378   7.372   5.209   6.869  0.5837 -0.0229 -0.1341
  158MOL   H24541379   7.343   5.097   7.015  1.3639 -2.1531 -0.6539
  158MOL   H24641380   7.252   5.083   6.861 -0.1095 -1.6012  0.5793
  158MOL   H24741381   7.660   4.949   6.901  0.5817  0.8878 -1.3400
  158MOL   H24841382   7.600   5.062   7.011 -0.9012 -2.5751  1.0905
  158MOL   C24941383   7.669   5.145   6.822 -0.4827 -0.1477  0.3795
  158MOL   C25041384   7.638   5.286   6.879  0.1436  0.3122 -0.4256
  158MOL   C25141385   7.587   5.392   6.823 -0.4056  0.5407 -0.2995
  158MOL   C25241386   7.552   5.515   6.910  0.3085  0.0963  0.0602
  158MOL   C25341387   7.527   5.389   6.686  0.2210 -0.5671 -0.3680
  158MOL   H25441388   7.631   5.142   6.720 -1.0148 -0.1201  0.5721
  158MOL   H25541389   7.772   5.112   6.831  0.1242  1.2647 -1.1094
  158MOL   H25641390   7.664   5.298   6.984  0.5830 -2.7087 -0.1350
  158MOL   H25741391   7.602   5.491   7.004 -0.2855  1.6314  0.7911
  158MOL   H25841392   7.443   5.521   6.914  0.1752 -1.1243 -1.3181
  158MOL   H25941393   7.584   5.611   6.868 -2.4202  1.4614  0.9573
  158MOL   H26041394   7.590   5.334   6.615 -0.1458 -0.4005 -0.8230
  158MOL   H26141395   7.514   5.485   6.637  0.9628 -0.0085  0.5164
  158MOL   H26241396   7.433   5.334   6.676 -0.3696  0.4949 -0.6814
  159MOL     C141397   0.125   1.056   0.707  0.0482 -0.2939  0.5204
  159MOL     C241398   0.078   1.040   0.564  0.3506 -0.6230 -0.4135
  159MOL     C341399   7.850   0.974   0.519  0.1210  0.3127  0.7663
  159MOL     C441400   7.826   0.971   0.370  0.1359 -0.0231  0.3756
  159MOL     C541401   7.756   0.887   0.606 -0.8109  0.1819 -0.0233
  159MOL     H641402   0.042   1.020   0.767 -1.9271 -1.4874 -2.7670
  159MOL     H741403   0.213   0.996   0.730 -0.3531 -0.6481  1.1446
  159MOL     H841404   0.144   1.077   0.487 -0.3915 -2.4054 -1.9346
  159MOL     H941405   7.749   0.898   0.348  1.1356 -0.8946 -0.2714
  159MOL    H1041406   0.041   0.959   0.315 -0.3513  1.4655 -0.8347
  159MOL    H1141407   7.806   1.066   0.320  0.5754 -1.1435 -2.0234
  159MOL    H1241408   7.665   0.872   0.548 -0.3739 -0.9121 -0.4467
  159MOL    H1341409   7.718   0.942   0.691 -0.2287  2.0816 -0.9696
  159MOL    H1441410   0.149   1.160   0.729 -2.3870  1.0036 -2.5883
  159MOL    C1541411   7.819   0.757   0.659 -1.3610 -0.3716 -0.6876
  159MOL    C1641412   7.730   0.676   0.754 -0.2336 -0.1531 -0.4738
  159MOL    C1741413   7.778   0.604   0.862 -0.3615  0.3573 -0.7015
  159MOL    C1841414   7.677   0.555   0.965  0.2625 -0.7652 -0.3879
  159MOL    C1941415   0.047   0.573   0.892  0.1700 -0.2697 -0.2991
  159MOL    H2041416   0.033   0.780   0.710 -1.3403 -0.0381 -0.8732
  159MOL    H2141417   7.856   0.688   0.583  3.2081 -0.7170  1.7019
  159MOL    H2241418   7.626   0.701   0.743 -0.6687 -0.7265  2.0306
  159MOL    H2341419   7.672   0.446   0.970 -0.6264 -0.6657  1.1849
  159MOL    H2441420   7.573   0.576   0.940  0.5750 -0.2267 -1.2496
  159MOL    H2541421   7.704   0.593   1.063  0.1714 -0.3785 -0.5101
  159MOL    H2641422   0.079   0.639   0.973 -1.4903 -1.8488  1.6942
  159MOL    H2741423   0.109   0.582   0.803  1.9799 -2.0167  0.7568
  159MOL    C2841424   0.062   0.428   0.941  0.6585 -0.4588  1.2206
  159MOL    C2941425   0.195   0.386   1.003  0.5565 -0.2409 -0.3139
  159MOL    C3041426   0.253   0.263   0.993 -0.2384 -0.4937  0.1927
  159MOL    C3141427   0.381   0.232   1.066  0.3789 -0.4350  0.4030
  159MOL    C3241428   0.187   0.150   0.920 -0.5940  0.0929 -0.6301
  159MOL    H3341429   0.040   0.369   0.852  0.4150 -1.3605  1.8746
  159MOL    H3441430   7.864   0.414   1.017 -0.3115  1.3499  0.5932
  159MOL    H3541431   0.238   0.458   1.070 -0.2948 -0.5192  0.5348
  159MOL    H3641432   0.476   0.258   1.019  1.9137 -1.8494  2.6319
  159MOL    H3741433   0.389   0.123   1.071  2.5878 -0.2588  1.2163
  159MOL    H3841434   0.390   0.273   1.167  0.2812  2.2917 -0.6699
  159MOL    H3941435   0.269   0.096   0.873 -0.8251 -0.3088 -0.5724
  159MOL    H4041436   0.134   0.191   0.835  0.1858  4.3031  0.7901
  159MOL    C4141437   0.119   0.048   1.006 -0.2818 -0.3710  0.4954
  159MOL    C4241438   0.075   7.817   0.917 -0.1372  0.1863 -0.0759
  159MOL    C4341439   0.098   7.683   0.929 -0.9067 -1.0641 -0.2804
  159MOL    C4441440   0.035   7.577   0.840  0.0468  0.2215 -0.0535
  159MOL    C4541441   0.188   7.627   1.031  0.1602  0.2001  0.3634
  159MOL    H4641442   0.033   0.076   1.067  0.1672  2.7300 -0.1856
  159MOL    H4741443   0.190   0.025   1.085 -0.8065 -1.6064  0.6159
  159MOL    H4841444   0.011   7.850   0.837 -0.4157 -0.8822 -0.3109
  159MOL    H4941445   7.868   7.622   0.752 -2.0926 -0.1800  0.8409
  159MOL    H5041446   7.838   7.529   0.901  1.5555 -0.0003  1.6852
  159MOL    H5141447   0.098   7.498   0.797  0.6819 -0.0224  1.3014
  159MOL    H5241448   0.168   7.520   1.040  1.7230 -0.0581  0.8908
  159MOL    H5341449   0.158   7.666   1.128 -0.9831 -0.5799  0.3393
  159MOL    C5441450   0.337   7.637   0.991 -0.0963  0.2991  0.3952
  159MOL    C5541451   0.435   7.561   1.068 -0.1956  0.4187  0.2430
  159MOL    C5641452   0.573   7.583   1.080  0.1453  0.5424 -0.0998
  159MOL    C5741453   0.660   7.492   1.168 -0.0759 -0.0719 -0.3037
  159MOL    C5841454   0.643   7.704   1.030  0.2328 -0.3419 -0.3622
  159MOL    H5941455   0.357   7.744   0.983 -0.2973  0.3305  0.3003
  159MOL    H6041456   0.343   7.602   0.888 -0.5292  1.3537  0.0030
  159MOL    H6141457   0.397   7.466   1.102  1.0035 -0.4692 -0.8773
  159MOL    H6241458   0.668   7.533   1.269  0.8680 -0.2292 -0.3103
  159MOL    H6341459   0.758   7.487   1.120 -0.2105 -1.9093 -0.4244
  159MOL    H6441460   0.619   7.392   1.179  0.5530 -0.2596  0.3169
  159MOL    H6541461   0.585   7.762   0.957  0.5024  1.1270  0.5625
  159MOL    H6641462   0.735   7.674   0.979  1.1333  1.4897  0.1316
  159MOL    C6741463   0.692   7.799   1.140  0.2629  0.0433  0.3805
  159MOL    C6841464   0.771   0.036   1.095  0.4970 -0.0675 -0.0146
  159MOL    C6941465   0.893   0.063   1.141  0.1998  0.4244  0.0576
  159MOL    C7041466   0.967   0.182   1.091 -0.4918  0.4788 -0.4630
  159MOL    C7141467   0.979   7.845   1.235 -0.9500 -0.3564  0.2754
  159MOL    H7241468   0.733   7.725   1.209 -1.5291 -0.0784  1.3459
  159MOL    H7341469   0.607   7.841   1.195 -0.0642  0.1207 -0.1774
  159MOL    H7441470   0.727   0.097   1.018 -0.4612  2.2862  2.3014
  159MOL    H7541471   1.011   0.223   1.182 -0.2837  0.6698 -0.6494
  159MOL    H7641472   0.889   0.253   1.063  1.2194  2.6139  0.1262
  159MOL    H7741473   1.029   0.159   1.005 -2.1379 -0.2467 -1.4952
  159MOL    H7841474   0.918   7.771   1.287  0.0821 -0.6398  1.0958
  159MOL    H7941475   1.034   0.022   1.310 -0.4473  0.5325 -0.7409
  159MOL    C8041476   1.069   7.762   1.142  0.1824 -0.6863  0.2080
  159MOL    C8141477   1.162   7.672   1.220 -0.7316  0.5848 -0.0471
  159MOL    C8241478   1.169   7.540   1.221  0.2348  0.8591  0.0505
  159MOL    C8341479   1.070   7.448   1.150 -0.6233 -0.3593  0.2925
  159MOL    C8441480   1.275   7.465   1.308 -0.2177 -0.3880  0.4709
  159MOL    H8541481   1.133   7.819   1.074  0.5759 -2.0692 -0.6230
  159MOL    H8641482   1.013   7.704   1.069 -0.8850  1.9993 -1.1575
  159MOL    H8741483   1.240   7.725   1.272 -0.0192  1.4853 -1.9647
  159MOL    H8841484   1.004   7.499   1.080  0.9716  1.3767 -0.0044
  159MOL    H8941485   1.004   7.395   1.219 -2.3737  0.0077 -1.0658
  159MOL    H9041486   1.117   7.376   1.083  0.4259  0.1600  0.4646
  159MOL    H9141487   1.373   7.505   1.281 -0.6916 -0.5068 -1.5130
  159MOL    H9241488   1.282   7.358   1.289  1.2447  0.1299 -2.1361
  159MOL    C9341489   1.246   7.501   1.453 -0.1474  0.1098  0.1566
  159MOL    C9441490   1.342   7.434   1.550 -0.1940 -0.0494  0.7557
  159MOL    C9541491   1.458   7.479   1.593 -0.7509  0.3121  0.9996
  159MOL    C9641492   1.546   7.416   1.700  0.4085  0.2554  0.1034
  159MOL    C9741493   1.520   7.607   1.541 -0.3826  0.3290 -0.1893
  159MOL    H9841494   1.143   7.466   1.469  0.2860 -0.4663  1.7905
  159MOL    H9941495   1.242   7.609   1.465 -0.7381 -0.0020  1.0773
  159MOL   H10041496   1.318   7.333   1.581  0.3493  0.0049  1.3661
  159MOL   H10141497   1.495   7.331   1.746 -0.1172  0.8559  0.6357
  159MOL   H10241498   1.636   7.378   1.651 -2.0268 -3.1156 -1.9561
  159MOL   H10341499   1.555   7.488   1.781  2.1234  1.0859 -0.7989
  159MOL   H10441500   1.516   7.618   1.433 -3.2170 -0.8815 -0.2456
  159MOL   H10541501   1.628   7.606   1.554 -0.3718  4.2799  0.7985
  159MOL   C10641502   1.468   7.729   1.622 -0.4925 -1.3903 -0.4306
  159MOL   C10741503   1.534   7.871   1.596  0.4878  0.6686 -0.6849
  159MOL   C10841504   1.639   0.036   1.666  0.2765  0.2759  0.7383
  159MOL   C10941505   1.717   7.831   1.766 -0.3661 -0.7205 -0.4936
  159MOL   C11041506   1.684   0.178   1.648  0.1797  0.3128  0.2627
  159MOL   H11141507   1.473   7.714   1.730 -1.2686  4.9771  0.6373
  159MOL   H11241508   1.361   7.744   1.614 -0.5066 -1.6801 -0.8304
  159MOL   H11341509   1.471   0.064   1.545 -0.2023  1.3139  1.0310
  159MOL   H11441510   1.637   7.797   1.832  0.9169 -1.7650  0.5542
  159MOL   H11541511   1.765   7.743   1.724  0.9473  0.9924 -2.7040
  159MOL   H11641512   1.793   0.010   1.819 -0.1039 -0.5652 -1.0302
  159MOL   H11741513   1.675   0.202   1.542  1.6277  0.2403  0.1236
  159MOL   H11841514   1.790   0.186   1.673  0.1811  1.1973 -0.0007
  159MOL   C11941515   1.616   0.281   1.734 -0.0175  0.8360  0.3150
  159MOL   C12041516   1.663   0.426   1.713  0.3322 -0.3038 -0.0939
  159MOL   C12141517   1.736   0.496   1.797  0.5904 -0.2588  0.3746
  159MOL   C12241518   1.784   0.634   1.759 -0.3670 -0.1517 -0.0087
  159MOL   C12341519   1.794   0.439   1.926 -0.1112  0.8652 -0.1502
  159MOL   H12441520   1.614   0.241   1.835 -0.9797 -1.0223 -0.4224
  159MOL   H12541521   1.509   0.279   1.711  0.0945 -1.2896 -0.1269
  159MOL   H12641522   1.627   0.469   1.621  0.5939 -0.8809 -0.4736
  159MOL   H12741523   1.892   0.635   1.772 -0.5134 -1.7825  1.4357
  159MOL   H12841524   1.733   0.716   1.810  2.0270  2.1580 -1.2114
  159MOL   H12941525   1.766   0.647   1.652  0.6740 -0.1978 -0.1893
  159MOL   H13041526   1.715   0.392   1.985  0.5999  0.0135  0.1405
  159MOL   H13141527   1.834   0.525   1.979 -1.6967  1.6539 -0.2194
  159MOL   C13241528   1.901   0.331   1.907 -0.0707  0.1444  0.3253
  159MOL   C13341529   1.967   0.303   2.042 -0.4079  0.4795 -0.2687
  159MOL   C13441530   2.086   0.332   2.093 -0.5672  0.1876 -0.3033
  159MOL   C13541531   2.118   0.288   2.238 -0.5806 -0.0933  0.0807
  159MOL   C13641532   2.200   0.398   2.011  0.1060  0.8752  0.2050
  159MOL   H13741533   1.979   0.357   1.836 -0.4546  1.9896  0.5338
  159MOL   H13841534   1.860   0.234   1.880  0.2874  0.3406 -0.9413
  159MOL   H13941535   1.891   0.254   2.102  0.2440  0.2207  0.3538
  159MOL   H14041536   2.169   0.375   2.281 -0.5602  0.0705 -0.2734
  159MOL   H14141537   2.183   0.202   2.249  0.5280  1.0094  2.5447
  159MOL   H14241538   2.022   0.271   2.287 -0.2405  2.1578  1.6163
  159MOL   H14341539   2.212   0.498   2.052 -0.2064  0.1045  2.2664
  159MOL   H14441540   2.158   0.408   1.911 -1.0747 -1.3886  0.4299
  159MOL   C14541541   2.324   0.309   2.009 -0.4329 -0.2754 -0.2612
  159MOL   C14641542   2.424   0.370   1.914  0.2115 -0.5357 -0.4040
  159MOL   C14741543   2.480   0.322   1.797 -0.5627  0.1082  0.0613
  159MOL   C14841544   2.576   0.409   1.722  0.0878 -0.2125  0.0328
  159MOL   C14941545   2.447   0.187   1.733 -0.7950 -0.1348 -0.6203
  159MOL   H15041546   2.287   0.212   1.976  0.5437 -0.9601  0.6251
  159MOL   H15141547   2.374   0.287   2.103 -0.2793 -0.3356 -0.3582
  159MOL   H15241548   2.455   0.468   1.949 -1.9354  0.0546 -0.1080
  159MOL   H15341549   2.607   0.497   1.780 -0.1183 -0.9308  1.2493
  159MOL   H15441550   2.552   0.436   1.619 -1.3730 -1.1139  0.1185
  159MOL   H15541551   2.666   0.348   1.717  0.0041 -0.2329 -1.6083
  159MOL   H15641552   2.390   0.129   1.806  1.9063 -0.8221  1.0119
  159MOL   H15741553   2.532   0.124   1.707 -0.8755 -0.6018  0.2072
  159MOL   C15841554   2.359   0.208   1.608 -0.1319 -0.1637  0.8930
  159MOL   C15941555   2.323   0.066   1.548  0.2176 -0.2049 -0.6657
  159MOL   C16041556   2.203   0.006   1.551 -0.5245 -0.4306 -0.0288
  159MOL   C16141557   2.092   0.065   1.628 -0.3472  0.0476 -0.7787
  159MOL   C16241558   2.182   7.743   1.497 -0.0722 -0.4650  0.1215
  159MOL   H16341559   2.412   0.267   1.533  0.3297 -1.6351  0.0399
  159MOL   H16441560   2.269   0.262   1.638 -1.7071 -0.4967 -2.9421
  159MOL   H16541561   2.407   0.018   1.498  0.7240  0.7648 -0.7545
  159MOL   H16641562   2.124   0.115   1.719  0.4101 -0.6958 -0.6299
  159MOL   H16741563   2.019   7.868   1.656  2.3673 -2.5452 -0.5251
  159MOL   H16841564   2.027   0.131   1.569 -0.9597  0.6577  0.5522
  159MOL   H16941565   2.250   7.721   1.415 -0.5965 -2.2190  0.1215
  159MOL   H17041566   2.082   7.738   1.454  0.5088 -1.5097 -1.1362
  159MOL   C17141567   2.182   7.638   1.603  0.2773  0.5427 -0.0174
  159MOL   C17241568   2.155   7.507   1.535 -0.1107 -0.2813  0.7570
  159MOL   C17341569   2.035   7.444   1.521 -0.1454  0.1890 -0.4939
  159MOL   C17441570   1.913   7.488   1.597  0.7131 -0.1649  0.4480
  159MOL   C17541571   2.017   7.327   1.423 -0.2132 -0.1162  0.3315
  159MOL   H17641572   2.110   7.670   1.678 -0.5454 -1.0202 -0.1155
  159MOL   H17741573   2.276   7.646   1.657 -0.1341 -0.9190  0.9358
  159MOL   H17841574   2.229   7.461   1.471  0.3866 -0.5719  1.5373
  159MOL   H17941575   1.847   7.547   1.533 -0.1449 -1.0561  0.4934
  159MOL   H18041576   1.940   7.550   1.683 -1.1261 -0.4333  1.2505
  159MOL   H18141577   1.860   7.401   1.636  1.3872 -0.6538  0.2814
  159MOL   H18241578   1.991   7.239   1.481 -2.8546  0.7819  0.5822
  159MOL   H18341579   2.108   7.308   1.366 -1.8586 -0.6269 -2.2039
  159MOL   C18441580   1.912   7.342   1.316  0.8308 -0.2770 -0.3484
  159MOL   C18541581   1.914   7.219   1.225  0.0214  0.0796  0.0158
  159MOL   C18641582   1.967   7.207   1.099 -0.0908 -0.1191  0.6280
  159MOL   C18741583   1.971   7.074   1.025  1.0435  0.0781  0.1929
  159MOL   C18841584   2.035   7.328   1.031  0.0733 -0.2184  0.1947
  159MOL   H18941585   1.954   7.426   1.262 -1.4082  0.6006 -0.7691
  159MOL   H19041586   1.814   7.373   1.353  0.4192  0.2205 -1.8103
  159MOL   H19141587   1.867   7.133   1.270 -0.3587  0.3318  0.0997
  159MOL   H19241588   1.952   6.993   1.096  0.0213  2.4727  2.7561
  159MOL   H19341589   2.068   7.058   0.979  0.6741  1.6655 -1.2076
  159MOL   H19441590   1.903   7.090   0.941  2.2532  2.3880 -0.3669
  159MOL   H19541591   1.989   7.424   1.057  0.9389 -0.0943  1.2900
  159MOL   H19641592   2.029   7.321   0.922  2.2871  2.0470 -0.1257
  159MOL   C19741593   2.189   7.331   1.056 -0.1564  0.8610 -0.3162
  159MOL   C19841594   2.251   7.462   1.008 -0.1683  0.7380  0.0573
  159MOL   C19941595   2.321   7.484   0.893  0.2039 -0.4419 -0.4689
  159MOL   C20041596   2.373   7.623   0.870 -0.6778 -0.6364 -0.2924
  159MOL   C20141597   2.337   7.389   0.776 -0.1104 -0.1431  0.0320
  159MOL   H20241598   2.239   7.247   1.007  0.2582  1.3322 -0.7114
  159MOL   H20341599   2.218   7.326   1.161 -1.8775  0.1768  0.1455
  159MOL   H20441600   2.229   7.544   1.075 -3.2021 -0.3779  0.4988
  159MOL   H20541601   2.481   7.618   0.884 -0.4157  1.6748 -1.2653
  159MOL   H20641602   2.347   7.695   0.947 -0.0291 -1.0978  0.3684
  159MOL   H20741603   2.337   7.656   0.773  0.8042  0.0489 -0.6334
  159MOL   H20841604   2.287   7.415   0.683 -0.2109 -1.2436 -0.2246
  159MOL   H20941605   2.297   7.290   0.801 -0.2954  0.3943  1.9641
  159MOL   C21041606   2.488   7.369   0.746 -0.6155 -0.1984  0.1345
  159MOL   C21141607   2.523   7.258   0.653  0.7663  0.9251  0.6014
  159MOL   C21241608   2.599   7.259   0.543  0.3473  0.8232  0.1214
  159MOL   C21341609   2.602   7.132   0.466  0.3472 -0.0303  0.0651
  159MOL   C21441610   2.693   7.373   0.485 -0.1579  0.3544 -0.0131
  159MOL   H21541611   2.537   7.345   0.840 -0.6360 -0.3428  0.1077
  159MOL   H21641612   2.533   7.465   0.718  0.9007 -0.6374  1.0772
  159MOL   H21741613   2.466   7.170   0.678  1.0247 -0.2401 -2.5808
  159MOL   H21841614   2.534   7.053   0.497  1.7378 -2.6202 -3.1050
  159MOL   H21941615   2.696   7.078   0.457  0.1834 -0.0369 -1.9237
  159MOL   H22041616   2.572   7.157   0.364  2.4564 -0.4742 -0.6813
  159MOL   H22141617   2.795   7.340   0.465 -0.4463 -0.5204 -0.0704
  159MOL   H22241618   2.710   7.444   0.566  1.4439 -0.0112 -0.0288
  159MOL   C22341619   2.628   7.429   0.362 -0.1110  0.9771 -0.7967
  159MOL   C22441620   2.704   7.553   0.321 -0.0617 -0.6197  0.4490
  159MOL   C22541621   2.682   7.677   0.369  0.0461 -0.1669 -0.0799
  159MOL   C22641622   2.748   7.800   0.312 -0.4547 -0.0283 -0.6733
  159MOL   C22741623   2.582   7.714   0.468  0.6709  0.1072  0.1903
  159MOL   H22841624   2.520   7.435   0.381 -0.4705 -1.2884 -1.9476
  159MOL   H22941625   2.621   7.351   0.286 -4.7025  0.4704 -0.0031
  159MOL   H23041626   2.775   7.558   0.239 -0.5194 -0.3812  0.0631
  159MOL   H23141627   2.735   0.008   0.377 -0.1526 -0.3473 -0.1723
  159MOL   H23241628   2.698   7.824   0.219 -0.0497 -2.7773 -1.6406
  159MOL   H23341629   2.854   7.787   0.291 -0.3238  1.6235 -1.0925
  159MOL   H23441630   2.617   7.786   0.542  1.9930  1.6765 -1.9274
  159MOL   H23541631   2.547   7.635   0.534  0.5965  0.5665  0.7042
  159MOL   C23641632   2.462   7.772   0.392 -0.0230  0.5878 -0.0721
  159MOL   C23741633   2.338   7.773   0.480 -0.0623  0.4391 -0.3209
  159MOL   C23841634   2.229   7.700   0.464  0.8921  0.3783 -0.2037
  159MOL   C23941635   2.101   7.715   0.555  0.2605  0.4528 -0.3718
  159MOL   C24041636   2.213   7.582   0.366  0.4759 -0.5372  0.3163
  159MOL   H24141637   2.427   7.721   0.303 -3.1167 -2.2974  2.6244
  159MOL   H24241638   2.489   7.872   0.358 -0.5392  0.5254 -0.6654
  159MOL   H24341639   2.344   7.847   0.558 -0.1652  0.4590 -0.3320
  159MOL   H24441640   2.090   7.635   0.628  0.6646  0.3235 -0.4559
  159MOL   H24541641   2.013   7.740   0.496  0.3865  0.4274 -0.5700
  159MOL   H24641642   2.132   7.795   0.623  1.8459 -1.0444  0.6863
  159MOL   H24741643   2.143   7.510   0.408 -0.2092  0.6382  1.2122
  159MOL   H24841644   2.306   7.531   0.338  0.5841 -1.1765  1.7898
  159MOL   C24941645   2.145   7.622   0.232  0.0503 -0.7347 -0.3231
  159MOL   C25041646   2.142   7.519   0.129  0.7585  0.2558  0.3120
  159MOL   C25141647   2.116   7.539   7.878 -0.1512 -0.1904  0.6476
  159MOL   C25241648   2.128   7.423   7.783 -0.3002  0.3510  0.4304
  159MOL   C25341649   2.100   7.672   7.816 -0.3410 -0.3554  0.8244
  159MOL   H25441650   2.192   7.709   0.187  0.4218  0.0520  1.5491
  159MOL   H25541651   2.042   7.637   0.265 -1.0648 -2.0568 -2.9701
  159MOL   H25641652   2.151   7.415   0.153  1.1786 -0.5583 -3.1247
  159MOL   H25741653   2.035   7.405   7.729 -0.8803  3.0708  0.4532
  159MOL   H25841654   2.156   7.331   7.834  0.8540 -0.3194 -1.3667
  159MOL   H25941655   2.202   7.448   7.706 -0.9988 -1.4123 -0.8388
  159MOL   H26041656   2.023   7.647   7.742  0.2960 -0.2438  0.1133
  159MOL   H26141657   2.193   7.697   7.765 -0.4303  1.1360  1.3647
  159MOL   H26241658   2.059   7.746   0.005  1.9876 -0.0373  1.8911
  160MOL     C141659   4.996   5.455   0.840 -0.2828 -0.2903  0.0048
  160MOL     C241660   4.930   5.428   0.709  1.2411 -0.1791 -0.5085
  160MOL     C341661   4.803   5.378   0.688  0.2958  0.0115 -0.6437
  160MOL     C441662   4.744   5.357   0.547  0.5503 -0.2248 -0.5268
  160MOL     C541663   4.721   5.325   0.802 -0.1384  0.0552 -0.5790
  160MOL     H641664   5.065   5.539   0.834  1.1110 -1.5135 -1.5512
  160MOL     H741665   4.914   5.483   0.906 -1.0449  2.1561 -1.8787
  160MOL     H841666   4.987   5.443   0.619  1.1417  0.4441 -0.4700
  160MOL     H941667   4.776   5.255   0.524  0.0338 -1.3273  3.2380
  160MOL    H1041668   4.782   5.424   0.470  2.0192  0.2709  0.6050
  160MOL    H1141669   4.635   5.358   0.554  0.4860 -0.9362 -1.3180
  160MOL    H1241670   4.784   5.311   0.890 -0.7861 -0.3071 -0.1670
  160MOL    H1341671   4.701   5.223   0.767 -2.7803  0.6107 -0.7615
  160MOL    H1441672   5.052   5.366   0.867 -2.0748 -1.1417  0.9681
  160MOL    C1541673   4.600   5.416   0.829 -0.3426 -0.1968 -0.3834
  160MOL    C1641674   4.488   5.342   0.904  0.4072  0.0595 -0.0252
  160MOL    C1741675   4.384   5.275   0.855  0.2917 -0.3649  0.1691
  160MOL    C1841676   4.277   5.237   0.951  0.1580 -0.0550 -0.5997
  160MOL    C1941677   4.358   5.239   0.709  0.7356 -0.1549 -0.5779
  160MOL    H2041678   4.560   5.470   0.743 -1.6621 -1.9582 -0.8956
  160MOL    H2141679   4.631   5.493   0.900  0.8463  1.0595 -2.2138
  160MOL    H2241680   4.494   5.361   1.010 -0.3848 -2.1963  0.4553
  160MOL    H2341681   4.233   5.144   0.917  0.1670  0.2955 -1.5990
  160MOL    H2441682   4.198   5.311   0.936  1.3856  1.2182 -0.8864
  160MOL    H2541683   4.320   5.244   1.051 -0.4927 -1.6444 -0.2016
  160MOL    H2641684   4.372   5.321   0.638 -2.3835  0.9146 -0.0249
  160MOL    H2741685   4.250   5.234   0.701  0.8193 -0.9164 -1.3604
  160MOL    C2841686   4.403   5.101   0.668  0.3505  0.0727 -0.1551
  160MOL    C2941687   4.386   5.090   0.519  0.8025 -0.5002 -0.7303
  160MOL    C3041688   4.346   4.983   0.447 -0.1451 -0.0710 -0.7221
  160MOL    C3141689   4.325   4.999   0.303 -0.0717  0.2083  0.0446
  160MOL    C3241690   4.319   4.846   0.519 -0.4292 -0.4607  0.6666
  160MOL    H3341691   4.353   5.021   0.723  0.4538 -0.0946 -0.3065
  160MOL    H3441692   4.507   5.081   0.692  0.1314 -0.1364  0.6159
  160MOL    H3541693   4.408   5.181   0.465  0.5641 -0.2288 -0.3703
  160MOL    H3641694   4.357   5.095   0.264  1.6869 -0.8164 -1.1158
  160MOL    H3741695   4.223   4.976   0.272  0.2595 -2.2639  0.6398
  160MOL    H3841696   4.392   4.930   0.251 -1.8222 -0.9685 -0.6916
  160MOL    H3941697   4.241   4.797   0.461 -0.9022  0.8392  0.1753
  160MOL    H4041698   4.272   4.862   0.616 -0.4766 -0.4847  0.6473
  160MOL    C4141699   4.448   4.756   0.520  0.5173 -0.0858  0.2446
  160MOL    C4241700   4.507   4.719   0.393 -0.4848 -0.5320 -0.2400
  160MOL    C4341701   4.625   4.765   0.344  0.1009  0.4469 -0.7514
  160MOL    C4441702   4.671   4.695   0.222 -0.7151  0.3592 -0.0258
  160MOL    C4541703   4.715   4.860   0.415 -0.3239 -0.2867 -0.1603
  160MOL    H4641704   4.411   4.671   0.579  0.5255 -0.0502  0.3009
  160MOL    H4741705   4.516   4.802   0.592  0.4466 -1.3430  1.1452
  160MOL    H4841706   4.449   4.640   0.347  0.4355 -1.6214  0.4377
  160MOL    H4941707   4.773   4.661   0.239 -1.0193 -0.8384 -0.5344
  160MOL    H5041708   4.660   4.763   0.137  0.3317  1.5204  0.7334
  160MOL    H5141709   4.620   4.601   0.204  0.9549 -0.5363 -0.2449
  160MOL    H5241710   4.651   4.940   0.451 -0.8741 -1.4973  1.6049
  160MOL    H5341711   4.787   4.916   0.355  0.6872 -1.5658 -0.1584
  160MOL    C5441712   4.796   4.790   0.534 -0.8801  0.5432  0.2378
  160MOL    C5541713   4.842   4.888   0.643 -0.0172  0.5474 -0.4880
  160MOL    C5641714   4.969   4.911   0.675  0.3490  0.0991  0.1689
  160MOL    C5741715   5.010   5.032   0.757 -0.6363  0.1942  0.4925
  160MOL    C5841716   5.076   4.850   0.602 -0.2852 -0.3559  0.0992
  160MOL    H5941717   4.877   4.737   0.484  0.0069  1.5746  0.5686
  160MOL    H6041718   4.722   4.723   0.578 -2.6748  3.7943  2.4040
  160MOL    H6141719   4.759   4.941   0.688 -0.9614  1.2484 -2.9523
  160MOL    H6241720   5.076   4.998   0.837  0.7211  0.1381 -0.6391
  160MOL    H6341721   4.921   5.074   0.805 -0.4019 -1.3934  2.4025
  160MOL    H6441722   5.063   5.109   0.701  1.2831 -0.9934  0.6143
  160MOL    H6541723   5.058   4.744   0.580 -1.3253 -0.2727  0.5013
  160MOL    H6641724   5.154   4.832   0.676  0.1547  0.5723 -0.1395
  160MOL    C6741725   5.102   4.920   0.465 -0.1150  0.5126 -1.0053
  160MOL    C6841726   5.170   5.061   0.470  0.4706  0.2667  0.1082
  160MOL    C6941727   5.129   5.173   0.413  0.0906 -0.5646  0.1007
  160MOL    C7041728   5.212   5.302   0.419  0.0093 -0.4851 -0.0173
  160MOL    C7141729   5.003   5.190   0.325  0.8339 -0.0412 -0.5750
  160MOL    H7241730   5.012   4.923   0.403 -0.0911  0.1631 -1.0558
  160MOL    H7341731   5.159   4.851   0.403 -0.8867 -0.1736 -0.9639
  160MOL    H7441732   5.262   5.078   0.523  0.9301  0.8746 -0.8698
  160MOL    H7541733   5.170   5.376   0.488 -1.9586 -0.6633 -1.0171
  160MOL    H7641734   5.202   5.353   0.323  1.0607 -2.0182 -0.9649
  160MOL    H7741735   5.317   5.281   0.438 -0.9115 -1.4401  4.5231
  160MOL    H7841736   4.957   5.288   0.341 -0.9821 -1.3401  2.6541
  160MOL    H7941737   4.932   5.117   0.364  0.1918  0.3076 -1.0811
  160MOL    C8041738   5.019   5.166   0.179  0.1921 -0.0069 -0.0227
  160MOL    C8141739   5.033   5.023   0.134 -0.1058  0.9070 -0.0203
  160MOL    C8241740   5.145   4.960   0.099 -0.8263 -0.8522  0.3702
  160MOL    C8341741   5.285   5.025   0.101  0.5772  0.2383 -0.4291
  160MOL    C8441742   5.152   4.817   0.032  0.2249  1.0082 -0.1382
  160MOL    H8541743   5.112   5.218   0.156  1.4359 -0.5436  3.5270
  160MOL    H8641744   4.939   5.209   0.117  0.1742 -1.2354 -0.8631
  160MOL    H8741745   4.940   4.970   0.133 -0.3437  1.3225 -1.1693
  160MOL    H8841746   5.287   5.128   0.137  1.7063  0.2649 -0.5512
  160MOL    H8941747   5.330   5.030   0.002  0.0692  3.7072 -0.5294
  160MOL    H9041748   5.347   4.960   0.164  0.0639  1.2207  1.1086
  160MOL    H9141749   5.226   4.755   0.083  0.3857  1.0804 -0.2863
  160MOL    H9241750   5.184   4.832   7.808 -2.4296 -1.1223 -1.3643
  160MOL    C9341751   5.027   4.727   0.038 -0.2939 -0.1877 -1.0812
  160MOL    C9441752   5.046   4.605   7.841  0.1860 -0.1416  0.0922
  160MOL    C9541753   5.058   4.482   0.018  0.2985  0.6721  0.8063
  160MOL    C9641754   5.048   4.365   7.799 -0.2666 -0.1950 -0.6655
  160MOL    C9741755   5.090   4.437   0.159  0.0711 -0.1035  0.9138
  160MOL    H9841756   4.939   4.779   0.002 -0.4824  0.9564  0.9453
  160MOL    H9941757   5.006   4.712   0.144  1.3423 -1.8353 -0.9616
  160MOL   H10041758   5.047   4.609   7.733  0.6701  1.6126  0.1371
  160MOL   H10141759   5.136   4.301   7.806 -1.5999 -2.1014 -1.2725
  160MOL   H10241760   4.962   4.307   7.831 -0.6019  0.3277 -0.6152
  160MOL   H10341761   5.038   4.400   7.696  1.6497  3.6694  0.3482
  160MOL   H10441762   5.095   4.523   0.227 -0.3258 -0.0078  0.8225
  160MOL   H10541763   5.188   4.390   0.155  1.2766  2.3414  0.5684
  160MOL   C10641764   4.998   4.333   0.212  0.1683 -0.5704  0.0729
  160MOL   C10741765   5.007   4.322   0.359 -0.6889 -0.8500  0.7771
  160MOL   C10841766   4.914   4.335   0.452 -0.1665 -0.5775 -0.0233
  160MOL   C10941767   4.773   4.384   0.423 -0.6532  0.0749  0.3161
  160MOL   C11041768   4.941   4.306   0.603 -0.2645 -0.7441 -0.2465
  160MOL   H11141769   5.022   4.241   0.159  0.1918  0.5207 -1.8474
  160MOL   H11241770   4.896   4.358   0.184  0.1670 -0.2424  0.3804
  160MOL   H11341771   5.105   4.294   0.393  0.7111  1.1086 -1.4896
  160MOL   H11441772   4.713   4.294   0.435  1.5036 -1.5261 -0.5247
  160MOL   H11541773   4.747   4.458   0.498  0.6690 -1.1214  2.0130
  160MOL   H11641774   4.764   4.420   0.320  0.6583 -1.6307 -0.4229
  160MOL   H11741775   4.921   4.401   0.652  0.0972 -0.6750 -0.2315
  160MOL   H11841776   5.048   4.286   0.613  0.2898  1.6220 -1.1777
  160MOL   C11941777   4.861   4.177   0.635  0.2487 -0.1040  0.0430
  160MOL   C12041778   4.888   4.151   0.782 -1.1516 -0.4687  0.2968
  160MOL   C12141779   4.794   4.138   0.877  0.1960  0.0276 -0.3524
  160MOL   C12241780   4.835   4.108   1.022  0.3343 -0.0948 -0.6936
  160MOL   C12341781   4.639   4.144   0.861 -0.4624  0.5856 -0.3264
  160MOL   H12441782   4.896   4.090   0.579 -0.4560  0.1488 -0.8110
  160MOL   H12541783   4.754   4.169   0.619  0.5504 -3.5355 -0.5497
  160MOL   H12641784   4.981   4.115   0.823 -1.0405 -1.6370 -0.9475
  160MOL   H12741785   4.944   4.105   1.034  0.0093 -1.9436  2.2395
  160MOL   H12841786   4.803   4.008   1.051  0.0766  0.1445 -0.1583
  160MOL   H12941787   4.782   4.176   1.088 -1.0581  0.1357 -2.0346
  160MOL   H13041788   4.592   4.055   0.903 -0.2800  0.5706 -0.1566
  160MOL   H13141789   4.618   4.138   0.754 -0.7846  1.1102 -0.2923
  160MOL   C13241790   4.560   4.255   0.933 -0.3867  0.2366 -0.0203
  160MOL   C13341791   4.583   4.391   0.873 -0.1688  0.0845  0.0307
  160MOL   C13441792   4.666   4.486   0.919 -0.6465  1.0675  0.3992
  160MOL   C13541793   4.668   4.617   0.849  0.1360 -0.0455  0.0308
  160MOL   C13641794   4.756   4.474   1.035  0.1511 -0.1587  0.7964
  160MOL   H13741795   4.567   4.257   1.042  0.6608  1.8250 -0.0988
  160MOL   H13841796   4.453   4.240   0.917 -0.4904  2.6035 -1.8624
  160MOL   H13941797   4.515   4.414   0.792  0.2675  0.6162 -0.1884
  160MOL   H14041798   4.697   4.598   0.746 -0.7050 -1.7856  0.0850
  160MOL   H14141799   4.725   4.698   0.894 -2.2534  1.4563  0.4371
  160MOL   H14241800   4.568   4.659   0.853  0.3513  0.6601 -1.7872
  160MOL   H14341801   4.738   4.380   1.086 -0.0275 -0.1169  0.8106
  160MOL   H14441802   4.735   4.563   1.095  0.1443  0.2455  0.2028
  160MOL   C14541803   4.904   4.473   0.996  0.3833  0.2307 -0.3329
  160MOL   C14641804   4.997   4.520   1.101  0.0868  0.7234 -0.0885
  160MOL   C14741805   5.047   4.639   1.121  0.2780 -0.3699 -0.1330
  160MOL   C14841806   5.145   4.670   1.236  0.6356 -0.6162 -0.3786
  160MOL   C14941807   5.026   4.765   1.042  0.2541 -0.2353  0.0427
  160MOL   H15041808   4.925   4.537   0.910  1.8737  0.5514  0.2723
  160MOL   H15141809   4.938   4.376   0.960  1.8418  0.8223 -0.5656
  160MOL   H15241810   5.030   4.441   1.167 -1.8506 -1.3510 -1.5515
  160MOL   H15341811   5.127   4.762   1.291 -2.1273 -0.7545 -0.9794
  160MOL   H15441812   5.242   4.674   1.185  0.6636 -2.3501 -0.4972
  160MOL   H15541813   5.142   4.587   1.306 -0.1988 -1.6236 -1.5880
  160MOL   H15641814   4.977   4.739   0.948 -1.3289 -0.7821  1.0168
  160MOL   H15741815   5.119   4.815   1.012  0.0486 -1.1175 -2.1888
  160MOL   C15841816   4.954   4.883   1.115  0.3407  0.3383  0.2925
  160MOL   C15941817   4.813   4.845   1.158 -0.1003 -0.6901 -0.1799
  160MOL   C16041818   4.704   4.922   1.136  0.4040  0.1694 -0.6116
  160MOL   C16141819   4.697   5.054   1.074 -0.0690 -0.4316  0.1990
  160MOL   C16241820   4.565   4.870   1.172 -0.1748  0.2361  0.3052
  160MOL   H16341821   4.929   4.946   1.029 -0.7612 -0.6775 -0.1492
  160MOL   H16441822   5.004   4.921   1.204  2.0416 -0.8233 -0.1313
  160MOL   H16541823   4.803   4.747   1.202 -0.0809 -0.8068 -0.4332
  160MOL   H16641824   4.669   5.039   0.969 -0.6330 -0.4164  0.3478
  160MOL   H16741825   4.791   5.109   1.076 -1.5669  2.2763 -0.5259
  160MOL   H16841826   4.624   5.128   1.107  0.6483 -0.1439  1.1594
  160MOL   H16941827   4.567   4.761   1.161  0.7104  0.1012  1.6639
  160MOL   H17041828   4.483   4.906   1.110  0.7884  0.0300 -1.1071
  160MOL   C17141829   4.527   4.884   1.326  0.1701  0.1955  0.8619
  160MOL   C17241830   4.396   4.814   1.365  0.1038 -0.7595  0.0015
  160MOL   C17341831   4.384   4.715   1.462 -0.5854  0.1970  0.6216
  160MOL   C17441832   4.516   4.638   1.505  0.2436  0.6262 -0.6149
  160MOL   C17541833   4.254   4.654   1.490  0.5519 -0.0870  0.0663
  160MOL   H17641834   4.522   4.989   1.353 -1.4086  0.3424  0.0362
  160MOL   H17741835   4.604   4.844   1.392  1.7808 -3.1848 -2.8821
  160MOL   H17841836   4.306   4.855   1.321  0.7111  0.4154 -0.1830
  160MOL   H17941837   4.592   4.623   1.429  0.4579  1.4070 -0.5671
  160MOL   H18041838   4.494   4.545   1.557  1.5837 -0.4542 -1.9509
  160MOL   H18141839   4.560   4.712   1.572 -0.6360  0.3878  0.2508
  160MOL   H18241840   4.181   4.723   1.448  2.4170  1.6914 -0.3376
  160MOL   H18341841   4.245   4.644   1.598  1.0787 -0.9506  0.0315
  160MOL   C18441842   4.240   4.511   1.429  0.5701  0.6066 -0.8047
  160MOL   C18541843   4.096   4.461   1.443  0.1854  0.3683  0.1218
  160MOL   C18641844   4.062   4.334   1.453 -0.1439  0.7146  0.1296
  160MOL   C18741845   3.917   4.300   1.473 -0.6262 -0.8761  0.2171
  160MOL   C18841846   4.157   4.220   1.447  0.0552 -0.7485  0.0212
  160MOL   H18941847   4.322   4.454   1.474 -0.5526 -0.3379  0.0778
  160MOL   H19041848   4.266   4.519   1.324 -0.9977  1.9345 -1.1020
  160MOL   H19141849   4.018   4.535   1.453  0.5464  0.8185 -0.3823
  160MOL   H19241850   3.881   4.228   1.399 -1.3505  0.5725 -0.8575
  160MOL   H19341851   3.851   4.386   1.464  0.5229  0.3960  3.3646
  160MOL   H19441852   3.896   4.263   1.573  0.2880  1.9361  1.4838
  160MOL   H19541853   4.242   4.243   1.384  0.0989  0.7874  0.6325
  160MOL   H19641854   4.109   4.140   1.390  1.6712  0.2074 -2.7720
  160MOL   C19741855   4.193   4.178   1.591  0.7389  0.2883 -0.0906
  160MOL   C19841856   4.280   4.050   1.591 -0.1940 -1.0604 -0.4319
  160MOL   C19941857   4.252   3.927   1.644 -0.2842 -0.1527  0.6247
  160MOL   C20041858   4.353   3.811   1.629 -0.0294  0.9022  0.4753
  160MOL   C20141859   4.122   3.888   1.706  0.8459 -0.2641 -0.4985
  160MOL   H20241860   4.106   4.163   1.654  0.7179 -0.3534 -0.2740
  160MOL   H20341861   4.256   4.257   1.632 -1.3033  1.8792  0.0332
  160MOL   H20441862   4.373   4.065   1.539 -0.1450 -1.8074 -0.5712
  160MOL   H20541863   4.401   3.786   1.724  1.9428  0.4626 -0.6067
  160MOL   H20641864   4.417   3.827   1.542 -0.9665 -1.7727 -0.7470
  160MOL   H20741865   4.306   3.724   1.585  0.8678  1.3909 -1.4904
  160MOL   H20841866   4.101   3.782   1.690 -0.9734 -0.0207  0.1583
  160MOL   H20941867   4.045   3.931   1.642  2.0437 -0.7880 -2.3161
  160MOL   C21041868   4.114   3.928   1.851 -0.4602  0.1346  0.1093
  160MOL   C21141869   3.985   3.875   1.908  0.1621 -0.7686 -0.2023
  160MOL   C21241870   3.866   3.931   1.902  0.2709  0.5966 -0.3195
  160MOL   C21341871   3.746   3.857   1.945  0.6988 -1.2896  0.4021
  160MOL   C21441872   3.844   4.069   1.839 -0.0071  0.1536  0.0607
  160MOL   H21541873   4.109   4.037   1.852  0.9429  0.2030  1.6740
  160MOL   H21641874   4.194   3.890   1.914 -0.3162  0.6947  0.2666
  160MOL   H21741875   3.992   3.782   1.962  2.2949 -0.2984  0.3679
  160MOL   H21841876   3.679   3.831   1.863 -0.8650 -0.2126  1.3151
  160MOL   H21941877   3.693   3.916   2.020  0.4159 -1.1809  0.1170
  160MOL   H22041878   3.784   3.767   1.992 -0.1102 -2.5910 -1.3700
  160MOL   H22141879   3.754   4.070   1.777  1.0110 -0.1347 -1.4649
  160MOL   H22241880   3.927   4.078   1.768 -0.5090 -1.8345 -0.8044
  160MOL   C22341881   3.816   4.183   1.931  0.4992  0.2110  0.0138
  160MOL   C22441882   3.813   4.318   1.868  0.9767  0.6780  0.5797
  160MOL   C22541883   3.705   4.395   1.841 -0.2610 -0.2760  0.2942
  160MOL   C22641884   3.723   4.532   1.769 -0.3601  0.4765  0.0748
  160MOL   C22741885   3.562   4.377   1.881  0.4013  0.8344 -0.1464
  160MOL   H22841886   3.867   4.178   2.027  1.3053 -0.2119 -0.4315
  160MOL   H22941887   3.714   4.164   1.966  0.6428 -0.3474  0.1394
  160MOL   H23041888   3.913   4.352   1.845  2.3669 -3.3230  0.4017
  160MOL   H23141889   3.693   4.535   1.665  1.1271 -0.0848 -0.3915
  160MOL   H23241890   3.826   4.566   1.762 -0.9744  2.8703  1.9574
  160MOL   H23341891   3.671   4.613   1.820 -1.0494 -0.0885  0.2739
  160MOL   H23441892   3.536   4.455   1.953  2.2561  1.2538  0.0877
  160MOL   H23541893   3.558   4.283   1.936 -0.3958 -0.0884 -1.7408
  160MOL   C23641894   3.462   4.354   1.754  0.0448  0.4075 -0.3400
  160MOL   C23741895   3.519   4.238   1.671 -0.5559 -1.3623 -0.7721
  160MOL   C23841896   3.506   4.226   1.538 -0.8884 -0.1647  0.4669
  160MOL   C23941897   3.556   4.102   1.467 -0.4421 -0.7315  0.5803
  160MOL   C24041898   3.445   4.336   1.453 -0.2369  0.2193  0.3950
  160MOL   H24141899   3.450   4.450   1.704  1.6493  0.5404 -0.5149
  160MOL   H24241900   3.366   4.321   1.794  0.0837 -1.2341 -1.5179
  160MOL   H24341901   3.557   4.153   1.726 -2.6488 -0.9473  1.4062
  160MOL   H24441902   3.468   4.066   1.412 -0.5735  1.8458 -0.9805
  160MOL   H24541903   3.588   4.017   1.528  0.3040 -1.1577 -0.3792
  160MOL   H24641904   3.632   4.124   1.392 -0.0305  2.0159  1.7741
  160MOL   H24741905   3.362   4.379   1.509  1.4206  0.5732  2.6960
  160MOL   H24841906   3.398   4.288   1.368  0.8830  0.2480 -0.2430
  160MOL   C24941907   3.550   4.433   1.385 -0.1363 -0.4734  0.4797
  160MOL   C25041908   3.471   4.534   1.303  0.1970  0.3066 -0.4625
  160MOL   C25141909   3.524   4.647   1.249  0.0156  0.2468  0.4451
  160MOL   C25241910   3.446   4.740   1.162 -0.6927 -0.2283 -0.0763
  160MOL   C25341911   3.677   4.682   1.251  0.0596 -0.1326 -0.5653
  160MOL   H25441912   3.618   4.372   1.326 -1.8107 -0.8341 -1.1224
  160MOL   H25541913   3.595   4.499   1.459  0.5210 -0.3233 -0.0528
  160MOL   H25641914   3.363   4.525   1.300 -0.0855  2.7302  0.8358
  160MOL   H25741915   3.340   4.714   1.158 -0.8048  0.4127 -1.4889
  160MOL   H25841916   3.479   4.734   1.058  0.5981  0.0115  0.3064
  160MOL   H25941917   3.468   4.840   1.199  0.4321 -0.1654 -0.8765
  160MOL   H26041918   3.731   4.670   1.157  0.5772  3.2806 -0.7772
  160MOL   H26141919   3.727   4.616   1.322  3.1427  0.9364 -1.6522
  160MOL   H26241920   3.688   4.787   1.277 -3.9490  0.1219  0.4387
  161MOL     C141921   7.053   4.729   2.828 -0.8144 -0.3279 -0.1644
  161MOL     C241922   7.035   4.686   2.971  0.0227 -0.2092  1.2168
  161MOL     C341923   7.063   4.569   3.023  0.0530 -0.3567  0.9041
  161MOL     C441924   7.044   4.549   3.174  0.2225 -0.4215 -0.0453
  161MOL     C541925   7.135   4.456   2.945  0.0215  0.5806  0.7345
  161MOL     H641926   7.157   4.751   2.805 -1.1406  2.8661  1.1076
  161MOL     H741927   6.998   4.662   2.762 -1.3538 -0.6480  0.5993
  161MOL     H841928   7.003   4.767   3.035  0.3496  0.6071  0.3697
  161MOL     H941929   7.136   4.558   3.231  0.0128 -2.4450  0.6597
  161MOL    H1041930   6.992   4.453   3.183 -0.2748 -0.1752 -0.2505
  161MOL    H1141931   6.983   4.633   3.208 -0.2797 -1.0872  0.7207
  161MOL    H1241932   7.099   4.463   2.842  0.0507  3.9669  0.9124
  161MOL    H1341933   7.091   4.361   2.976  2.4685 -1.2123 -1.1675
  161MOL    H1441934   7.004   4.825   2.813 -3.4892 -1.7866 -1.0985
  161MOL    C1541935   7.292   4.460   2.956 -0.1373  0.2214  0.0410
  161MOL    C1641936   7.353   4.324   2.920 -0.1342  0.3262  0.1156
  161MOL    C1741937   7.479   4.300   2.874  0.4006 -0.1740  0.8402
  161MOL    C1841938   7.530   4.156   2.869 -0.4065 -0.6721 -0.9644
  161MOL    C1941939   7.571   4.412   2.823 -0.0484  0.0215 -0.1682
  161MOL    H2041940   7.321   4.486   3.058  0.0559  1.7577 -0.3990
  161MOL    H2141941   7.318   4.541   2.888  2.7062 -0.3792  0.3437
  161MOL    H2241942   7.291   4.241   2.949  0.0855 -0.0552 -0.4903
  161MOL    H2341943   7.635   4.150   2.898 -0.7074 -1.9941 -0.1594
  161MOL    H2441944   7.526   4.111   2.770  2.5780  0.4486 -1.6532
  161MOL    H2541945   7.475   4.099   2.944  0.2193 -2.6707 -1.9917
  161MOL    H2641946   7.663   4.408   2.881  0.0993 -0.0210 -0.4054
  161MOL    H2741947   7.535   4.512   2.849 -0.7142 -0.3569  0.3864
  161MOL    C2841948   7.581   4.407   2.671 -0.2943  0.1758 -0.4785
  161MOL    C2941949   7.702   4.486   2.616 -0.4079  0.1155  0.0682
  161MOL    C3041950   7.702   4.594   2.532  0.2631 -0.0448 -0.8196
  161MOL    C3141951   7.831   4.655   2.485  0.4046  0.1558  0.9080
  161MOL    C3241952   7.578   4.662   2.483  0.6954  0.1048  0.4325
  161MOL    H3341953   7.488   4.438   2.624 -0.6309  0.2432  0.2281
  161MOL    H3441954   7.604   4.304   2.644 -2.1269 -0.3252 -0.1684
  161MOL    H3541955   7.795   4.443   2.650 -0.3281 -1.3204 -1.8899
  161MOL    H3641956   7.835   4.671   2.378 -2.3836 -1.2758  0.5311
  161MOL    H3741957   0.040   4.612   2.532 -0.4725  0.1362  2.5943
  161MOL    H3841958   7.825   4.759   2.518  2.2786  0.7218 -0.5059
  161MOL    H3941959   7.580   4.771   2.485 -1.4999  0.1648  0.5910
  161MOL    H4041960   7.497   4.626   2.548  2.1203 -2.7196  0.7427
  161MOL    C4141961   7.558   4.617   2.333  0.8584  0.2189 -0.0455
  161MOL    C4241962   7.425   4.653   2.269 -0.3392 -0.3348 -0.6821
  161MOL    C4341963   7.307   4.587   2.283 -0.4043 -0.6427 -0.8933
  161MOL    C4441964   7.182   4.643   2.219 -0.2623  0.4080 -0.5333
  161MOL    C4541965   7.288   4.462   2.364  0.4312  0.1071  0.6409
  161MOL    H4641966   7.563   4.508   2.341 -0.6506  0.1152 -0.3177
  161MOL    H4741967   7.636   4.656   2.268 -0.4799  2.3015 -0.4640
  161MOL    H4841968   7.422   4.749   2.220  1.7056 -0.5737 -1.3216
  161MOL    H4941969   7.146   4.563   2.154  0.9222  0.5850 -1.4162
  161MOL    H5041970   7.195   4.732   2.158 -3.1737  2.9141  2.3123
  161MOL    H5141971   7.106   4.660   2.296 -1.5987 -1.0250 -1.4881
  161MOL    H5241972   7.380   4.422   2.407  1.2370  2.5599  1.2951
  161MOL    H5341973   7.240   4.385   2.304 -0.0817  1.5534 -0.8499
  161MOL    C5441974   7.206   4.492   2.495 -0.0243 -0.3915 -0.3756
  161MOL    C5541975   7.181   4.372   2.578  0.1742  0.4745  0.0268
  161MOL    C5641976   7.075   4.296   2.578  0.4144 -0.4217 -0.6311
  161MOL    C5741977   7.076   4.167   2.658  0.7471  0.6464 -0.3602
  161MOL    C5841978   6.946   4.330   2.504 -0.1647  0.2427  0.1674
  161MOL    H5941979   7.101   4.520   2.480 -0.4732 -1.0095  1.3973
  161MOL    H6041980   7.243   4.581   2.545  0.2923 -1.3121  1.0481
  161MOL    H6141981   7.261   4.337   2.642 -1.2303  1.2155  2.2235
  161MOL    H6241982   7.157   4.157   2.730 -0.3518 -2.3378  0.5681
  161MOL    H6341983   7.068   4.077   2.596 -0.0770 -0.9262  1.9768
  161MOL    H6441984   6.994   4.161   2.729 -0.4850 -0.4268 -1.8269
  161MOL    H6541985   6.911   4.239   2.455  0.3113  1.9103 -3.4302
  161MOL    H6641986   6.972   4.382   2.411  1.7127  0.1415  0.6295
  161MOL    C6741987   6.840   4.403   2.587 -0.5326 -0.4678  0.0622
  161MOL    C6841988   6.735   4.477   2.507 -0.4408 -0.4718  0.2237
  161MOL    C6941989   6.607   4.454   2.512  0.4414  0.4921  0.0798
  161MOL    C7041990   6.511   4.554   2.456  0.7616 -0.5256  0.1794
  161MOL    C7141991   6.536   4.346   2.595 -0.8598  0.3854  0.2402
  161MOL    H7241992   6.879   4.478   2.655  0.3235  0.2839 -1.2457
  161MOL    H7341993   6.801   4.324   2.651 -3.4571  1.1888  0.4329
  161MOL    H7441994   6.769   4.563   2.451  0.9235  0.1931  2.0143
  161MOL    H7541995   6.428   4.499   2.413 -0.7912  1.1009  0.9923
  161MOL    H7641996   6.543   4.616   2.373  0.0571 -0.1285  0.2006
  161MOL    H7741997   6.469   4.615   2.536 -0.4126 -1.8100  0.5486
  161MOL    H7841998   6.472   4.389   2.672 -0.1413 -1.2193  1.7623
  161MOL    H7941999   6.609   4.282   2.643 -0.4566 -0.0464 -0.9208
  161MOL    C8042000   6.458   4.242   2.514  0.1431 -0.3259  0.9508
  161MOL    C8142001   6.553   4.171   2.428  0.1935 -0.4159  0.1892
  161MOL    C8242002   6.653   4.079   2.461  0.6264 -0.0048 -0.0312
  161MOL    C8342003   6.664   4.012   2.595 -0.1204  0.0004  0.8392
  161MOL    C8442004   6.739   4.030   2.352 -0.0582 -0.5505  0.3501
  161MOL    H8542005   6.384   4.297   2.455 -1.2453 -1.0871  1.9510
  161MOL    H8642006   6.388   4.179   2.570 -2.0232 -0.3055 -1.5969
  161MOL    H8742007   6.553   4.197   2.323  0.4741 -1.2495 -0.0215
  161MOL    H8842008   6.622   3.912   2.603  0.0101 -0.1798 -0.6354
  161MOL    H8942009   6.613   4.070   2.672  0.1342  0.7505  0.4526
  161MOL    H9042010   6.769   4.013   2.625  0.0153  0.1466  0.3584
  161MOL    H9142011   6.839   4.054   2.388 -0.4020  1.3349  0.1303
  161MOL    H9242012   6.734   4.097   2.266  1.9862 -2.3314 -1.2249
  161MOL    C9342013   6.726   3.883   2.319 -0.2464 -0.2351 -0.2419
  161MOL    C9442014   6.832   3.834   2.219 -0.6739 -0.2825  0.2265
  161MOL    C9542015   6.947   3.765   2.243  0.0621  0.3666 -0.4753
  161MOL    C9642016   7.035   3.730   2.130  0.1464  0.1702 -0.4808
  161MOL    C9742017   7.003   3.719   2.380  0.1663 -0.0735 -0.8896
  161MOL    H9842018   6.627   3.858   2.283  0.4547 -2.5625 -0.6641
  161MOL    H9942019   6.729   3.817   2.405 -0.1312  0.0464 -0.0279
  161MOL   H10042020   6.807   3.863   2.118  2.4999  0.4874 -0.3793
  161MOL   H10142021   7.118   3.799   2.135  0.8301 -0.6567 -0.2659
  161MOL   H10242022   7.071   3.627   2.141  1.8294  0.8224  0.3111
  161MOL   H10342023   6.987   3.744   2.033 -2.0947 -0.6444  0.4686
  161MOL   H10442024   7.051   3.623   2.359 -1.7221 -1.4445  0.8788
  161MOL   H10542025   6.925   3.692   2.451  2.6467 -1.8853  1.2865
  161MOL   C10642026   7.095   3.820   2.447  0.1915  0.0342 -0.2139
  161MOL   C10742027   7.157   3.767   2.573 -0.7157  0.1386 -0.2998
  161MOL   C10842028   7.267   3.688   2.586 -0.2484  0.0348 -0.0292
  161MOL   C10942029   7.357   3.635   2.469  0.2822  0.1083 -0.7002
  161MOL   C11042030   7.316   3.664   2.722  0.2563  0.6918  0.5441
  161MOL   H11142031   7.041   3.911   2.472 -1.9546 -1.5070  0.9453
  161MOL   H11242032   7.173   3.843   2.375  0.4453 -1.4333 -0.4288
  161MOL   H11342033   7.111   3.802   2.664 -0.9683  3.4577 -1.6490
  161MOL   H11442034   7.456   3.675   2.489  0.3841  1.2716 -3.3152
  161MOL   H11542035   7.354   3.526   2.467 -0.1547  0.1166 -0.6047
  161MOL   H11642036   7.319   3.663   2.371 -3.8017  0.5928  0.8931
  161MOL   H11742037   7.362   3.565   2.727 -0.1153  0.4484 -0.6300
  161MOL   H11842038   7.241   3.659   2.801 -2.0027  0.8938 -1.5215
  161MOL   C11942039   7.421   3.762   2.759 -0.5240 -0.5583 -0.7720
  161MOL   C12042040   7.428   3.780   2.912 -0.6603 -0.5716 -0.0577
  161MOL   C12142041   7.539   3.768   2.987  0.5160  0.3439 -0.1235
  161MOL   C12242042   7.540   3.819   3.130 -0.1351 -0.5428 -0.1782
  161MOL   C12342043   7.677   3.737   2.941 -0.2619  0.3592 -0.0069
  161MOL   H12442044   7.391   3.859   2.718  1.2218  0.4888  0.3268
  161MOL   H12542045   7.518   3.741   2.712 -0.1835  1.2333 -0.9279
  161MOL   H12642046   7.333   3.810   2.953  0.3054  0.0042  1.7922
  161MOL   H12742047   7.445   3.866   3.157 -1.6270 -2.7715 -1.3812
  161MOL   H12842048   7.609   3.904   3.135 -0.5965 -0.3032  2.5371
  161MOL   H12942049   7.548   3.741   3.205  0.2092  0.2886  0.6507
  161MOL   H13042050   7.676   3.654   2.870 -0.0735  1.2154 -1.0197
  161MOL   H13142051   7.743   3.712   3.024 -0.3359 -0.9255 -0.3270
  161MOL   C13242052   7.746   3.861   2.874 -0.5120 -0.1386  0.3519
  161MOL   C13342053   0.010   3.832   2.829 -0.1293  0.1457 -0.2382
  161MOL   C13442054   0.072   3.853   2.713 -0.6509  0.3781 -0.3659
  161MOL   C13542055   0.215   3.812   2.693 -0.8022 -0.1874 -0.4432
  161MOL   C13642056   0.012   3.912   2.588 -0.1525 -0.1875  1.0777
  161MOL   H13742057   7.764   3.951   2.933  1.2237 -0.3315  0.1507
  161MOL   H13842058   7.684   3.891   2.789 -1.8541 -0.6714  1.1361
  161MOL   H13942059   0.075   3.782   2.900  0.1858  0.3005 -0.4123
  161MOL   H14042060   0.219   3.753   2.601  0.4594 -1.4492  0.3943
  161MOL   H14142061   0.251   3.737   2.763 -1.3620 -0.4948 -0.4827
  161MOL   H14242062   0.285   3.895   2.685  0.0125 -0.6630  1.4442
  161MOL   H14342063   0.090   3.976   2.546  0.4730 -3.0041 -2.2735
  161MOL   H14442064   7.805   3.971   2.620  0.5583  0.9672  0.9043
  161MOL   C14542065   7.866   3.816   2.469  0.4418  0.0118 -0.3273
  161MOL   C14642066   7.764   3.706   2.496  0.3127 -0.4030 -0.0705
  161MOL   C14742067   7.753   3.588   2.437  0.4113 -0.4259 -0.6640
  161MOL   C14842068   7.650   3.483   2.480 -0.1983  0.3010 -1.0046
  161MOL   C14942069   7.821   3.557   2.302  0.1377  0.6161  0.2204
  161MOL   H15042070   0.079   3.768   2.436  0.6271 -0.1014  0.3478
  161MOL   H15142071   7.832   3.859   2.375  0.6543 -0.0769 -0.4450
  161MOL   H15242072   7.702   3.725   2.583 -0.6339 -1.3031 -0.5456
  161MOL   H15342073   7.610   3.505   2.579 -1.7111 -1.0728 -1.2784
  161MOL   H15442074   7.711   3.395   2.501  1.0691  1.3896 -0.0925
  161MOL   H15542075   7.563   3.461   2.417 -1.4785 -0.2779  0.9281
  161MOL   H15642076   7.826   3.450   2.281 -1.8472  0.5311  0.0827
  161MOL   H15742077   0.046   3.591   2.298 -0.1639  1.6095  0.7032
  161MOL   C15842078   7.742   3.608   2.181 -0.1521  0.4585 -0.5274
  161MOL   C15942079   7.809   3.586   2.053 -0.7715  0.0395  0.0593
  161MOL   C16042080   0.003   3.674   1.984  0.2643  0.0214  0.1749
  161MOL   C16142081   0.033   3.816   2.044 -0.9280  0.2677 -0.2477
  161MOL   C16242082   0.052   3.642   1.844 -0.2943 -0.9504  0.7301
  161MOL   H16342083   7.720   3.713   2.201 -0.8659  0.3770 -0.8748
  161MOL   H16442084   7.651   3.549   2.193 -0.2883  0.7631 -0.0572
  161MOL   H16542085   7.789   3.485   2.021 -1.6042 -0.1414  1.1228
  161MOL   H16642086   7.824   3.868   2.006 -1.0949 -0.6434 -1.1455
  161MOL   H16742087   0.129   3.855   2.010 -1.2449  0.6636 -0.7026
  161MOL   H16842088   0.035   3.819   2.152 -2.1491 -0.9848 -0.1695
  161MOL   H16942089   0.026   3.543   1.807 -0.4720  0.3138 -2.6460
  161MOL   H17042090   0.160   3.636   1.856 -0.2798 -2.1001  0.0400
  161MOL   C17142091   0.016   3.747   1.741  0.0005 -0.0827  0.7029
  161MOL   C17242092   0.086   3.724   1.613  0.1661  0.0794  0.3551
  161MOL   C17342093   0.036   3.655   1.507  0.2614 -0.6082  0.1198
  161MOL   C17442094   7.785   3.567   1.512 -0.3856 -0.1492 -0.1876
  161MOL   C17542095   0.108   3.666   1.375 -0.0573 -0.3654 -0.0842
  161MOL   H17642096   0.046   3.847   1.773 -0.2167  0.2963 -0.2831
  161MOL   H17742097   7.789   3.750   1.718  0.2224  0.5471 -0.2752
  161MOL   H17842098   0.185   3.768   1.611  0.1483  0.2038  1.5455
  161MOL   H17942099   7.704   3.621   1.463  1.5908  1.2499 -2.0212
  161MOL   H18042100   7.753   3.556   1.616 -1.7979  2.0646 -0.3488
  161MOL   H18142101   7.815   3.474   1.465  0.5425 -0.0883  0.2818
  161MOL   H18242102   0.167   3.574   1.370  1.2076  0.3691  0.9896
  161MOL   H18342103   0.189   3.739   1.380 -0.4928  0.4548 -3.7219
  161MOL   C18442104   0.017   3.693   1.253  0.6208 -0.3396  0.1520
  161MOL   C18542105   0.087   3.646   1.125  0.2010 -0.3446 -0.1501
  161MOL   C18642106   0.125   3.717   1.016  0.6506  0.1976 -0.4309
  161MOL   C18742107   0.189   3.647   0.905 -0.0819  0.5411  0.5520
  161MOL   C18842108   0.093   3.863   0.996 -0.1725  0.0652  0.1738
  161MOL   H18942109   7.868   3.798   1.254  1.4088 -0.1279  0.0500
  161MOL   H19042110   7.812   3.624   1.264 -1.7878  2.8099  2.5889
  161MOL   H19142111   0.106   3.539   1.130  2.3417  0.0557  0.7024
  161MOL   H19242112   0.289   3.685   0.884  0.6420 -1.0009  1.1116
  161MOL   H19342113   0.128   3.648   0.815  1.4880  3.2934 -0.5457
  161MOL   H19442114   0.204   3.541   0.924  1.5711  0.5712 -0.4557
  161MOL   H19542115   0.008   3.897   1.056 -2.8270 -1.2881 -2.6867
  161MOL   H19642116   0.072   3.868   0.889 -0.5707 -1.3859  0.1733
  161MOL   C19742117   0.212   3.952   1.046 -0.2956  0.1131  0.5496
  161MOL   C19842118   0.167   4.102   1.040  0.5840 -0.3238  0.1570
  161MOL   C19942119   0.192   4.185   1.146 -0.3236  0.8701  0.1817
  161MOL   C20042120   0.153   4.333   1.137 -0.0322 -0.2536 -1.1706
  161MOL   C20142121   0.275   4.149   1.271  0.4285  0.5052 -0.0890
  161MOL   H20242122   0.298   3.952   0.979  1.4054  4.1388  2.6011
  161MOL   H20342123   0.231   3.917   1.147 -3.3076  0.1514  1.1699
  161MOL   H20442124   0.113   4.148   0.958 -0.1032 -0.5363  0.4858
  161MOL   H20542125   0.239   4.400   1.141 -0.2558 -0.0647  0.6260
  161MOL   H20642126   0.085   4.350   1.220  0.8674 -0.0748 -0.4699
  161MOL   H20742127   0.104   4.363   1.044 -2.1035 -3.4648 -1.2127
  161MOL   H20842128   0.337   4.232   1.306  2.1679 -1.3801  1.4427
  161MOL   H20942129   0.345   4.066   1.258  0.2594  0.2750  0.4570
  161MOL   C21042130   0.172   4.115   1.387  0.0180  0.1793  0.0671
  161MOL   C21142131   0.236   4.074   1.517 -0.9173  0.0698  0.1283
  161MOL   C21242132   0.218   4.114   1.645  0.9108 -0.7168  0.0719
  161MOL   C21342133   0.309   4.055   1.751  0.5560 -0.1669 -0.1271
  161MOL   C21442134   0.127   4.229   1.682  0.3601 -0.4242  0.2291
  161MOL   H21542135   0.116   4.031   1.345  2.0847 -1.0501 -0.2892
  161MOL   H21642136   0.095   4.191   1.402 -0.0071 -0.3549  2.8496
  161MOL   H21742137   0.319   4.006   1.505 -0.8548  0.1174  0.2866
  161MOL   H21842138   0.239   3.996   1.809 -1.3268 -1.1620 -3.2847
  161MOL   H21942139   0.356   4.137   1.806 -0.8906 -0.0161  0.9044
  161MOL   H22042140   0.388   3.988   1.716 -0.5807 -1.1697 -0.8150
  161MOL   H22142141   0.052   4.197   1.755 -0.4817 -0.5393 -0.6661
  161MOL   H22242142   0.058   4.248   1.600 -0.6420 -3.2606  0.3571
  161MOL   C22342143   0.193   4.364   1.717  0.2918  0.6866  0.2088
  161MOL   C22442144   0.247   4.430   1.597  0.1986 -0.3716  0.2315
  161MOL   C22542145   0.191   4.533   1.529 -0.8213 -0.7620  0.1483
  161MOL   C22642146   0.250   4.599   1.405  0.1144  0.1806 -0.2602
  161MOL   C22742147   0.058   4.591   1.563  0.3225  0.2206 -0.0380
  161MOL   H22842148   0.265   4.359   1.799  1.6842  0.3961 -1.0112
  161MOL   H22942149   0.107   4.422   1.751 -1.1877 -1.3994  0.1340
  161MOL   H23042150   0.342   4.397   1.558  0.5077  0.6645  0.0788
  161MOL   H23142151   0.293   4.515   1.351  0.8668 -0.5264  1.4075
  161MOL   H23242152   0.327   4.674   1.424  0.0819  0.3880 -0.9362
  161MOL   H23342153   0.179   4.651   1.341 -0.2443 -1.3058 -1.0937
  161MOL   H23442154   0.000   4.551   1.645  2.5067  1.1611  2.0080
  161MOL   H23542155   7.870   4.582   1.477  2.4286 -0.6023 -1.6376
  161MOL   C23642156   0.068   4.745   1.592  0.6085 -0.2337 -0.0749
  161MOL   C23742157   7.819   4.808   1.637  0.2003  0.2579 -0.7208
  161MOL   C23842158   7.789   4.933   1.686  0.2114  0.7151 -0.7162
  161MOL   C23942159   7.648   4.977   1.709  0.1313  0.0360  0.0037
  161MOL   C24042160   0.022   5.038   1.709  0.9044  0.7558  0.3017
  161MOL   H24142161   0.105   4.808   1.511 -1.1843  2.4064  1.0967
  161MOL   H24242162   0.143   4.771   1.666  1.7415  1.1062 -1.6665
  161MOL   H24342163   7.735   4.745   1.614  0.4881 -0.2699 -0.3284
  161MOL   H24442164   7.620   4.981   1.815 -0.9024 -0.1247 -0.2608
  161MOL   H24542165   7.575   4.921   1.651 -0.5143 -0.1140  0.9390
  161MOL   H24642166   7.638   5.082   1.681  2.9977  0.9412  2.0672
  161MOL   H24742167   0.001   5.139   1.673 -0.1588  1.2518  2.2320
  161MOL   H24842168   0.111   5.000   1.659 -0.7035 -0.7348 -1.5081
  161MOL   C24942169   0.061   5.064   1.850  0.0570 -0.0638  0.1100
  161MOL   C25042170   0.160   5.181   1.866  0.4544 -1.0144  0.0214
  161MOL   C25142171   0.130   5.307   1.898 -0.5943  0.4443 -0.0568
  161MOL   C25242172   0.237   5.413   1.928  0.2735 -0.8353  0.0916
  161MOL   C25342173   7.864   5.356   1.907  0.4563  0.2059  0.0376
  161MOL   H25442174   0.097   4.970   1.893  1.0635 -0.5384 -1.7558
  161MOL   H25542175   7.848   5.077   1.907  0.1889  0.0384  0.3002
  161MOL   H25642176   0.265   5.157   1.856 -0.0014 -2.5832 -1.3491
  161MOL   H25742177   0.235   5.486   1.848  1.5552  2.1354  2.6692
  161MOL   H25842178   0.337   5.369   1.922  0.4922 -0.1538 -1.6322
  161MOL   H25942179   0.233   5.461   2.026  1.7629  2.5885 -1.4397
  161MOL   H26042180   7.824   5.332   2.005 -2.9937  0.0471 -1.3245
  161MOL   H26142181   7.807   5.293   1.838  1.7060 -1.2449  0.3158
  161MOL   H26242182   7.844   5.462   1.893 -3.3325 -0.3917  0.2817
  162MOL     C142183   0.383   1.273   6.987  0.0554 -0.1965  0.1507
  162MOL     C242184   0.311   1.332   7.108  0.1295  0.2054  1.0475
  162MOL     C342185   0.217   1.276   7.187 -0.2759  0.0741  0.3237
  162MOL     C442186   0.169   1.343   7.306  0.3290 -0.4441 -0.5893
  162MOL     C542187   0.152   1.140   7.155 -0.1144  0.2149  0.2013
  162MOL     H642188   0.465   1.339   6.959  1.8277 -1.4415  2.2179
  162MOL     H742189   0.431   1.181   7.024  0.8680  0.3969  0.5917
  162MOL     H842190   0.356   1.428   7.129  1.4827  0.4365 -2.5823
  162MOL     H942191   0.193   1.276   7.389  0.9388 -0.4211 -0.7483
  162MOL    H1042192   0.061   1.350   7.292  0.3513  2.8086  0.6384
  162MOL    H1142193   0.207   1.444   7.321  0.7232 -0.6726 -0.0314
  162MOL    H1242194   0.153   1.078   7.245  0.8860 -2.6978 -1.7663
  162MOL    H1342195   0.196   1.083   7.074  0.1350  0.4175  0.1978
  162MOL    H1442196   0.317   1.249   6.904 -1.0447  1.9196  0.3986
  162MOL    C1542197   7.879   1.159   7.123 -0.2502  0.1512  0.3954
  162MOL    C1642198   7.863   1.206   6.983 -0.2294 -0.4124  0.2357
  162MOL    C1742199   7.798   1.153   6.883 -0.1163  0.6017 -0.3808
  162MOL    C1842200   7.795   1.216   6.746 -1.0106 -0.0638  0.3615
  162MOL    C1942201   7.724   1.023   6.889 -0.7715  0.6622 -0.3700
  162MOL    H2042202   7.816   1.223   7.185 -0.0094 -1.1088  1.9613
  162MOL    H2142203   7.834   1.060   7.136 -1.9795  0.9513  0.6204
  162MOL    H2242204   0.044   1.294   6.964 -2.2646  1.8954  3.7442
  162MOL    H2342205   7.837   1.147   6.673 -1.9785 -1.3490  1.0225
  162MOL    H2442206   7.872   1.294   6.748  1.1346 -2.1423  1.8647
  162MOL    H2542207   7.702   1.249   6.701 -0.7122 -0.7229 -0.7478
  162MOL    H2642208   7.634   1.044   6.831 -0.0271  0.4667 -1.5923
  162MOL    H2742209   7.694   1.002   6.992  0.9118 -0.0327 -0.0077
  162MOL    C2842210   7.816   0.915   6.838  0.1492 -0.2590 -0.0916
  162MOL    C2942211   7.758   0.781   6.858  0.3174  0.7357 -0.6612
  162MOL    C3042212   7.752   0.685   6.762 -0.1156  0.3176 -0.3046
  162MOL    C3142213   7.682   0.557   6.806  0.2219 -0.5226  0.1514
  162MOL    C3242214   7.810   0.695   6.624 -0.2237  0.3946 -0.0371
  162MOL    H3342215   0.031   0.919   6.894 -0.4022 -2.2514  1.0295
  162MOL    H3442216   7.837   0.935   6.732  0.3551  0.8118  0.1459
  162MOL    H3542217   7.718   0.761   6.957 -1.8935 -0.8431 -1.8340
  162MOL    H3642218   7.598   0.575   6.874 -1.5601 -2.8043 -1.3615
  162MOL    H3742219   7.748   0.477   6.842 -0.9836 -1.3787  0.5109
  162MOL    H3842220   7.630   0.510   6.723 -0.5176  1.1374 -0.3473
  162MOL    H3942221   7.852   0.597   6.603  0.0229  0.1723  1.3876
  162MOL    H4042222   0.005   0.775   6.618 -0.9451  0.8715 -3.2574
  162MOL    C4142223   7.699   0.735   6.528 -0.3826 -0.1870 -0.5101
  162MOL    C4242224   7.747   0.804   6.401  0.3427  0.3844 -0.1546
  162MOL    C4342225   7.732   0.770   6.269  0.2870  0.3429 -0.5486
  162MOL    C4442226   7.788   0.857   6.152  0.3989 -0.1579  0.0026
  162MOL    C4542227   7.666   0.638   6.220  0.1619 -0.1928 -0.3053
  162MOL    H4642228   7.638   0.808   6.583  0.0582  1.1964 -1.8509
  162MOL    H4742229   7.636   0.646   6.521  0.8061 -1.0710 -0.0417
  162MOL    H4842230   7.792   0.900   6.418 -0.1132  0.9511 -2.0255
  162MOL    H4942231   7.711   0.909   6.095  1.4929 -0.1206 -1.4731
  162MOL    H5042232   7.834   0.787   6.082  0.8191 -0.2869  0.4090
  162MOL    H5142233   7.873   0.916   6.185 -0.0138  0.0020  0.7944
  162MOL    H5242234   7.696   0.555   6.284 -1.1721  0.0850  0.7126
  162MOL    H5342235   7.706   0.624   6.120 -1.3794 -1.1245 -0.8136
  162MOL    C5442236   7.512   0.647   6.211  0.4252 -0.4695 -0.9041
  162MOL    C5542237   7.453   0.529   6.141 -0.0649 -0.6352 -0.4635
  162MOL    C5642238   7.324   0.499   6.127 -0.5633  0.3161  0.1368
  162MOL    C5742239   7.278   0.371   6.058  0.0570 -0.1663 -0.2150
  162MOL    C5842240   7.218   0.592   6.179  0.3622 -0.3021  0.1865
  162MOL    H5942241   7.489   0.736   6.154 -1.4685  0.5753  1.3881
  162MOL    H6042242   7.477   0.669   6.312  0.4528  1.9655 -1.4017
  162MOL    H6142243   7.525   0.455   6.110  0.1541 -0.9433  0.7548
  162MOL    H6242244   7.197   0.308   6.096  1.6011 -2.1805 -0.1599
  162MOL    H6342245   7.360   0.300   6.054  0.6045  0.3745  1.1662
  162MOL    H6442246   7.241   0.393   5.958  2.8628 -1.5648 -1.6241
  162MOL    H6542247   7.264   0.665   6.246 -0.2676 -0.7589  1.1296
  162MOL    H6642248   7.143   0.545   6.242 -1.2860  1.8346 -0.0994
  162MOL    C6742249   7.138   0.680   6.073 -0.2979  0.2041 -0.2042
  162MOL    C6842250   7.059   0.788   6.146 -0.4382 -0.1364 -0.1703
  162MOL    C6942251   7.097   0.918   6.164 -0.4441  0.4266  0.3417
  162MOL    C7042252   7.012   1.021   6.238  0.1492 -0.9195 -0.2697
  162MOL    C7142253   7.237   0.968   6.124  0.6485 -0.6075 -0.5108
  162MOL    H7242254   7.068   0.609   6.028 -1.6545 -1.4430  4.2417
  162MOL    H7342255   7.210   0.714   5.999 -1.8912 -0.0923 -1.9257
  162MOL    H7442256   6.959   0.757   6.169 -0.3046 -1.9580 -1.9157
  162MOL    H7542257   6.916   0.973   6.253 -0.6941 -0.2407 -3.1679
  162MOL    H7642258   6.999   1.119   6.191 -0.1042  0.3461  2.3153
  162MOL    H7742259   7.052   1.055   6.334 -2.3434  1.9365 -0.1758
  162MOL    H7842260   7.305   0.886   6.103 -0.8344 -2.4350  1.6125
  162MOL    H7942261   7.274   1.042   6.195 -0.1322  2.4021 -3.0988
  162MOL    C8042262   7.229   1.049   5.984  0.4130  1.0068 -0.3269
  162MOL    C8142263   7.354   1.124   5.954  0.1997  0.0716  0.6081
  162MOL    C8242264   7.371   1.257   5.962  0.8439  0.0113  0.0555
  162MOL    C8342265   7.275   1.359   6.018 -0.0010  0.2995  0.2376
  162MOL    C8442266   7.500   1.315   5.919 -0.7895 -1.0291 -0.1677
  162MOL    H8542267   7.150   1.123   5.976 -1.2194 -0.6803 -0.0004
  162MOL    H8642268   7.200   0.979   5.906  0.8238  0.2724  0.1766
  162MOL    H8742269   7.438   1.059   5.934 -0.6598 -0.4833 -1.3835
  162MOL    H8842270   7.311   1.456   5.982 -0.4670  1.4916  2.8818
  162MOL    H8942271   7.269   1.359   6.127  1.4538 -3.1227  0.3757
  162MOL    H9042272   7.178   1.360   5.968  1.0550  0.2760 -1.8580
  162MOL    H9142273   7.482   1.394   5.846  0.2065  0.6607  1.3742
  162MOL    H9242274   7.551   1.246   5.851  1.0045 -0.6980  0.8160
  162MOL    C9342275   7.593   1.368   6.026  0.1049 -0.0178  0.2737
  162MOL    C9442276   7.730   1.401   5.980  0.3197 -0.6415 -0.3164
  162MOL    C9542277   7.845   1.340   6.019 -0.7860 -0.1290 -0.5086
  162MOL    C9642278   0.097   1.385   5.956 -0.0871 -0.2498  0.2086
  162MOL    C9742279   7.843   1.213   6.107 -0.3858  0.3204 -0.1824
  162MOL    H9842280   7.596   1.298   6.109  0.0929  0.1778  0.4410
  162MOL    H9942281   7.560   1.464   6.066 -1.6455 -0.5862  0.2555
  162MOL   H10042282   7.746   1.476   5.905  0.4867  1.2474  1.5634
  162MOL   H10142283   0.163   1.299   5.959 -1.7455 -1.5232  1.4685
  162MOL   H10242284   0.089   1.400   5.849 -3.7821  1.5733  0.6350
  162MOL   H10342285   0.151   1.466   6.007 -0.6714  0.4401 -0.2545
  162MOL   H10442286   0.037   1.150   6.057 -1.6134  0.0348 -1.6284
  162MOL   H10542287   7.750   1.157   6.100  1.1226 -2.3317  0.0864
  162MOL   C10642288   0.009   1.247   6.261  0.5100  0.5154  0.2511
  162MOL   C10742289   7.787   1.344   6.318  0.6097  0.5836 -0.1265
  162MOL   C10842290   7.808   1.468   6.358  0.8970 -0.0101 -0.8918
  162MOL   C10942291   0.068   1.528   6.352  0.2858  0.4848 -0.2815
  162MOL   C11042292   7.695   1.550   6.424 -0.6239  0.6126  0.4396
  162MOL   H11142293   0.113   1.278   6.265 -0.0061  2.2198  0.9054
  162MOL   H11242294   0.012   1.154   6.317  1.7370 -0.3930 -1.2782
  162MOL   H11342295   7.688   1.303   6.308  0.7875  0.2199 -0.4077
  162MOL   H11442296   0.113   1.508   6.254  1.3010  1.2808  0.0212
  162MOL   H11542297   0.069   1.637   6.356 -1.7006  0.5284 -0.0603
  162MOL   H11642298   0.131   1.496   6.434 -1.3902  1.6050  1.4733
  162MOL   H11742299   7.728   1.580   6.523 -1.7808  3.3301  0.0394
  162MOL   H11842300   7.616   1.475   6.427 -1.7769  1.7313 -0.9868
  162MOL   C11942301   7.639   1.676   6.353  0.3888  0.6175 -0.1503
  162MOL   C12042302   7.507   1.734   6.413  0.1426 -0.7682 -0.1475
  162MOL   C12142303   7.386   1.744   6.354 -0.8855 -0.0830 -0.1821
  162MOL   C12242304   7.271   1.809   6.419 -0.8499 -0.3536  0.9569
  162MOL   C12342305   7.347   1.683   6.225 -0.2241 -0.1984 -1.0164
  162MOL   H12442306   7.624   1.650   6.248 -1.3324  0.7323  0.0523
  162MOL   H12542307   7.716   1.752   6.368 -0.3009  1.6228 -1.5759
  162MOL   H12642308   7.519   1.779   6.510  0.1256  2.1966 -1.4624
  162MOL   H12742309   7.234   1.889   6.355 -0.4065 -0.7765  0.1718
  162MOL   H12842310   7.301   1.844   6.518 -0.3974 -3.4242  1.9678
  162MOL   H12942311   7.184   1.743   6.429  0.0296 -1.4543  1.5921
  162MOL   H13042312   7.238   1.673   6.230 -0.0906 -1.6707 -0.9695
  162MOL   H13142313   7.394   1.585   6.221 -0.3600 -0.4208  1.6438
  162MOL   C13242314   7.368   1.772   6.100 -0.7127  0.5826  0.2000
  162MOL   C13342315   7.503   1.831   6.084  0.3186  0.2463 -0.2655
  162MOL   C13442316   7.585   1.817   5.975 -0.3361  0.2633 -0.4439
  162MOL   C13542317   7.722   1.886   5.984 -0.1310 -0.4538  0.1735
  162MOL   C13642318   7.562   1.739   5.850 -0.6418 -0.4322 -0.2102
  162MOL   H13742319   7.292   1.850   6.104 -3.4479 -2.0092 -0.0619
  162MOL   H13842320   7.354   1.707   6.014  0.2254 -1.8089  1.7884
  162MOL   H13942321   7.542   1.892   6.165  0.0316 -1.3840  1.1217
  162MOL   H14042322   7.726   1.970   6.053 -2.5581  0.8079 -1.1523
  162MOL   H14142323   7.756   1.932   5.892 -4.0802  2.2505 -0.0594
  162MOL   H14242324   7.803   1.822   6.017  0.6660  0.0872 -0.7074
  162MOL   H14342325   7.510   1.646   5.871 -0.6570 -0.5142 -0.6075
  162MOL   H14442326   7.658   1.703   5.815 -0.0942 -0.1294  0.9498
  162MOL   C14542327   7.483   1.829   5.755 -0.3063  0.2638 -0.2237
  162MOL   C14642328   7.484   1.757   5.623  0.2802  0.7317 -0.4429
  162MOL   C14742329   7.399   1.662   5.585 -0.3762  0.3874  0.0220
  162MOL   C14842330   7.401   1.583   5.458 -0.3240 -0.6456 -0.4980
  162MOL   C14942331   7.284   1.627   5.679  1.4349  0.7035 -0.2902
  162MOL   H15042332   7.539   1.920   5.736 -0.6462  0.5550  0.1646
  162MOL   H15142333   7.383   1.862   5.782 -0.3955  0.2932 -0.5884
  162MOL   H15242334   7.569   1.775   5.559  1.4753 -0.9462  0.6175
  162MOL   H15342335   7.303   1.539   5.440 -0.1880 -0.6609 -1.2389
  162MOL   H15442336   7.467   1.497   5.464 -0.5902 -0.7147  1.7087
  162MOL   H15542337   7.425   1.640   5.368  0.5860 -3.3948 -2.0566
  162MOL   H15642338   7.301   1.644   5.786  2.5162  0.4515 -0.4135
  162MOL   H15742339   7.288   1.518   5.680  1.0972  0.6830 -0.9403
  162MOL   C15842340   7.151   1.680   5.628 -0.5051  0.3298  0.1312
  162MOL   C15942341   7.023   1.645   5.716 -0.5909  0.3934 -0.1946
  162MOL   C16042342   6.966   1.716   5.812  0.8824  0.3230  0.1016
  162MOL   C16142343   6.999   1.863   5.837  0.1798 -0.7877 -0.4334
  162MOL   C16242344   6.846   1.664   5.890  0.6311  0.6243  0.2158
  162MOL   H16342345   7.124   1.641   5.530 -0.4783 -0.2729  0.3578
  162MOL   H16442346   7.167   1.786   5.608 -0.3435  0.1468 -0.7327
  162MOL   H16542347   6.993   1.541   5.711 -0.5491  0.2672  1.8279
  162MOL   H16642348   6.915   1.918   5.794  0.1263 -0.6321 -0.1346
  162MOL   H16742349   7.088   1.890   5.781 -0.7045 -0.1595 -1.5559
  162MOL   H16842350   7.024   1.888   5.940 -1.1335  0.7961 -0.4732
  162MOL   H16942351   6.794   1.573   5.858  1.8577  0.1502 -0.4544
  162MOL   H17042352   6.767   1.738   5.876  0.8711  0.5300 -1.7955
  162MOL   C17142353   6.883   1.645   6.039 -0.1721 -0.0494  0.2672
  162MOL   C17242354   6.764   1.589   6.115  0.2217  0.0522 -0.8743
  162MOL   C17342355   6.712   1.632   6.228 -0.1219 -1.3559 -0.1972
  162MOL   C17442356   6.770   1.738   6.318  0.0818  0.0604 -0.3279
  162MOL   C17542357   6.578   1.578   6.284  0.8517 -0.1581 -0.8346
  162MOL   H17642358   6.932   1.728   6.089  1.0240 -0.0098 -0.9444
  162MOL   H17742359   6.954   1.563   6.048 -0.0540 -0.1561 -1.4156
  162MOL   H17842360   6.710   1.515   6.058 -1.7182  1.6044 -1.1297
  162MOL   H17942361   6.871   1.764   6.288  0.2853 -4.6747 -4.4137
  162MOL   H18042362   6.769   1.697   6.419 -1.8008  2.3803  0.6397
  162MOL   H18142363   6.703   1.824   6.320 -0.9421 -0.7365  0.9103
  162MOL   H18242364   6.536   1.532   6.195 -0.0969  1.9966 -1.5556
  162MOL   H18342365   6.514   1.665   6.299  1.3042 -0.0540  0.5811
  162MOL   C18442366   6.579   1.491   6.412 -0.3147 -0.2224  0.1131
  162MOL   C18542367   6.441   1.428   6.436  0.6334 -0.0418 -0.1869
  162MOL   C18642368   6.345   1.470   6.520  0.4483 -0.3795  0.7354
  162MOL   C18742369   6.211   1.392   6.523 -0.4805 -0.3002  0.0714
  162MOL   C18842370   6.357   1.598   6.603 -0.1821  0.6545 -0.6209
  162MOL   H18942371   6.621   1.543   6.497  0.2896  0.0143 -0.3235
  162MOL   H19042372   6.653   1.413   6.393 -0.6698 -0.4630 -0.2890
  162MOL   H19142373   6.421   1.337   6.382 -0.3550  0.5483 -0.8181
  162MOL   H19242374   6.230   1.287   6.548 -2.2628 -0.6904 -0.1227
  162MOL   H19342375   6.165   1.380   6.425  3.7885 -0.9330 -1.9546
  162MOL   H19442376   6.128   1.428   6.584 -0.6774 -0.6378  0.0086
  162MOL   H19542377   6.269   1.660   6.590 -0.3044  0.1634 -2.2079
  162MOL   H19642378   6.438   1.657   6.559  1.3017 -0.1883  0.9106
  162MOL   C19742379   6.381   1.559   6.751 -0.6352  0.6798 -0.0810
  162MOL   C19842380   6.413   1.678   6.835 -0.0983 -0.2585  0.3802
  162MOL   C19942381   6.510   1.691   6.930 -0.1875  0.1375 -0.2639
  162MOL   C20042382   6.524   1.825   7.002 -0.0896 -0.5857  0.2340
  162MOL   C20142383   6.605   1.574   6.962 -0.2660  0.7263 -0.1336
  162MOL   H20242384   6.458   1.482   6.753 -0.7245  0.6049  1.8543
  162MOL   H20342385   6.284   1.523   6.787 -0.8859 -0.4795 -1.8779
  162MOL   H20442386   6.344   1.761   6.824 -0.7642 -0.8873 -0.2282
  162MOL   H20542387   6.452   1.905   6.983  1.3285  0.3676 -1.2761
  162MOL   H20642388   6.625   1.862   6.984 -0.0144 -1.4502 -1.1517
  162MOL   H20742389   6.503   1.803   7.107 -0.9194  0.1549  0.2289
  162MOL   H20842390   6.553   1.480   6.946 -0.6380  1.1392 -1.3965
  162MOL   H20942391   6.621   1.577   7.069  0.0134  0.7808 -0.1733
  162MOL   C21042392   6.741   1.577   6.887  0.1782 -0.2892 -0.6024
  162MOL   C21142393   6.840   1.491   6.969  0.1713  0.1304  0.1271
  162MOL   C21242394   6.908   1.380   6.937  0.9106 -0.0786  0.5694
  162MOL   C21342395   7.000   1.312   7.036 -0.3907  0.2790  0.0229
  162MOL   C21442396   6.903   1.318   6.798 -0.6210 -0.2799  0.2869
  162MOL   H21542397   6.779   1.678   6.874  2.0845 -0.5374  2.5124
  162MOL   H21642398   6.730   1.542   6.785  2.2924 -1.4694 -0.4489
  162MOL   H21742399   6.840   1.530   7.070 -0.6133  0.6518 -0.0654
  162MOL   H21842400   7.063   1.242   6.981 -0.4106  0.1618  0.1499
  162MOL   H21942401   6.941   1.253   7.106 -0.6185  1.5205  0.8882
  162MOL   H22042402   7.068   1.384   7.082 -1.1491  3.0682 -3.0292
  162MOL   H22142403   7.004   1.322   6.756  0.5266 -0.5655  2.8697
  162MOL   H22242404   6.843   1.386   6.737  1.1138  0.2688 -0.8676
  162MOL   C22342405   6.836   1.178   6.800 -0.8536  0.4177 -0.1087
  162MOL   C22442406   6.684   1.200   6.843  0.3904  0.1959 -0.4323
  162MOL   C22542407   6.583   1.136   6.791  0.1951  0.4109  1.0760
  162MOL   C22642408   6.435   1.170   6.822 -0.6168 -0.7849  0.0771
  162MOL   C22742409   6.599   1.029   6.686  0.3754 -0.5700 -0.8697
  162MOL   H22842410   6.893   1.106   6.859 -0.1214  1.7553  0.8354
  162MOL   H22942411   6.832   1.143   6.696  1.2581  0.1399 -0.1190
  162MOL   H23042412   6.664   1.283   6.907 -0.1534  0.8276 -1.4098
  162MOL   H23142413   6.443   1.251   6.894  3.5338 -2.0886  1.2280
  162MOL   H23242414   6.393   1.077   6.861 -0.6460 -1.3016 -1.1465
  162MOL   H23342415   6.371   1.193   6.737  1.0002  1.4003 -0.6101
  162MOL   H23442416   6.524   0.956   6.718  0.0776 -0.0342 -0.3330
  162MOL   H23542417   6.689   0.971   6.704  0.6669 -0.6697 -2.6085
  162MOL   C23642418   6.573   1.087   6.541  0.5501 -0.4478 -0.1883
  162MOL   C23742419   6.600   0.979   6.438  0.0939  0.3075 -0.0942
  162MOL   C23842420   6.515   0.934   6.346 -0.5048 -0.4882  0.1882
  162MOL   C23942421   6.567   0.827   6.251  0.2368  0.3831 -0.3011
  162MOL   C24042422   6.381   0.997   6.319 -0.3806  0.3256 -1.0483
  162MOL   H24142423   6.642   1.171   6.531 -0.8602  0.3916 -4.0745
  162MOL   H24242424   6.476   1.136   6.533  0.4402 -0.9632 -2.2029
  162MOL   H24342425   6.699   0.937   6.449  0.5614  1.1818 -0.8260
  162MOL   H24442426   6.673   0.804   6.263  0.0931  0.4904  1.1460
  162MOL   H24542427   6.545   0.850   6.146  0.6134 -1.2751 -0.7569
  162MOL   H24642428   6.513   0.735   6.271  0.8058 -0.0422 -0.6790
  162MOL   H24742429   6.362   0.984   6.213  0.1389 -1.2663 -0.9483
  162MOL   H24842430   6.377   1.105   6.338 -0.0852  0.3393 -1.0546
  162MOL   C24942431   6.265   0.930   6.406  0.1413  0.3416 -0.2265
  162MOL   C25042432   6.125   0.973   6.365  0.1563 -0.5431 -0.4980
  162MOL   C25142433   6.022   0.988   6.453 -0.7391  0.3433  0.8083
  162MOL   C25242434   5.885   1.031   6.397  0.1523 -0.1025  0.3202
  162MOL   C25342435   6.035   0.950   6.596  0.4848 -0.3879  0.0777
  162MOL   H25442436   6.276   0.943   6.513  1.1223 -0.2939 -0.2441
  162MOL   H25542437   6.274   0.822   6.396 -3.8012  0.1700 -3.3469
  162MOL   H25642438   6.111   0.987   6.259 -0.5595 -1.9823 -0.6023
  162MOL   H25742439   5.848   1.110   6.463 -0.0688 -1.2475  1.5760
  162MOL   H25842440   5.818   0.946   6.408 -0.1991  0.3331  1.7001
  162MOL   H25942441   5.899   1.067   6.295 -0.1208 -1.2949 -0.1421
  162MOL   H26042442   6.096   0.863   6.621  2.7206  0.7055 -1.4245
  162MOL   H26142443   5.938   0.935   6.645  0.5270 -1.8992 -0.2640
  162MOL   H26242444   6.085   1.034   6.642 -0.7788  1.2787 -1.5147
  163MOL     C142445   1.117   0.424   0.717 -0.3124  0.2393  0.6241
  163MOL     C242446   0.987   0.468   0.783 -0.1857 -0.3025 -0.1808
  163MOL     C342447   0.914   0.579   0.748 -0.3323 -0.7201  0.0562
  163MOL     C442448   0.792   0.603   0.821 -0.1630 -0.7640  0.3831
  163MOL     C542449   0.953   0.685   0.638  0.5791  0.2717  0.0168
  163MOL     H642450   1.164   0.518   0.688 -0.6259 -0.2444 -1.5157
  163MOL     H742451   1.181   0.361   0.779 -0.0422 -0.8174 -0.7152
  163MOL     H842452   0.947   0.410   0.865 -0.7772  1.7840  1.0471
  163MOL     H942453   0.818   0.678   0.896 -1.2932 -1.9397  1.9966
  163MOL    H1042454   0.770   0.513   0.879 -0.8574  1.1241  3.1440
  163MOL    H1142455   0.712   0.643   0.759  2.0859  0.8684 -1.5311
  163MOL    H1242456   0.874   0.680   0.564 -2.0225 -1.0888  2.7970
  163MOL    H1342457   1.042   0.672   0.577  1.2429 -0.7965  1.1803
  163MOL    H1442458   1.100   0.361   0.630  0.5604  0.7682  0.0624
  163MOL    C1542459   0.959   0.832   0.698 -0.4710 -0.1588  0.8644
  163MOL    C1642460   1.033   0.830   0.833 -0.4575  0.6500 -0.1646
  163MOL    C1742461   0.983   0.876   0.951  0.8050  0.4193 -0.3445
  163MOL    C1842462   1.049   0.849   1.085  0.6125 -0.0598 -0.6295
  163MOL    C1942463   0.851   0.949   0.962  0.1583 -0.1454  0.3312
  163MOL    H2042464   0.855   0.866   0.703 -0.0242  1.3295  0.2849
  163MOL    H2142465   1.007   0.904   0.633  0.8188 -1.3828  0.4398
  163MOL    H2242466   1.126   0.777   0.850 -0.6265  0.0366 -1.1468
  163MOL    H2342467   1.047   0.932   1.155  3.0768  2.1482 -3.0815
  163MOL    H2442468   1.148   0.806   1.069  0.7547  1.2680 -3.6521
  163MOL    H2542469   0.993   0.764   1.125  2.3065 -1.0215 -0.2177
  163MOL    H2642470   0.789   0.889   1.028 -0.6894 -0.9644 -1.1613
  163MOL    H2742471   0.808   0.963   0.863  0.5921 -1.9502 -0.1375
  163MOL    C2842472   0.851   1.097   1.019  0.0857  0.7618 -0.3208
  163MOL    C2942473   0.926   1.201   0.933 -0.2176 -0.4682  0.2183
  163MOL    C3042474   0.972   1.324   0.978  0.0228  0.0923 -0.0358
  163MOL    C3142475   1.035   1.427   0.884  0.5193 -0.1771 -0.0520
  163MOL    C3242476   0.951   1.375   1.122 -0.3293  0.7697  0.0604
  163MOL    H3342477   0.896   1.093   1.118  0.2783 -0.4152 -0.4479
  163MOL    H3442478   0.752   1.132   1.047  0.3212  0.1257  1.3774
  163MOL    H3542479   0.936   1.185   0.827 -2.0622  1.1371 -0.2261
  163MOL    H3642480   1.141   1.408   0.868  0.9860  0.7268  1.8496
  163MOL    H3742481   1.014   1.532   0.900  0.1375 -0.1319 -0.8399
  163MOL    H3842482   0.993   1.402   0.786  0.5468 -0.3540 -0.0198
  163MOL    H3942483   0.898   1.303   1.185  0.3358 -1.4990 -1.9221
  163MOL    H4042484   0.882   1.460   1.126  0.5052  1.3947  2.6358
  163MOL    C4142485   1.080   1.430   1.196  0.0895 -0.1144 -1.1872
  163MOL    C4242486   1.073   1.443   1.349  0.1006 -0.0732 -0.4123
  163MOL    C4342487   1.107   1.550   1.426  0.2024 -0.1592  0.4778
  163MOL    C4442488   1.115   1.547   1.578  0.3310  0.4594 -0.1428
  163MOL    C4542489   1.151   1.692   1.374 -0.0921 -0.2319  0.0450
  163MOL    H4642490   1.102   1.528   1.153 -0.8201  0.4249 -0.4643
  163MOL    H4742491   1.165   1.369   1.169  0.5220 -0.6841  1.3761
  163MOL    H4842492   1.041   1.350   1.393  0.0396 -1.3083 -2.9776
  163MOL    H4942493   1.069   1.458   1.620  2.5165  0.6446  2.8644
  163MOL    H5042494   1.055   1.630   1.616  0.0072  0.7648 -1.3055
  163MOL    H5142495   1.217   1.558   1.615  0.5465 -3.9067  0.7753
  163MOL    H5242496   1.119   1.763   1.450 -0.3388 -0.1354 -0.1497
  163MOL    H5342497   1.107   1.714   1.276  1.2371 -0.1581 -0.5483
  163MOL    C5442498   1.301   1.706   1.370 -0.5850 -0.3602  0.0293
  163MOL    C5542499   1.343   1.846   1.346  0.2274 -0.6412  0.0342
  163MOL    C5642500   1.472   1.881   1.337 -0.0128 -0.9143  0.7148
  163MOL    C5742501   1.501   2.022   1.293 -0.3855 -0.2974  0.4402
  163MOL    C5842502   1.585   1.786   1.358 -0.4603 -0.9849 -0.8404
  163MOL    H5942503   1.348   1.647   1.291  1.0129  1.5870 -0.5218
  163MOL    H6042504   1.343   1.670   1.465 -3.5581 -3.5084  0.2607
  163MOL    H6142505   1.276   1.929   1.328 -0.9342 -1.1013  2.0926
  163MOL    H6242506   1.427   2.090   1.337 -1.0419  0.8908 -2.4058
  163MOL    H6342507   1.505   2.024   1.184 -0.0011  0.5826  0.4698
  163MOL    H6442508   1.597   2.051   1.335  0.0717 -2.3051  0.8173
  163MOL    H6542509   1.643   1.801   1.267 -0.1227  0.5584 -0.3848
  163MOL    H6642510   1.555   1.681   1.349 -0.6683 -0.9595 -0.4504
  163MOL    C6742511   1.650   1.817   1.492 -0.3199  0.0996  0.0015
  163MOL    C6842512   1.586   1.737   1.602  0.4861  0.5887 -0.4641
  163MOL    C6942513   1.626   1.630   1.673  0.1670  0.2283  0.1431
  163MOL    C7042514   1.547   1.558   1.785 -0.4009  0.3960  0.5132
  163MOL    C7142515   1.758   1.564   1.651  0.3942 -0.8247 -0.0073
  163MOL    H7242516   1.656   1.924   1.510  0.1935 -0.1218  1.2313
  163MOL    H7342517   1.758   1.801   1.498 -0.1359  1.0905 -0.5531
  163MOL    H7442518   1.484   1.769   1.621 -0.0565 -1.3429 -0.0374
  163MOL    H7542519   1.514   1.457   1.762  0.7855  0.6012 -2.2720
  163MOL    H7642520   1.457   1.619   1.793 -1.3290 -0.8666 -0.0602
  163MOL    H7742521   1.593   1.560   1.884  0.9267 -0.9995 -0.0636
  163MOL    H7842522   1.819   1.585   1.739 -1.5598  1.2552  0.9000
  163MOL    H7942523   1.811   1.621   1.575 -0.1978 -0.3060 -0.0449
  163MOL    C8042524   1.748   1.419   1.626 -0.6730 -0.3605 -0.1708
  163MOL    C8142525   1.859   1.361   1.535  0.8357 -0.1885 -0.0488
  163MOL    C8242526   1.956   1.270   1.563  0.1020  0.0360  0.1175
  163MOL    C8342527   1.964   1.223   1.703 -0.6943 -0.2970 -0.0163
  163MOL    C8442528   2.060   1.216   1.460  0.8334  0.3664  0.7588
  163MOL    H8542529   1.649   1.390   1.591  0.5121 -2.2188 -2.0952
  163MOL    H8642530   1.756   1.370   1.723  0.3496  0.3429  0.1142
  163MOL    H8742531   1.845   1.409   1.440  1.1952  2.1789  1.0586
  163MOL    H8842532   2.034   1.140   1.694 -1.0448 -0.5989  0.0257
  163MOL    H8942533   1.873   1.173   1.735 -1.4800 -0.0913 -1.9015
  163MOL    H9042534   1.999   1.291   1.781  1.2792 -1.5194  0.2247
  163MOL    H9142535   2.037   1.233   1.355  0.3739 -0.5215  0.7090
  163MOL    H9242536   2.064   1.107   1.467 -2.1917  0.2487  1.3138
  163MOL    C9342537   2.199   1.277   1.491 -0.3732  0.7738  0.1685
  163MOL    C9442538   2.201   1.430   1.495  1.4868  0.4906  0.3578
  163MOL    C9542539   2.214   1.508   1.388  0.5143  0.1328 -0.3242
  163MOL    C9642540   2.197   1.659   1.403  0.2482 -0.2109  0.1457
  163MOL    C9742541   2.243   1.465   1.242  0.7459 -0.0114  0.9445
  163MOL    H9842542   2.262   1.236   1.413 -0.3205 -0.5316  0.8837
  163MOL    H9942543   2.239   1.253   1.589  0.4145 -0.2671 -0.4045
  163MOL   H10042544   2.182   1.479   1.590  1.6055 -1.2326  1.2833
  163MOL   H10142545   2.133   1.689   1.321  0.8904  0.0569 -0.2600
  163MOL   H10242546   2.151   1.686   1.498  0.3281 -0.9669  0.4084
  163MOL   H10342547   2.288   1.713   1.377 -0.3733  0.6919 -0.1457
  163MOL   H10442548   2.173   1.506   1.169  1.7252 -1.4580 -0.8400
  163MOL   H10542549   2.226   1.359   1.227 -0.0538  0.1421  0.7411
  163MOL   C10642550   2.390   1.497   1.205  0.5404  0.4165 -0.2363
  163MOL   C10742551   2.441   1.414   1.090  0.5180 -0.0115  0.2899
  163MOL   C10842552   2.533   1.311   1.093 -0.0971 -0.3744 -0.0882
  163MOL   C10942553   2.595   1.253   1.224  0.2905  0.0330  0.0506
  163MOL   C11042554   2.602   1.261   0.965  0.0178  0.2734 -0.1348
  163MOL   H11142555   2.451   1.473   1.292  1.2598  2.2931 -0.2013
  163MOL   H11242556   2.401   1.605   1.190 -1.5564  0.3742 -2.3280
  163MOL   H11342557   2.403   1.448   0.995  1.9968  1.0599  0.0724
  163MOL   H11442558   2.568   1.148   1.223 -1.5600  0.4836 -3.1010
  163MOL   H11542559   2.704   1.265   1.219  0.5894 -2.3421  0.4196
  163MOL   H11642560   2.574   1.299   1.321  0.1187 -0.8990  0.4618
  163MOL   H11742561   2.589   1.153   0.956  1.9352 -0.0808  1.0608
  163MOL   H11842562   2.706   1.270   0.996 -0.4857  2.4738  0.9774
  163MOL   C11942563   2.575   1.315   0.822 -0.8197 -0.1312  0.0492
  163MOL   C12042564   2.686   1.273   0.727 -0.3804  0.6649 -0.6364
  163MOL   C12142565   2.753   1.356   0.649  0.2568  0.1628 -0.1417
  163MOL   C12242566   2.873   1.299   0.567 -0.2053  0.4925  0.6138
  163MOL   C12342567   2.738   1.511   0.642 -0.4055  0.6989 -0.6328
  163MOL   H12442568   2.576   1.424   0.821 -1.1614 -0.1412 -2.4384
  163MOL   H12542569   2.479   1.287   0.781  0.2207 -1.7482 -1.3415
  163MOL   H12642570   2.695   1.166   0.718  0.3466  0.6845 -0.1467
  163MOL   H12742571   2.860   1.191   0.556 -1.2616  0.8942 -2.6194
  163MOL   H12842572   2.961   1.305   0.631  0.8575  1.7399 -0.9566
  163MOL   H12942573   2.888   1.342   0.469 -2.0407 -0.1523  0.0280
  163MOL   H13042574   2.648   1.559   0.681  0.2132 -2.3259  5.1377
  163MOL   H13142575   2.739   1.543   0.538  0.8039 -0.5603 -1.0257
  163MOL   C13242576   2.857   1.573   0.709 -0.5594  0.2435 -0.0386
  163MOL   C13342577   2.856   1.539   0.857  0.0368  0.7239 -0.0339
  163MOL   C13442578   2.793   1.613   0.952 -0.6259  0.3103 -0.2862
  163MOL   C13542579   2.794   1.560   1.087 -0.4924  0.2677 -0.3868
  163MOL   C13642580   2.739   1.753   0.939  0.8071  0.0636 -0.0703
  163MOL   H13742581   2.856   1.681   0.692 -0.3530  0.4690  1.3312
  163MOL   H13842582   2.949   1.532   0.668 -0.6685  0.3871 -0.4273
  163MOL   H13942583   2.885   1.438   0.882  1.2288  0.5985 -1.8561
  163MOL   H14042584   2.839   1.461   1.092 -0.4520  0.2161 -1.7564
  163MOL   H14142585   2.707   1.547   1.151  0.5613 -2.2409  0.6250
  163MOL   H14242586   2.866   1.627   1.135  0.0448 -0.8283  0.3484
  163MOL   H14342587   2.788   1.791   0.849 -0.1350  0.3929 -0.4595
  163MOL   H14442588   2.784   1.818   1.013 -0.8919  2.0267 -0.7192
  163MOL   C14542589   2.586   1.745   0.939 -0.1635  0.4259 -0.0788
  163MOL   C14642590   2.538   1.879   0.874  0.6939  0.9962  0.1294
  163MOL   C14742591   2.427   1.944   0.906  0.2451  0.2529 -0.5645
  163MOL   C14842592   2.405   2.081   0.855  0.4378 -0.3522 -0.8629
  163MOL   C14942593   2.314   1.897   1.001 -0.2180 -0.3736  0.1217
  163MOL   H15042594   2.536   1.743   1.036 -2.5885  2.2456 -1.2512
  163MOL   H15142595   2.535   1.663   0.888  0.4188  0.1694 -0.2499
  163MOL   H15242596   2.603   1.930   0.805 -0.2184  2.9860  0.6998
  163MOL   H15342597   2.441   2.096   0.753 -2.2058  0.2968 -1.7234
  163MOL   H15442598   2.466   2.148   0.917  0.2922  2.0864 -3.2464
  163MOL   H15542599   2.299   2.107   0.851  0.2443 -0.6521  1.5474
  163MOL   H15642600   2.321   1.788   1.001 -1.3561 -0.4586 -0.0727
  163MOL   H15742601   2.219   1.904   0.947 -0.1042 -1.4206 -0.2411
  163MOL   C15842602   2.317   1.952   1.139  0.0381  0.0599 -0.5239
  163MOL   C15942603   2.268   2.100   1.151  0.5873  0.2588  0.3883
  163MOL   C16042604   2.338   2.205   1.186 -0.4746  0.1988 -0.2423
  163MOL   C16142605   2.489   2.195   1.219  0.2626 -0.2711 -0.3730
  163MOL   C16242606   2.266   2.344   1.182  0.1383 -0.0164 -0.5502
  163MOL   H16342607   2.416   1.937   1.182  0.5437 -0.2631 -1.7768
  163MOL   H16442608   2.250   1.901   1.208  2.0516 -1.4330  0.3948
  163MOL   H16542609   2.163   2.110   1.129  0.3927 -3.5098 -0.8261
  163MOL   H16642610   2.539   2.286   1.187  0.9907 -0.3895  0.4179
  163MOL   H16742611   2.542   2.115   1.166 -0.5653  0.2183 -1.9552
  163MOL   H16842612   2.504   2.174   1.325  0.9408  0.0357 -0.4040
  163MOL   H16942613   2.294   2.397   1.273  2.4881 -0.5066 -0.9731
  163MOL   H17042614   2.157   2.333   1.174  0.1769 -0.2532 -0.7529
  163MOL   C17142615   2.305   2.434   1.059  0.3024  0.0770  0.4942
  163MOL   C17242616   2.215   2.401   0.935  0.4195 -1.0039 -0.0059
  163MOL   C17342617   2.241   2.429   0.805  0.7707  0.2731  0.3333
  163MOL   C17442618   2.377   2.480   0.753 -1.0635 -0.3769  0.2368
  163MOL   C17542619   2.140   2.398   0.694 -0.2512 -0.2231  0.3862
  163MOL   H17642620   2.411   2.418   1.039  0.6253 -2.1069  3.6255
  163MOL   H17742621   2.303   2.540   1.084 -0.7581  0.1583  0.0899
  163MOL   H17842622   2.119   2.372   0.974 -0.3089  1.2933 -0.0413
  163MOL   H17942623   2.431   2.396   0.710  2.1631  2.3541 -1.2083
  163MOL   H18042624   2.434   2.513   0.839  0.7513 -0.1075 -1.0511
  163MOL   H18142625   2.361   2.551   0.672 -0.4041  0.6215  0.9685
  163MOL   H18242626   2.137   2.479   0.621 -1.7467 -2.1727 -1.7730
  163MOL   H18342627   2.045   2.393   0.747  0.5077  0.9797  1.9130
  163MOL   C18442628   2.177   2.266   0.627 -0.3936  0.2703 -0.5080
  163MOL   C18542629   2.075   2.222   0.525 -1.0066  0.5350  0.2861
  163MOL   C18642630   2.092   2.110   0.449  0.1810  0.0685 -0.6369
  163MOL   C18742631   1.981   2.054   0.360  0.1053  0.1233 -0.3803
  163MOL   C18842632   2.212   2.020   0.453  0.8106  0.8378 -0.0588
  163MOL   H18942633   2.189   2.190   0.704  0.1597 -1.2160 -2.0195
  163MOL   H19042634   2.271   2.274   0.573 -0.7743  0.7577 -1.1047
  163MOL   H19142635   1.980   2.271   0.510 -0.4804  1.5675  0.2793
  163MOL   H19242636   1.939   1.959   0.391  1.0632 -0.5025 -0.9783
  163MOL   H19342637   2.023   2.039   0.260  3.3159 -2.7814  1.3075
  163MOL   H19442638   1.896   2.122   0.359  1.9338  2.5205  1.5090
  163MOL   H19542639   2.301   2.072   0.487  1.3714 -0.9751  1.3444
  163MOL   H19642640   2.232   1.984   0.352  0.4639  0.6024 -0.0471
  163MOL   C19742641   2.208   1.902   0.544 -0.4831  0.1060 -0.1417
  163MOL   C19842642   2.318   1.798   0.512  0.3253 -0.9548  0.4373
  163MOL   C19942643   2.322   1.675   0.557 -0.1458 -0.1561  0.4577
  163MOL   C20042644   2.413   1.570   0.495 -0.2387 -0.4912  0.2359
  163MOL   C20142645   2.219   1.608   0.644 -0.1743  0.3377  0.2688
  163MOL   H20242646   2.108   1.859   0.538 -1.0588  1.4587 -0.3461
  163MOL   H20342647   2.215   1.931   0.649 -1.7927  1.2364 -0.3510
  163MOL   H20442648   2.381   1.828   0.430 -0.6412  1.8056  0.6482
  163MOL   H20542649   2.492   1.621   0.439 -0.3070 -1.8943 -1.1921
  163MOL   H20642650   2.353   1.503   0.433 -0.3588 -1.2063  1.1146
  163MOL   H20742651   2.468   1.510   0.568 -0.3958 -0.2512  0.5481
  163MOL   H20842652   2.183   1.514   0.602 -0.6681  0.1148  1.1650
  163MOL   H20942653   2.132   1.673   0.649 -1.1235 -1.0279  1.8750
  163MOL   C21042654   2.252   1.589   0.791 -0.5276  0.2557 -0.7138
  163MOL   C21142655   2.121   1.565   0.872 -0.0898 -0.2394 -0.3705
  163MOL   C21242656   2.079   1.447   0.927 -0.2464  0.1646 -0.3056
  163MOL   C21342657   1.956   1.426   1.012 -0.2506  0.3192 -0.2593
  163MOL   C21442658   2.167   1.322   0.919 -0.2477  0.2490  0.7797
  163MOL   H21542659   2.310   1.673   0.828 -0.2110  1.1348 -3.0705
  163MOL   H21642660   2.325   1.509   0.798  0.6951  1.3861 -0.2839
  163MOL   H21742661   2.057   1.651   0.877 -1.9753 -1.6005 -0.3533
  163MOL   H21842662   1.887   1.353   0.968  0.3850 -0.2496 -0.3230
  163MOL   H21942663   1.897   1.517   1.018 -2.3607 -0.9923 -0.6392
  163MOL   H22042664   1.977   1.403   1.117 -3.1505 -2.4067 -0.2000
  163MOL   H22142665   2.195   1.288   1.018 -2.4484 -1.3051  0.9221
  163MOL   H22242666   2.251   1.334   0.851 -1.0424 -1.1608 -0.4816
  163MOL   C22342667   2.100   1.197   0.860 -0.1037  0.4305  0.2593
  163MOL   C22442668   2.169   1.071   0.909 -0.8482  0.2106 -0.2641
  163MOL   C22542669   2.116   0.978   0.992  0.4031 -0.2412  0.9963
  163MOL   C22642670   2.206   0.860   1.027  0.0533  0.0663 -0.3850
  163MOL   C22742671   1.976   0.977   1.070  0.2897  1.2353  0.4290
  163MOL   H22842672   2.125   1.182   0.755 -2.3358 -2.2990  0.0359
  163MOL   H22942673   1.993   1.178   0.873  0.2498 -4.6130 -2.7573
  163MOL   H23042674   2.270   1.064   0.873  0.1528  1.7597  2.1670
  163MOL   H23142675   2.282   0.837   0.952  1.5757  0.4528  1.0137
  163MOL   H23242676   2.149   0.767   1.037 -0.9873  0.7299 -0.0696
  163MOL   H23342677   2.246   0.883   1.125 -1.8270  1.0886  0.1657
  163MOL   H23442678   1.941   1.080   1.082  1.6500  1.7793 -0.2078
  163MOL   H23542679   1.993   0.941   1.171 -1.0434 -1.1686 -0.1721
  163MOL   C23642680   1.872   0.886   1.001  0.3346 -0.3501  0.3881
  163MOL   C23742681   1.739   0.890   1.061 -0.2425 -1.4003  0.7233
  163MOL   C23842682   1.633   0.837   0.994 -0.1248 -0.0532  0.2151
  163MOL   C23942683   1.493   0.833   1.055  0.9240  0.0163 -0.9843
  163MOL   C24042684   1.641   0.770   0.855 -0.2950  0.9090 -0.0259
  163MOL   H24142685   1.917   0.786   1.006  3.4139  0.9178 -0.7554
  163MOL   H24242686   1.870   0.918   0.897  0.2199  0.0218  0.5026
  163MOL   H24342687   1.737   0.939   1.157  2.8207 -0.9581  0.6083
  163MOL   H24442688   1.474   0.741   1.111 -2.3749  1.0681 -0.2763
  163MOL   H24542689   1.406   0.808   0.995 -0.7848  1.8602  0.6820
  163MOL   H24642690   1.483   0.913   1.128 -2.3975 -0.8828 -0.3914
  163MOL   H24742691   1.564   0.693   0.855 -0.7103  1.3090  2.1987
  163MOL   H24842692   1.737   0.721   0.844 -0.9460 -0.5096  0.4338
  163MOL   C24942693   1.634   0.869   0.736  0.3281 -0.2520 -0.2219
  163MOL   C25042694   1.504   0.937   0.723  0.0146  0.6565 -0.0868
  163MOL   C25142695   1.483   1.066   0.705 -0.1082  0.4965 -0.2029
  163MOL   C25242696   1.342   1.129   0.707 -0.2256 -0.1423 -0.2356
  163MOL   C25342697   1.592   1.166   0.673  0.2371  0.2059 -0.3409
  163MOL   H25442698   1.652   0.813   0.644  0.2745  0.1828 -0.4995
  163MOL   H25542699   1.717   0.939   0.744 -0.6437  0.8230  0.6927
  163MOL   H25642700   1.415   0.878   0.739 -0.3874  1.1916 -0.3503
  163MOL   H25742701   1.264   1.053   0.695  0.9064 -1.6229  1.5142
  163MOL   H25842702   1.328   1.199   0.625 -0.0502  1.1997  0.8521
  163MOL   H25942703   1.335   1.183   0.801  1.1636 -2.7114  1.4099
  163MOL   H26042704   1.633   1.130   0.579 -1.0715  0.0467 -0.8632
  163MOL   H26142705   1.664   1.172   0.755 -2.1033  0.6630  1.7484
  163MOL   H26242706   1.558   1.268   0.656 -1.2492  0.0143  1.3223
  164MOL     C142707   0.703   5.390   6.870  1.1211 -0.6069  0.6176
  164MOL     C242708   0.808   5.459   6.787  0.1706 -0.1736 -0.2940
  164MOL     C342709   0.906   5.394   6.721  0.0133 -0.6789  0.3958
  164MOL     C442710   1.018   5.458   6.642 -0.1950  0.4074 -0.7568
  164MOL     C542711   0.922   5.247   6.698  0.5513  0.2126  0.2557
  164MOL     H642712   0.672   5.291   6.840  0.6164 -0.4777  0.7063
  164MOL     H742713   0.741   5.408   6.971  0.8420  2.9654  0.1656
  164MOL     H842714   0.809   5.566   6.795 -0.5766 -0.3290  2.2099
  164MOL     H942715   1.114   5.418   6.674 -0.7621  0.3779  0.9100
  164MOL    H1042716   1.037   5.565   6.655 -0.8983  0.5447 -0.8441
  164MOL    H1142717   1.006   5.447   6.534 -0.7765 -0.8962 -0.5728
  164MOL    H1242718   0.885   5.207   6.793 -0.7168  1.9999  0.5444
  164MOL    H1342719   1.029   5.225   6.698  0.8085  1.4232  0.5548
  164MOL    H1442720   0.618   5.457   6.854 -0.7667 -3.1567 -0.2724
  164MOL    C1542721   0.855   5.200   6.569 -0.4193 -0.7994  0.3962
  164MOL    C1642722   0.863   5.044   6.578  0.5781  0.1887  0.3551
  164MOL    C1742723   0.932   4.972   6.487  0.6601  0.6600 -0.2884
  164MOL    C1842724   0.964   4.825   6.521 -0.4415  0.3537 -0.1957
  164MOL    C1942725   0.992   5.025   6.356 -0.6717 -0.5324 -0.0710
  164MOL    H2042726   0.911   5.236   6.483 -2.0225  1.0753  0.0902
  164MOL    H2142727   0.752   5.235   6.567  0.2204  1.1907  1.0309
  164MOL    H2242728   0.831   5.001   6.671 -1.1347 -0.8276 -0.6679
  164MOL    H2342729   1.070   4.822   6.545  0.1691  0.3500 -2.7625
  164MOL    H2442730   0.952   4.766   6.430  0.5088  0.8261 -0.6342
  164MOL    H2542731   0.898   4.792   6.601 -1.0362 -0.6933 -1.1071
  164MOL    H2642732   0.947   5.113   6.311 -0.3978  0.6247  1.8325
  164MOL    H2742733   0.980   4.948   6.281  1.3474  0.7524 -1.7460
  164MOL    C2842734   1.144   5.053   6.383 -0.1394 -0.1772 -0.3868
  164MOL    C2942735   1.236   5.066   6.256  0.0040 -0.0119  0.1326
  164MOL    C3042736   1.329   5.159   6.234  0.2807  0.2946 -0.1103
  164MOL    C3142737   1.425   5.141   6.120  0.3528  0.1144  0.2810
  164MOL    C3242738   1.360   5.269   6.337 -0.1439  0.1559  0.8086
  164MOL    H3342739   1.194   4.972   6.437 -0.6162 -0.3826 -0.2500
  164MOL    H3442740   1.151   5.148   6.435 -1.6565 -0.6807  0.7639
  164MOL    H3542741   1.227   4.990   6.180  1.4232 -0.5835  0.5200
  164MOL    H3642742   1.505   5.071   6.143 -0.6291 -0.9809  0.4249
  164MOL    H3742743   1.466   5.236   6.086 -1.9679  0.4718 -1.6242
  164MOL    H3842744   1.374   5.088   6.039  2.7360  0.3321 -1.4330
  164MOL    H3942745   1.467   5.259   6.356  0.3398 -1.2011 -2.2885
  164MOL    H4042746   1.312   5.271   6.435  0.6015  0.2202  1.1745
  164MOL    C4142747   1.310   5.402   6.276  0.0228  0.3135 -0.8906
  164MOL    C4242748   1.353   5.523   6.359  0.4036  0.0073 -0.9004
  164MOL    C4342749   1.269   5.627   6.389  0.4685  1.3142 -0.1718
  164MOL    C4442750   1.327   5.746   6.467 -0.5047 -0.4924 -0.2253
  164MOL    C4542751   1.125   5.647   6.350 -0.0883  0.9487 -0.3815
  164MOL    H4642752   1.203   5.404   6.253  0.4566 -0.1610 -2.9820
  164MOL    H4742753   1.368   5.416   6.185 -0.2434  1.0873 -0.9473
  164MOL    H4842754   1.456   5.532   6.391  0.4478 -1.2817 -0.6613
  164MOL    H4942755   1.434   5.727   6.483 -0.2668  0.5543 -0.5613
  164MOL    H5042756   1.277   5.755   6.564  0.9645  1.2629  0.3968
  164MOL    H5142757   1.323   5.840   6.412 -0.5478  0.7176  1.7793
  164MOL    H5242758   1.068   5.631   6.442  2.1234 -1.5326  0.6055
  164MOL    H5342759   1.092   5.576   6.275  1.5799 -0.4813  0.2077
  164MOL    C5442760   1.081   5.791   6.291 -0.1810  0.6323  0.5254
  164MOL    C5542761   0.932   5.797   6.253  0.3172 -0.5304 -0.5445
  164MOL    C5642762   0.833   5.854   6.327  0.5996 -0.4055  0.4161
  164MOL    C5742763   0.694   5.866   6.261  0.0724  0.4912 -0.5179
  164MOL    C5842764   0.848   5.913   6.465 -0.4860 -0.5236 -0.5727
  164MOL    H5942765   1.132   5.808   6.196  0.1818  0.7044  0.7338
  164MOL    H6042766   1.111   5.876   6.352 -1.9019  1.9184 -0.3718
  164MOL    H6142767   0.905   5.758   6.157 -2.6776 -0.6842  0.3160
  164MOL    H6242768   0.681   5.954   6.198 -1.6325  0.1383 -0.6776
  164MOL    H6342769   0.622   5.882   6.341  1.1169  0.1727  0.4944
  164MOL    H6442770   0.682   5.782   6.193  2.0949 -0.4044  0.1961
  164MOL    H6542771   0.949   5.888   6.498 -1.2446 -2.0182  0.7091
  164MOL    H6642772   0.788   5.869   6.545  0.5076 -0.0803  0.4353
  164MOL    C6742773   0.840   6.069   6.459 -0.0734  0.2725 -0.1967
  164MOL    C6842774   0.863   6.136   6.594  0.2130  0.8455  0.1725
  164MOL    C6942775   0.777   6.210   6.667 -0.9023  0.0333  0.1219
  164MOL    C7042776   0.815   6.269   6.800 -0.4250 -0.6707  0.0156
  164MOL    C7142777   0.632   6.234   6.631  0.0684 -0.0206  0.0764
  164MOL    H7242778   0.749   6.103   6.409  0.5312  0.4355 -1.2063
  164MOL    H7342779   0.920   6.104   6.393  1.1841 -1.5597  0.3068
  164MOL    H7442780   0.960   6.126   6.642  1.1565  2.6069 -1.3109
  164MOL    H7542781   0.767   6.233   6.891  3.4488  1.7769  3.2012
  164MOL    H7642782   0.794   6.376   6.796  0.9474 -0.4261 -0.9241
  164MOL    H7742783   0.921   6.272   6.823  0.0359  1.6244 -2.1789
  164MOL    H7842784   0.601   6.212   6.529 -0.3542  0.5959  0.0675
  164MOL    H7942785   0.630   6.342   6.647  3.5681 -0.2684  2.5218
  164MOL    C8042786   0.539   6.154   6.727  0.8004 -0.4398  0.5903
  164MOL    C8142787   0.520   6.012   6.672  0.0087  0.2687 -0.0875
  164MOL    C8242788   0.399   5.957   6.647  0.2198  0.2658  0.6001
  164MOL    C8342789   0.261   6.035   6.635 -0.6846  0.2442 -0.4620
  164MOL    C8442790   0.376   5.808   6.639 -0.1931 -0.3403  0.4258
  164MOL    H8542791   0.446   6.210   6.718  1.2626  0.2766  0.2289
  164MOL    H8642792   0.556   6.151   6.834 -2.2722  2.9567  1.2758
  164MOL    H8742793   0.613   5.957   6.673  1.6995  2.9712  3.7654
  164MOL    H8842794   0.177   5.973   6.602 -2.4504  2.2019  0.2428
  164MOL    H8942795   0.256   6.119   6.565 -0.4713  1.4882  1.0016
  164MOL    H9042796   0.236   6.079   6.732  1.0984  0.8361 -0.2602
  164MOL    H9142797   0.315   5.781   6.552  1.1609  3.3248 -1.7520
  164MOL    H9242798   0.320   5.767   6.723  0.5169 -1.9609  0.1238
  164MOL    C9342799   0.500   5.720   6.636  0.1689 -0.7755  0.1602
  164MOL    C9442800   0.466   5.573   6.656  0.0349  0.2884 -0.1033
  164MOL    C9542801   0.463   5.482   6.557 -0.1151 -0.8835  0.2945
  164MOL    C9642802   0.433   5.340   6.567 -0.6238  0.0483 -0.2519
  164MOL    C9742803   0.496   5.521   6.408 -0.1817  0.1024  0.5456
  164MOL    H9842804   0.564   5.750   6.719  1.0871 -2.4217  0.0607
  164MOL    H9942805   0.564   5.741   6.550  0.5063  1.5294  0.9329
  164MOL   H10042806   0.446   5.529   6.752 -2.1817 -0.5572 -0.9206
  164MOL   H10142807   0.394   5.315   6.666 -0.3433  0.7217  0.0337
  164MOL   H10242808   0.355   5.309   6.498 -1.4820  1.4981  0.0442
  164MOL   H10342809   0.525   5.283   6.556 -0.1768  0.3196  1.7889
  164MOL   H10442810   0.482   5.626   6.383 -0.6212 -1.0195 -4.5507
  164MOL   H10542811   0.419   5.470   6.349  0.6580  1.0159 -1.3857
  164MOL   C10642812   0.634   5.482   6.355  0.6086 -0.2716  0.4491
  164MOL   C10742813   0.645   5.516   6.203  0.0548  0.1615 -0.3515
  164MOL   C10842814   0.742   5.493   6.117  0.5867  0.4447 -0.0684
  164MOL   C10942815   0.873   5.416   6.153 -0.4698 -0.1162  0.3598
  164MOL   C11042816   0.728   5.527   5.970  0.1431 -0.4495 -0.0316
  164MOL   H11142817   0.644   5.374   6.364  0.2086 -0.4481 -1.1238
  164MOL   H11242818   0.721   5.525   6.405  0.0063 -0.8058  1.9826
  164MOL   H11342819   0.553   5.559   6.167  0.7746  0.8946 -1.3452
  164MOL   H11442820   0.877   5.313   6.117 -0.0340  0.7561 -2.1437
  164MOL   H11542821   0.953   5.470   6.103  1.3180 -2.8926  0.1023
  164MOL   H11642822   0.897   5.418   6.260  0.4125 -2.7854  0.2455
  164MOL   H11742823   0.722   5.435   5.912 -0.6440  1.0774 -2.4177
  164MOL   H11842824   0.819   5.582   5.943  0.1297  0.4428  1.6613
  164MOL   C11942825   0.609   5.622   5.921 -0.0415  0.5788 -0.7564
  164MOL   C12042826   0.626   5.676   5.781 -0.5049  0.2891  0.2249
  164MOL   C12142827   0.535   5.696   5.686  0.0111  0.0495 -0.5980
  164MOL   C12242828   0.574   5.769   5.556 -0.1830  0.1941 -0.5843
  164MOL   C12342829   0.385   5.673   5.704 -0.3527  0.3537  0.2756
  164MOL   H12442830   0.598   5.711   5.983  0.3218 -0.5302  0.9356
  164MOL   H12542831   0.515   5.567   5.915 -1.7917  3.6611 -2.9131
  164MOL   H12642832   0.728   5.709   5.766 -0.7483  1.5471  1.2708
  164MOL   H12742833   0.682   5.776   5.541 -0.2382  2.2297 -0.1820
  164MOL   H12842834   0.522   5.864   5.553 -1.4377 -0.5109 -1.3709
  164MOL   H12942835   0.530   5.728   5.465  1.2136  0.9799 -1.6280
  164MOL   H13042836   0.333   5.769   5.689 -1.0295 -0.2645 -1.5278
  164MOL   H13142837   0.353   5.635   5.801 -2.2202 -0.3425 -0.5865
  164MOL   C13242838   0.326   5.578   5.599  0.4762 -0.2093 -0.2889
  164MOL   C13342839   0.176   5.575   5.596  0.5027  0.4259 -0.2112
  164MOL   C13442840   0.094   5.475   5.635  0.2226 -0.3351  0.0536
  164MOL   C13542841   7.822   5.501   5.637 -0.1237 -0.9232 -0.7521
  164MOL   C13642842   0.145   5.333   5.662  0.5568  0.7841 -0.6657
  164MOL   H13742843   0.367   5.477   5.606  2.3944  0.5740  0.2080
  164MOL   H13842844   0.348   5.611   5.497  2.3262  0.8344  0.4357
  164MOL   H13942845   0.123   5.667   5.576  0.4417  0.4409  0.0079
  164MOL   H14042846   7.765   5.442   5.565 -2.7266 -0.1869  0.6511
  164MOL   H14142847   7.806   5.608   5.626 -1.7742 -0.9373  1.2063
  164MOL   H14242848   7.779   5.472   5.733  0.9634 -1.3707 -0.3949
  164MOL   H14342849   0.249   5.314   5.635  0.8298  0.9250  0.2708
  164MOL   H14442850   0.069   5.273   5.612 -1.5381  1.9619  1.0061
  164MOL   C14542851   0.135   5.292   5.814 -0.6216  0.4640 -0.1754
  164MOL   C14642852   0.186   5.151   5.824  0.2262 -0.3870  0.2406
  164MOL   C14742853   0.250   5.104   5.932  0.2594 -0.9251  1.2444
  164MOL   C14842854   0.296   4.957   5.942  0.2698  0.2007 -0.0796
  164MOL   C14942855   0.282   5.187   6.055 -0.2419  0.5740  0.3324
  164MOL   H15042856   0.031   5.288   5.847 -0.2619  1.0059  1.0261
  164MOL   H15142857   0.188   5.370   5.868  0.6832 -0.8374  0.4631
  164MOL   H15242858   0.155   5.086   5.743  0.5553  2.1917 -1.9967
  164MOL   H15342859   0.240   4.896   6.014  1.3091 -0.2773  0.3354
  164MOL   H15442860   0.398   4.943   5.976 -0.4086 -0.3665  1.8203
  164MOL   H15542861   0.285   4.906   5.847 -1.2056 -0.4439  0.4181
  164MOL   H15642862   0.259   5.136   6.149  0.0076 -0.3373 -0.0975
  164MOL   H15742863   0.211   5.267   6.073 -1.0993  0.3604 -1.9731
  164MOL   C15842864   0.432   5.240   6.047 -0.2262 -0.6000  0.1118
  164MOL   C15942865   0.536   5.151   6.095  0.2405  0.4106  0.4039
  164MOL   C16042866   0.629   5.078   6.032 -0.0205 -0.1574  0.9520
  164MOL   C16142867   0.644   5.095   5.881 -0.2856  0.4503  0.0061
  164MOL   C16242868   0.721   4.986   6.107  0.2410  0.1461 -0.0749
  164MOL   H16342869   0.445   5.333   6.103  2.6980 -0.8619 -0.0903
  164MOL   H16442870   0.448   5.269   5.943 -0.9423 -0.3544  0.0658
  164MOL   H16542871   0.535   5.139   6.203 -1.4080  0.1855  0.3789
  164MOL   H16642872   0.554   5.128   5.829 -0.6894 -3.6272 -2.1020
  164MOL   H16742873   0.660   4.997   5.837 -0.7064  0.2370  0.3295
  164MOL   H16842874   0.729   5.158   5.854  0.9860 -1.5729 -0.8263
  164MOL   H16942875   0.717   5.008   6.213 -0.6565 -0.2585 -0.0152
  164MOL   H17042876   0.822   5.003   6.071 -0.1622  0.9261 -0.8779
  164MOL   C17142877   0.671   4.844   6.086  0.0563 -0.0395  0.0871
  164MOL   C17242878   0.744   4.742   6.170 -0.3059  0.4922 -0.5509
  164MOL   C17342879   0.685   4.644   6.241 -0.4359  0.4384 -0.1146
  164MOL   C17442880   0.539   4.598   6.206 -0.1438  0.5604 -0.5438
  164MOL   C17542881   0.758   4.545   6.330  0.6335 -0.0516  0.0322
  164MOL   H17642882   0.675   4.801   5.986  0.6176 -3.0682  1.3485
  164MOL   H17742883   0.567   4.854   6.117 -0.4881 -2.4718 -0.8032
  164MOL   H17842884   0.848   4.764   6.185  0.6697 -1.4282 -4.0758
  164MOL   H17942885   0.490   4.669   6.139  1.0290  1.4169 -0.4962
  164MOL   H18042886   0.492   4.583   6.304  0.2422  0.7595 -0.3261
  164MOL   H18142887   0.554   4.504   6.152 -1.3880  1.2581 -2.1288
  164MOL   H18242888   0.695   4.458   6.341 -0.6193  0.7854 -0.4345
  164MOL   H18342889   0.781   4.587   6.428 -1.5653 -0.5261  0.7738
  164MOL   C18442890   0.893   4.503   6.271  0.4557  0.7547 -0.3113
  164MOL   C18542891   0.975   4.419   6.364 -0.1376  0.1074 -0.1530
  164MOL   C18642892   0.988   4.282   6.371 -0.4199  0.2417  0.4097
  164MOL   C18742893   1.095   4.228   6.458 -0.2751  0.0204  0.9324
  164MOL   C18842894   0.924   4.180   6.276  0.6665  0.4360 -0.5600
  164MOL   H18942895   0.963   4.584   6.247 -0.0183  1.3613  0.3349
  164MOL   H19042896   0.880   4.457   6.173 -3.0791  1.0708 -0.0553
  164MOL   H19142897   1.024   4.477   6.441  2.6434 -2.4020  0.0754
  164MOL   H19242898   1.180   4.206   6.393 -0.9894 -0.0934  0.0275
  164MOL   H19342899   1.062   4.143   6.517  0.7168 -0.5012  0.7528
  164MOL   H19442900   1.134   4.299   6.530 -3.0016  1.3387  1.1404
  164MOL   H19542901   1.000   4.104   6.256 -0.3077 -0.5718 -0.4534
  164MOL   H19642902   0.907   4.236   6.184  2.1740 -0.8292 -1.6345
  164MOL   C19742903   0.801   4.120   6.333  0.1850 -0.1911  0.3528
  164MOL   C19842904   0.757   3.999   6.239  0.1967  0.6286 -0.4480
  164MOL   C19942905   0.708   3.881   6.280  0.4932 -0.5707 -0.0459
  164MOL   C20042906   0.659   3.770   6.180  0.2289  0.3841 -0.2309
  164MOL   C20142907   0.700   3.846   6.425 -0.5244 -0.1363  0.8132
  164MOL   H20242908   0.727   4.200   6.322  1.2261  0.4552 -2.2731
  164MOL   H20342909   0.814   4.103   6.440 -1.3363 -1.6479  0.3257
  164MOL   H20442910   0.760   4.016   6.133 -0.0079  1.6696 -0.2929
  164MOL   H20542911   0.551   3.785   6.169  0.2954  0.5448 -0.7065
  164MOL   H20642912   0.687   3.669   6.208 -1.8013 -0.6665 -1.8082
  164MOL   H20742913   0.690   3.782   6.076 -2.5702 -1.6806 -1.3564
  164MOL   H20842914   0.756   3.917   6.485  1.9670  1.2278 -2.9418
  164MOL   H20942915   0.753   3.751   6.424  0.5575  0.4266  2.5367
  164MOL   C21042916   0.551   3.838   6.469 -0.4734 -0.0518 -0.0686
  164MOL   C21142917   0.536   3.808   6.621  0.6619  0.6115 -1.0879
  164MOL   C21242918   0.468   3.712   6.686 -0.4780 -0.0248  0.0890
  164MOL   C21342919   0.462   3.715   6.840  0.0989 -0.2194 -0.1322
  164MOL   C21442920   0.427   3.578   6.630 -0.1011  0.4622 -0.1296
  164MOL   H21542921   0.501   3.761   6.410  0.8436 -1.0797  0.1148
  164MOL   H21642922   0.504   3.933   6.444  0.6075  0.3566 -0.6148
  164MOL   H21742923   0.579   3.885   6.683  0.7369 -1.5065  1.5884
  164MOL   H21842924   0.375   3.657   6.868  1.2806 -1.4862  0.9625
  164MOL   H21942925   0.460   3.814   6.886  3.1407 -1.0917  2.0370
  164MOL   H22042926   0.550   3.672   6.887 -0.6576 -2.0047 -0.3419
  164MOL   H22142927   0.398   3.593   6.525  0.7998 -1.2436 -0.6358
  164MOL   H22242928   0.341   3.539   6.685  0.1411 -0.7156 -0.5667
  164MOL   C22342929   0.550   3.480   6.626 -0.1337  0.1204 -0.2425
  164MOL   C22442930   0.513   3.338   6.590 -0.1844  0.3524  0.1991
  164MOL   C22542931   0.538   3.273   6.477  0.3588  0.4369 -0.0153
  164MOL   C22642932   0.494   3.128   6.467  0.0483 -0.0274  0.5441
  164MOL   C22742933   0.587   3.331   6.344  0.5134  0.1452 -0.4253
  164MOL   H22842934   0.595   3.464   6.724 -0.7929 -1.2451 -0.1386
  164MOL   H22942935   0.637   3.513   6.570  1.4782 -0.6991  1.7080
  164MOL   H23042936   0.475   3.284   6.676 -2.6448  0.2901 -0.8958
  164MOL   H23142937   0.413   3.106   6.536 -1.3896 -0.3009 -1.1958
  164MOL   H23242938   0.577   3.068   6.505 -0.1879 -1.0454 -0.5008
  164MOL   H23342939   0.463   3.096   6.367  1.5979 -0.7473  0.2750
  164MOL   H23442940   0.569   3.437   6.329  1.0625  0.3957  0.6757
  164MOL   H23542941   0.537   3.275   6.265 -0.7293  1.4448 -0.5821
  164MOL   C23642942   0.735   3.295   6.320 -0.2916  0.4473 -0.0984
  164MOL   C23742943   0.757   3.314   6.170  0.1935 -0.6369  0.7019
  164MOL   C23842944   0.787   3.223   6.080 -0.3387 -0.3132 -0.7692
  164MOL   C23942945   0.806   3.271   5.938  0.3525  0.5101  0.5120
  164MOL   C24042946   0.812   3.074   6.106 -0.3176  0.3873 -0.7240
  164MOL   H24142947   0.752   3.190   6.344  1.8563  0.3476 -1.8858
  164MOL   H24242948   0.805   3.354   6.380  0.1671  0.1094 -0.2979
  164MOL   H24342949   0.745   3.417   6.137 -0.1356 -0.7808  0.3773
  164MOL   H24442950   0.751   3.202   5.873  1.3588  0.7961 -0.6663
  164MOL   H24542951   0.904   3.288   5.893 -1.2317  2.6560 -2.3361
  164MOL   H24642952   0.747   3.361   5.922 -0.1664  0.6034  2.8125
  164MOL   H24742953   0.845   3.065   6.210 -5.2348 -0.7038  0.8632
  164MOL   H24842954   0.895   3.036   6.046  0.0691  0.5056 -0.2757
  164MOL   C24942955   0.692   2.988   6.071 -0.6258 -0.0622 -0.4995
  164MOL   C25042956   0.676   2.875   6.170  0.5688  0.4594  0.7508
  164MOL   C25142957   0.716   2.743   6.157  1.0491 -0.6703  0.3852
  164MOL   C25242958   0.683   2.647   6.272  0.3649 -0.9126 -0.2482
  164MOL   C25342959   0.792   2.693   6.036 -0.2991  0.2353  0.9784
  164MOL   H25442960   0.708   2.955   5.968  0.7639 -0.1737 -0.2615
  164MOL   H25542961   0.610   3.055   6.093 -0.9740 -0.9201  0.9402
  164MOL   H25642962   0.632   2.898   6.265  0.6018 -2.2803  1.4699
  164MOL   H25742963   0.636   2.692   6.359  1.6044 -0.5680  0.2574
  164MOL   H25842964   0.774   2.593   6.300  0.9345  0.0566 -0.2132
  164MOL   H25942965   0.618   2.570   6.230  1.1173 -0.9296 -1.4341
  164MOL   H26042966   0.731   2.711   5.948 -0.6331  4.0750  1.9269
  164MOL   H26142967   0.820   2.588   6.048 -1.3360 -0.4098 -1.8574
  164MOL   H26242968   0.883   2.753   6.028  1.3154 -1.5777  4.2669
  165MOL     C142969   4.834   3.757   2.263  0.0807 -0.2780  0.3063
  165MOL     C242970   4.766   3.892   2.284 -0.1577 -0.5532 -0.2816
  165MOL     C342971   4.639   3.905   2.311  0.2635 -0.1081 -0.1567
  165MOL     C442972   4.592   4.053   2.349  0.6868  0.2318 -0.2226
  165MOL     C542973   4.533   3.795   2.312  0.2933  0.4100 -0.0824
  165MOL     H642974   4.939   3.769   2.291 -0.0341 -0.7415  0.9389
  165MOL     H742975   4.788   3.676   2.319  0.0283 -0.2683  0.2771
  165MOL     H842976   4.835   3.975   2.287 -0.1528 -0.6282  4.1711
  165MOL     H942977   4.484   4.052   2.366  1.1519 -0.1529  3.1384
  165MOL    H1042978   4.619   4.132   2.279 -1.2962  1.4831  0.3773
  165MOL    H1142979   4.641   4.066   2.446  2.0651 -1.6273 -0.6526
  165MOL    H1242980   4.579   3.715   2.254 -1.7415 -0.6006 -0.3360
  165MOL    H1342981   4.453   3.833   2.249  0.2540 -1.0180 -0.9378
  165MOL    H1442982   4.830   3.726   2.158  0.2406 -0.3041  0.3079
  165MOL    C1542983   4.502   3.743   2.450 -0.4041 -0.1913 -0.1168
  165MOL    C1642984   4.398   3.636   2.466  0.2880 -0.1863 -0.3695
  165MOL    C1742985   4.395   3.551   2.573 -0.8205  0.1004 -0.3567
  165MOL    C1842986   4.286   3.451   2.576  0.3241 -0.1907 -0.1274
  165MOL    C1942987   4.506   3.542   2.678  0.4449  0.3155 -0.0475
  165MOL    H2042988   4.466   3.825   2.512  0.8040  1.4187 -1.4822
  165MOL    H2142989   4.594   3.720   2.505  0.1472 -1.1972 -1.4419
  165MOL    H2242990   4.315   3.643   2.398  0.5275  1.8824 -0.4808
  165MOL    H2342991   4.329   3.352   2.595  1.3732  0.0996 -0.9841
  165MOL    H2442992   4.235   3.441   2.480  0.2558  1.4630 -0.2629
  165MOL    H2542993   4.211   3.469   2.654 -1.1507  0.8270 -1.7474
  165MOL    H2642994   4.603   3.556   2.630  2.4676  0.1283  3.7315
  165MOL    H2742995   4.506   3.438   2.709  1.5252  0.2895 -0.1084
  165MOL    C2842996   4.493   3.640   2.796  0.4886  0.1835  0.2739
  165MOL    C2942997   4.571   3.600   2.922  0.2384 -0.2460  0.0949
  165MOL    C3042998   4.615   3.669   3.031  0.8025 -0.7259 -0.3504
  165MOL    C3142999   4.712   3.605   3.136  0.3184  0.1607 -0.3690
  165MOL    C3243000   4.579   3.817   3.057 -0.6151  0.7009 -0.2907
  165MOL    H3343001   4.387   3.658   2.815  0.6708 -0.2897  1.8265
  165MOL    H3443002   4.545   3.731   2.768  0.1020  0.0073 -1.0349
  165MOL    H3543003   4.605   3.500   2.902 -1.0058 -0.3245 -1.7146
  165MOL    H3643004   4.681   3.634   3.236 -0.8941 -2.0429 -0.0630
  165MOL    H3743005   4.811   3.646   3.119  0.4072 -0.2577 -0.8402
  165MOL    H3843006   4.728   3.499   3.119 -2.6084 -0.7077  1.8684
  165MOL    H3943007   4.575   3.865   2.959 -2.2984 -0.4522 -0.7906
  165MOL    H4043008   4.665   3.865   3.105  1.1492 -1.5884 -1.0776
  165MOL    C4143009   4.445   3.837   3.139  0.0947  0.7544  0.7698
  165MOL    C4243010   4.430   3.972   3.206  0.6628 -0.2233 -0.1460
  165MOL    C4343011   4.461   4.005   3.330 -0.5451 -0.6911 -0.0752
  165MOL    C4443012   4.441   4.146   3.384  0.1320  0.1536  0.2509
  165MOL    C4543013   4.515   3.913   3.438 -0.4333 -0.0124  1.1127
  165MOL    H4643014   4.449   3.780   3.232  0.8112  2.4966  1.8250
  165MOL    H4743015   4.362   3.814   3.072  1.7216  0.5058 -1.2233
  165MOL    H4843016   4.407   4.057   3.144 -0.4940 -0.5159 -0.1499
  165MOL    H4943017   4.464   4.215   3.303 -2.7599 -0.9589 -1.6243
  165MOL    H5043018   4.509   4.174   3.464  0.4858  1.0363 -0.3517
  165MOL    H5143019   4.333   4.144   3.397 -0.0895 -1.3264 -1.5353
  165MOL    H5243020   4.585   3.956   3.509 -0.9026  2.0042  0.3897
  165MOL    H5343021   4.564   3.827   3.392  0.1463  0.1921  1.3457
  165MOL    C5443022   4.394   3.868   3.521 -0.3756  0.1376 -0.3693
  165MOL    C5543023   4.437   3.772   3.627 -0.8375  0.2685  0.0933
  165MOL    C5643024   4.384   3.655   3.662  0.1752  0.1597 -0.5266
  165MOL    C5743025   4.457   3.558   3.757  0.0765  0.4142 -0.7091
  165MOL    C5843026   4.253   3.599   3.589 -0.1892  0.3648 -0.4876
  165MOL    H5943027   4.321   3.832   3.448 -0.7610 -0.4628  0.3085
  165MOL    H6043028   4.354   3.945   3.587  1.1461 -0.9428  1.8778
  165MOL    H6143029   4.522   3.813   3.681  0.1775 -0.7430 -0.7054
  165MOL    H6243030   4.387   3.482   3.793  0.7585 -0.2881 -0.8433
  165MOL    H6343031   4.500   3.604   3.846 -0.9605  2.9429 -1.4786
  165MOL    H6443032   4.527   3.504   3.694  0.6841 -0.7183  0.8914
  165MOL    H6543033   4.185   3.672   3.547 -1.2392 -0.3813 -0.0966
  165MOL    H6643034   4.189   3.552   3.664  0.5392  1.3654  0.7830
  165MOL    C6743035   4.287   3.494   3.483 -0.2917 -0.1642 -0.4146
  165MOL    C6843036   4.163   3.441   3.405  0.2036  0.8563 -0.0663
  165MOL    C6943037   4.101   3.488   3.291 -0.0834  0.9734 -0.3238
  165MOL    C7043038   3.979   3.420   3.222 -0.5205 -0.1365 -0.9377
  165MOL    C7143039   4.140   3.627   3.238  0.0714  0.1502  0.1795
  165MOL    H7243040   4.333   3.412   3.537 -1.6519 -0.4208  0.3870
  165MOL    H7343041   4.376   3.524   3.429  1.3899 -0.5968  2.0169
  165MOL    H7443042   4.131   3.342   3.432  0.3556  0.9814  0.5732
  165MOL    H7543043   3.883   3.470   3.235 -0.4961 -0.1619 -0.6473
  165MOL    H7643044   3.981   3.318   3.261  0.0001  0.1986 -0.0722
  165MOL    H7743045   3.993   3.416   3.114  1.4813 -1.2892 -0.6636
  165MOL    H7843046   4.184   3.608   3.141  3.4680 -0.3707  1.7447
  165MOL    H7943047   4.214   3.675   3.302  0.8935  1.7164 -1.9243
  165MOL    C8043048   4.023   3.730   3.228  0.5644  0.0226  0.0021
  165MOL    C8143049   4.081   3.853   3.156 -0.9306  0.1127 -0.1039
  165MOL    C8243050   4.076   3.982   3.193  0.8974  0.7016  0.1763
  165MOL    C8343051   4.021   4.029   3.326 -0.2525 -0.0894  0.0473
  165MOL    C8443052   4.131   4.099   3.107 -0.2488  0.5420 -0.0773
  165MOL    H8543053   3.984   3.753   3.327  0.9580  0.4952  0.0538
  165MOL    H8643054   3.951   3.681   3.164 -1.9795  1.1752  1.9014
  165MOL    H8743055   4.116   3.835   3.056  2.6811 -0.0874  1.1270
  165MOL    H8843056   3.918   4.066   3.319 -1.0434 -2.4157 -1.3582
  165MOL    H8943057   4.072   4.117   3.364 -1.5960  0.0964  1.4974
  165MOL    H9043058   4.033   3.947   3.397  3.3462  0.3663  0.0251
  165MOL    H9143059   4.191   4.070   3.021  1.5938 -6.6286  3.1614
  165MOL    H9243060   4.198   4.154   3.173  0.3279  1.4763 -1.4374
  165MOL    C9343061   4.016   4.187   3.067 -0.4577 -0.3321  0.4228
  165MOL    C9443062   4.057   4.288   2.961 -0.5470 -0.4495  0.5748
  165MOL    C9543063   4.019   4.308   2.836 -0.5748  1.1287 -0.0382
  165MOL    C9643064   4.093   4.420   2.762 -1.1569 -0.0131  0.9197
  165MOL    C9743065   3.924   4.207   2.762 -0.1286 -0.4044 -0.1152
  165MOL    H9843066   3.993   4.235   3.162 -1.0444 -1.1137  0.6800
  165MOL    H9943067   3.928   4.137   3.027 -0.7979  0.5360  0.0734
  165MOL   H10043068   4.137   4.351   2.997  0.1131 -1.5297  1.0392
  165MOL   H10143069   4.149   4.383   2.677 -0.4721 -0.5650  1.5952
  165MOL   H10243070   4.025   4.489   2.713  0.6389 -0.5042 -2.3487
  165MOL   H10343071   4.170   4.474   2.818  0.8305 -1.1486 -0.6445
  165MOL   H10443072   3.875   4.136   2.829 -1.8366  1.5978  0.8278
  165MOL   H10543073   3.985   4.145   2.695  0.0029  0.8760 -1.2097
  165MOL   C10643074   3.809   4.286   2.691  0.0289  0.3463 -0.6787
  165MOL   C10743075   3.754   4.208   2.575 -0.5258 -0.0536 -0.0188
  165MOL   C10843076   3.629   4.178   2.543 -1.1497  0.1731  0.2313
  165MOL   C10943077   3.508   4.221   2.623 -0.3862  0.6642 -0.3974
  165MOL   C11043078   3.596   4.089   2.422 -0.4063  0.3172  0.2195
  165MOL   H11143079   3.851   4.372   2.638  0.7207  0.6071  0.2687
  165MOL   H11243080   3.739   4.320   2.768  0.5092 -0.1145 -0.0282
  165MOL   H11343081   3.827   4.163   2.510 -0.0880  1.6458 -0.7026
  165MOL   H11443082   3.537   4.262   2.720 -1.4935  0.5386  0.0048
  165MOL   H11543083   3.470   4.312   2.576  0.5958  1.3904  0.2005
  165MOL   H11643084   3.439   4.138   2.640  0.3194  0.4028  1.2548
  165MOL   H11743085   3.548   4.000   2.464 -0.6548 -1.5734 -3.8577
  165MOL   H11843086   3.682   4.059   2.362  0.0037 -0.7166  1.3051
  165MOL   C11943087   3.517   4.164   2.318 -0.9140 -0.5990 -0.3685
  165MOL   C12043088   3.480   4.093   2.193  0.3499 -0.1783  0.8933
  165MOL   C12143089   3.368   4.087   2.120  0.0076 -0.9683 -0.2793
  165MOL   C12243090   3.365   4.025   1.981 -0.1365  0.0401  0.8381
  165MOL   C12343091   3.245   4.162   2.169 -0.4075 -0.3497  0.4895
  165MOL   H12443092   3.581   4.241   2.274 -2.3380  0.3877 -0.8002
  165MOL   H12543093   3.433   4.224   2.353  0.5182  0.7931  0.7230
  165MOL   H12643094   3.566   4.044   2.150 -0.8303 -1.3516 -0.1984
  165MOL   H12743095   3.453   3.966   1.957  0.4547  1.4498 -0.5576
  165MOL   H12843096   3.362   4.103   1.905  0.1317 -1.6588 -0.9531
  165MOL   H12943097   3.279   3.958   1.975  0.5115 -0.6311 -1.4967
  165MOL   H13043098   3.187   4.196   2.084  0.7147  0.7875  0.1606
  165MOL   H13143099   3.279   4.256   2.213 -1.0751  0.6331 -1.0779
  165MOL   C13243100   3.169   4.081   2.275 -0.2648 -0.2461 -0.4945
  165MOL   C13343101   3.031   4.135   2.307  0.6893 -0.2868 -0.3150
  165MOL   C13443102   2.985   4.215   2.408  0.8042 -0.8219  1.0248
  165MOL   C13543103   2.835   4.254   2.414 -0.4942  0.3014 -0.5850
  165MOL   C13643104   3.073   4.276   2.516 -0.0604  0.4350  0.5818
  165MOL   H13743105   3.235   4.097   2.361 -1.1813 -0.4752  0.2659
  165MOL   H13843106   3.159   3.974   2.263  0.8127 -0.5210  0.8421
  165MOL   H13943107   2.958   4.121   2.228 -1.2367 -1.5512  1.6337
  165MOL   H14043108   2.825   4.359   2.385  0.9031  0.3340 -0.9939
  165MOL   H14143109   2.801   4.243   2.517  0.3552 -0.3463 -0.3657
  165MOL   H14243110   2.768   4.192   2.355 -0.9319 -0.0735  0.2935
  165MOL   H14343111   3.167   4.222   2.533 -1.2143 -1.8238  0.0226
  165MOL   H14443112   3.015   4.257   2.606 -3.8344 -1.2841 -2.0651
  165MOL   C14543113   3.099   4.432   2.492  0.9403  0.6866 -0.3965
  165MOL   C14643114   3.188   4.494   2.593  0.3000  0.0629  0.2510
  165MOL   C14743115   3.194   4.627   2.615 -0.2109  0.2257  0.3934
  165MOL   C14843116   3.286   4.689   2.712 -0.8164 -0.8205  0.8266
  165MOL   C14943117   3.113   4.734   2.547  0.2058 -0.1822  0.9077
  165MOL   H15043118   3.005   4.484   2.509  0.9657  0.1027  1.7303
  165MOL   H15143119   3.127   4.456   2.389 -0.6267  0.0267 -0.9889
  165MOL   H15243120   3.261   4.430   2.640 -0.1148 -0.9595 -0.4764
  165MOL   H15343121   3.242   4.714   2.809 -2.3247 -0.4624  0.0601
  165MOL   H15443122   3.336   4.779   2.677 -1.2929 -1.1744 -0.7872
  165MOL   H15543123   3.372   4.632   2.748  0.3542  1.0845  1.0852
  165MOL   H15643124   3.047   4.697   2.468 -0.9786  0.6966  1.4704
  165MOL   H15743125   3.173   4.816   2.508 -1.2401 -0.5040 -2.1608
  165MOL   C15843126   3.017   4.797   2.651  0.0266  0.6047 -0.0138
  165MOL   C15943127   2.948   4.928   2.610 -0.4277 -0.0007 -0.8357
  165MOL   C16043128   2.841   4.945   2.531  0.9085  0.0912  0.3228
  165MOL   C16143129   2.769   4.829   2.462  0.4823  0.3459 -0.3446
  165MOL   C16243130   2.793   5.080   2.491 -0.6786 -0.4317  0.1519
  165MOL   H16343131   3.057   4.834   2.745 -1.2070  0.8652  0.4178
  165MOL   H16443132   2.946   4.722   2.685  1.7331 -1.1710 -0.2788
  165MOL   H16543133   3.000   5.013   2.652  0.4826 -0.3469 -1.2253
  165MOL   H16643134   2.683   4.788   2.516  1.2157 -0.1166  0.4885
  165MOL   H16743135   2.847   4.752   2.461 -0.7195 -0.9118  0.3221
  165MOL   H16843136   2.742   4.855   2.360  2.8552 -0.0708 -1.0965
  165MOL   H16943137   2.855   5.158   2.535  0.4520 -0.2254 -1.7332
  165MOL   H17043138   2.693   5.098   2.528 -0.7278  0.8454 -0.5980
  165MOL   C17143139   2.817   5.119   2.343 -0.2425 -0.2158 -0.2479
  165MOL   C17243140   2.786   5.265   2.325  0.2775  0.1263  0.0769
  165MOL   C17343141   2.875   5.367   2.324  0.2325  0.1344 -0.4349
  165MOL   C17443142   3.020   5.351   2.349 -0.1097  0.0168 -0.2782
  165MOL   C17543143   2.828   5.502   2.295  0.3977  0.8870  0.0474
  165MOL   H17643144   2.753   5.065   2.274  0.4755  2.4438 -3.1157
  165MOL   H17743145   2.920   5.102   2.312  0.0143  1.9818 -0.7330
  165MOL   H17843146   2.683   5.289   2.303 -0.0310 -2.5619 -1.5731
  165MOL   H17943147   3.057   5.410   2.432  0.5211 -2.4766  1.2788
  165MOL   H18043148   3.061   5.386   2.254  0.4840 -0.1974 -0.1044
  165MOL   H18143149   3.047   5.247   2.369  0.2327  0.4885  1.7794
  165MOL   H18243150   2.885   5.566   2.362 -0.3399  0.8384  0.7287
  165MOL   H18343151   2.725   5.518   2.327  0.4663  0.3632  0.5286
  165MOL   C18443152   2.843   5.555   2.149  1.0557 -0.4376  0.1282
  165MOL   C18543153   2.833   5.703   2.148 -0.1050  0.7718  0.1464
  165MOL   C18643154   2.748   5.774   2.079 -0.0827 -0.6355 -0.6547
  165MOL   C18743155   2.754   5.922   2.086  0.3361 -0.6453  0.2750
  165MOL   C18843156   2.639   5.725   1.993  0.4781 -0.0576  0.5509
  165MOL   H18943157   2.770   5.514   2.079 -0.6640 -0.7068  2.0271
  165MOL   H19043158   2.947   5.550   2.116  1.3819 -0.1473  1.0725
  165MOL   H19143159   2.899   5.753   2.218 -0.8695 -2.4290  3.2771
  165MOL   H19243160   2.662   5.975   2.112  0.7791 -0.3950  1.3421
  165MOL   H19343161   2.761   5.956   1.982 -0.8647  0.5800  0.5728
  165MOL   H19443162   2.839   5.969   2.136 -0.6800 -0.8961  2.2777
  165MOL   H19543163   2.689   5.651   1.930  1.0755 -0.0630  1.0266
  165MOL   H19643164   2.587   5.796   1.928 -0.6493 -2.6436 -1.4548
  165MOL   C19743165   2.530   5.650   2.081  0.1379 -0.0749 -0.0141
  165MOL   C19843166   2.423   5.595   1.992  0.5761  0.3209 -0.6434
  165MOL   C19943167   2.359   5.476   1.997 -0.3823  0.2438  0.0119
  165MOL   C20043168   2.272   5.428   1.884  0.2367 -0.2781  0.3623
  165MOL   C20143169   2.389   5.376   2.107  0.2275  0.1280 -0.1631
  165MOL   H20243170   2.483   5.723   2.147 -0.0922  0.9056 -1.2373
  165MOL   H20343171   2.560   5.570   2.149 -0.7382 -0.9830 -0.6850
  165MOL   H20443172   2.377   5.661   1.920 -0.4406 -0.2699 -0.5577
  165MOL   H20543173   2.176   5.394   1.923  0.2662 -0.5387  0.2093
  165MOL   H20643174   2.321   5.347   1.830  4.0378  1.9365  0.3180
  165MOL   H20743175   2.253   5.513   1.819 -2.8502 -0.0574  1.4741
  165MOL   H20843176   2.492   5.379   2.143  0.0955  0.6378  0.1716
  165MOL   H20943177   2.371   5.276   2.067  1.3050 -0.4863  0.8418
  165MOL   C21043178   2.286   5.394   2.226 -1.1586 -0.7635 -0.1340
  165MOL   C21143179   2.320   5.300   2.339  0.0772  0.2294 -0.1820
  165MOL   C21243180   2.282   5.183   2.372 -0.1111 -0.1746  0.3590
  165MOL   C21343181   2.338   5.124   2.497 -0.6442 -0.4073 -0.2890
  165MOL   C21443182   2.164   5.109   2.298  0.2188  0.8551 -0.2195
  165MOL   H21543183   2.186   5.374   2.187 -1.5861 -4.6960  2.6869
  165MOL   H21643184   2.282   5.500   2.254 -0.6324 -0.4284 -1.2999
  165MOL   H21743185   2.403   5.345   2.392 -0.6513  1.4582 -0.0628
  165MOL   H21843186   2.418   5.188   2.533  1.1776 -2.4304 -0.6390
  165MOL   H21943187   2.379   5.024   2.482 -1.0167 -0.6591  0.3525
  165MOL   H22043188   2.266   5.117   2.578 -1.4922  1.4800 -0.8446
  165MOL   H22143189   2.190   5.011   2.259 -1.3531 -0.4587  1.9536
  165MOL   H22243190   2.141   5.162   2.205 -3.3363  3.0895  1.7722
  165MOL   C22343191   2.026   5.102   2.381  0.1384  0.2745 -0.5174
  165MOL   C22443192   1.907   5.078   2.294 -0.4111  0.5829 -0.2637
  165MOL   C22543193   1.816   5.168   2.250  0.3179  0.0541 -0.4746
  165MOL   C22643194   1.702   5.118   2.165  0.4322 -0.3538  0.1680
  165MOL   C22743195   1.812   5.315   2.280 -0.5325  0.4193 -0.4901
  165MOL   H22843196   2.026   5.191   2.444  1.8597 -1.0155  1.3835
  165MOL   H22943197   2.026   5.018   2.450 -3.5430  0.7650  0.1903
  165MOL   H23043198   1.904   4.974   2.265  1.7084  0.4213 -0.0325
  165MOL   H23143199   1.609   5.101   2.220  1.5070  0.4233  2.2786
  165MOL   H23243200   1.728   5.025   2.114 -2.5595 -0.0483 -2.0643
  165MOL   H23343201   1.680   5.188   2.085  0.8166 -0.0881  0.2952
  165MOL   H23443202   1.888   5.329   2.357  0.5268  0.3017 -1.4984
  165MOL   H23543203   1.716   5.330   2.329  0.6785 -1.9836  2.7814
  165MOL   C23643204   1.824   5.420   2.168  0.8017  0.8519  0.5178
  165MOL   C23743205   1.850   5.561   2.219  0.2040  0.4112  0.0761
  165MOL   C23843206   1.783   5.674   2.199  0.5746  0.1053  0.0278
  165MOL   C23943207   1.827   5.809   2.248  0.7508  0.0843  0.0278
  165MOL   C24043208   1.662   5.675   2.105  0.6402 -0.2195  0.4367
  165MOL   H24143209   1.743   5.409   2.097 -1.0382  0.3893  2.6516
  165MOL   H24243210   1.907   5.391   2.104 -0.2722 -0.9652 -0.0869
  165MOL   H24343211   1.927   5.565   2.295 -0.1322 -1.1750  0.5102
  165MOL   H24443212   1.874   5.860   2.165  1.0310 -1.2701 -0.6519
  165MOL   H24543213   1.906   5.808   2.324  1.3446  0.0658 -0.5898
  165MOL   H24643214   1.741   5.868   2.282  1.0822 -1.2094  3.3260
  165MOL   H24743215   1.596   5.759   2.127 -1.3186 -1.8735  0.9785
  165MOL   H24843216   1.606   5.583   2.123 -2.1994  1.2975 -0.3178
  165MOL   C24943217   1.715   5.691   1.962  0.4579  0.5374  0.2418
  165MOL   C25043218   1.598   5.695   1.863 -0.7125  0.6308  0.1095
  165MOL   C25143219   1.559   5.795   1.780  0.1731 -0.7605  0.2496
  165MOL   C25243220   1.435   5.780   1.685  0.1540  0.9262 -0.0272
  165MOL   C25343221   1.634   5.935   1.767  0.8845 -0.1097 -0.7575
  165MOL   H25443222   1.779   5.606   1.939  0.4141  0.4827  0.3205
  165MOL   H25543223   1.768   5.785   1.949  0.1903  1.2792  4.0599
  165MOL   H25643224   1.545   5.602   1.845 -0.1173  0.3552 -0.2184
  165MOL   H25743225   1.370   5.868   1.692 -0.6728  0.4208 -1.3109
  165MOL   H25843226   1.376   5.691   1.705 -0.9831  1.9611  1.3207
  165MOL   H25943227   1.463   5.754   1.584 -1.4633 -1.2282  0.0539
  165MOL   H26043228   1.733   5.913   1.727  0.6001 -0.8449 -1.0703
  165MOL   H26143229   1.655   5.989   1.859 -0.1669  2.6771 -2.0945
  165MOL   H26243230   1.588   6.006   1.697 -0.9962 -0.2007  0.3550
  166MOL     C143231   0.615   1.516   1.737  0.3206  0.3019 -0.6854
  166MOL     C243232   0.692   1.603   1.839 -0.0808 -0.6585 -0.4137
  166MOL     C343233   0.808   1.574   1.897  0.0681 -0.4223  0.1620
  166MOL     C443234   0.851   1.671   1.997 -0.3469 -0.1280  0.1802
  166MOL     C543235   0.891   1.447   1.884 -0.3175  0.2163 -0.6371
  166MOL     H643236   0.643   1.414   1.761 -2.1541 -0.2036  0.2545
  166MOL     H743237   0.507   1.530   1.749 -0.1038  0.7096 -4.2782
  166MOL     H843238   0.644   1.698   1.852 -0.0318 -0.7363  0.3434
  166MOL     H943239   0.795   1.647   2.088 -0.3463 -0.1716  0.1691
  166MOL    H1043240   0.833   1.775   1.967  0.4866 -0.1477 -0.4010
  166MOL    H1143241   0.955   1.662   2.026  0.0174  0.3346 -0.9269
  166MOL    H1243242   0.987   1.484   1.850 -0.1085 -0.9489 -1.3547
  166MOL    H1343243   0.852   1.395   1.796  0.7417  0.3804 -1.2097
  166MOL    H1443244   0.634   1.550   1.635  1.0148  1.2582 -0.2409
  166MOL    C1543245   0.888   1.349   2.006 -0.2725 -0.0524 -0.5182
  166MOL    C1643246   0.747   1.294   2.035  0.5912 -0.1393  0.1391
  166MOL    C1743247   0.716   1.167   2.054 -0.1304 -0.1895 -0.0036
  166MOL    C1843248   0.574   1.117   2.066  0.5270  0.5981  0.4561
  166MOL    C1943249   0.816   1.057   2.061  0.2629 -0.5623  0.9666
  166MOL    H2043250   0.917   1.394   2.101  0.4867 -0.0144 -0.7675
  166MOL    H2143251   0.960   1.269   1.988 -0.0142  0.1547 -0.4152
  166MOL    H2243252   0.672   1.372   2.032 -1.0110 -1.6867 -0.5586
  166MOL    H2343253   0.557   1.058   2.156  2.6548  0.3600  0.7236
  166MOL    H2443254   0.553   1.057   1.977 -2.5162 -0.7519  2.0099
  166MOL    H2543255   0.505   1.202   2.068  0.1448  0.3148 -0.4217
  166MOL    H2643256   0.785   0.981   2.133  0.8578 -2.1236 -0.3861
  166MOL    H2743257   0.917   1.089   2.088  0.2311  0.8428 -0.4768
  166MOL    C2843258   0.827   0.979   1.929  1.0653 -0.0970  0.1788
  166MOL    C2943259   0.946   0.888   1.940 -0.0015  0.2127  0.4107
  166MOL    C3043260   0.946   0.762   1.974  0.4912  0.3643 -0.1480
  166MOL    C3143261   1.082   0.693   1.997 -0.4293  0.5874  0.3400
  166MOL    C3243262   0.822   0.681   2.004 -0.5691 -0.0576  0.2624
  166MOL    H3343263   0.850   1.049   1.848 -2.3396 -1.1970 -1.8363
  166MOL    H3443264   0.732   0.930   1.913  2.1235 -1.6088 -1.6634
  166MOL    H3543265   1.042   0.936   1.928  0.1259 -0.0209  0.4901
  166MOL    H3643266   1.091   0.611   1.925 -0.6708 -1.1778  2.2701
  166MOL    H3743267   1.064   0.652   2.096 -1.0624 -0.8543 -0.3591
  166MOL    H3843268   1.169   0.757   2.001  1.1607 -1.2611 -2.6241
  166MOL    H3943269   0.736   0.745   2.024  1.5599  3.0534 -0.3681
  166MOL    H4043270   0.838   0.634   2.101  0.4957 -0.4791 -0.1122
  166MOL    C4143271   0.783   0.583   1.892  0.1489 -0.9047  0.7155
  166MOL    C4243272   0.681   0.474   1.927  0.6632  0.5963 -0.6426
  166MOL    C4343273   0.690   0.339   1.903 -0.1073 -0.5824  0.2823
  166MOL    C4443274   0.571   0.250   1.940 -0.0978 -0.5114 -0.1444
  166MOL    C4543275   0.810   0.266   1.835 -0.1868  0.4586 -0.5937
  166MOL    H4643276   0.866   0.525   1.852  1.1171  1.3378 -0.6181
  166MOL    H4743277   0.742   0.644   1.812  0.5929 -0.4109  0.8576
  166MOL    H4843278   0.589   0.511   1.969 -0.6123 -0.6566 -2.2518
  166MOL    H4943279   0.475   0.300   1.927  1.0583  1.4067 -1.5525
  166MOL    H5043280   0.569   0.231   2.047 -2.7364 -0.4418 -0.1655
  166MOL    H5143281   0.561   0.156   1.886  0.1900  1.1322 -3.1708
  166MOL    H5243282   0.815   0.161   1.861  1.2350  0.8423  0.7793
  166MOL    H5343283   0.898   0.300   1.890 -0.3975 -1.3927  0.9477
  166MOL    C5443284   0.813   0.262   1.684  0.8327  0.3050  0.3898
  166MOL    C5543285   0.932   0.186   1.629  0.3848  0.3910 -0.2902
  166MOL    C5643286   1.032   0.240   1.554  0.5158  0.2134  0.1379
  166MOL    C5743287   1.149   0.154   1.511  1.1011 -0.2190  0.1820
  166MOL    C5843288   1.025   0.372   1.480 -0.0913 -0.8375 -0.3308
  166MOL    H5943289   0.808   0.360   1.637  0.5767  0.9080  1.6537
  166MOL    H6043290   0.718   0.215   1.658  1.4697 -0.7269 -0.1127
  166MOL    H6143291   0.942   0.085   1.668  1.9380  1.3913  2.0011
  166MOL    H6243292   1.119   0.050   1.523  2.6084 -0.6167  0.6142
  166MOL    H6343293   1.233   0.173   1.578  1.3373  1.1655 -0.4963
  166MOL    H6443294   1.180   0.170   1.408 -0.6912  1.5230 -0.1226
  166MOL    H6543295   0.926   0.403   1.448  0.7177  2.0404 -0.2182
  166MOL    H6643296   1.065   0.356   1.380 -1.0102  1.3797 -1.0796
  166MOL    C6743297   1.094   0.482   1.560 -0.3543 -0.1558 -0.3845
  166MOL    C6843298   1.153   0.585   1.471  0.6780  0.1768  0.4803
  166MOL    C6943299   1.239   0.683   1.511  0.3534  0.5356  0.3371
  166MOL    C7043300   1.305   0.786   1.425  0.8747  0.0274 -0.1131
  166MOL    C7143301   1.277   0.701   1.658 -0.6821  0.1856 -0.5536
  166MOL    H7243302   1.168   0.429   1.620 -0.4459 -1.1234 -1.1157
  166MOL    H7343303   1.024   0.525   1.632  1.3230 -1.2988  1.9986
  166MOL    H7443304   1.127   0.569   1.367 -0.2781 -3.7770  1.2301
  166MOL    H7543305   1.400   0.757   1.382  0.0100  0.2881 -2.2819
  166MOL    H7643306   1.329   0.882   1.472  3.2243 -0.5995  0.0213
  166MOL    H7743307   1.246   0.808   1.335  0.8855  1.6891  0.2723
  166MOL    H7843308   1.220   0.634   1.721  0.7415 -0.4283  0.0890
  166MOL    H7943309   1.262   0.798   1.705  1.6479  1.5639 -2.4974
  166MOL    C8043310   1.417   0.648   1.689 -0.0016 -0.2013  0.0096
  166MOL    C8143311   1.449   0.659   1.843  0.7646 -0.5484  0.9017
  166MOL    C8243312   1.417   0.571   1.943  0.5605 -0.9299  0.2322
  166MOL    C8343313   1.344   0.441   1.923 -0.3740  0.0334 -1.0299
  166MOL    C8443314   1.437   0.610   2.088 -0.0371  0.2515 -0.2270
  166MOL    H8543315   1.501   0.687   1.632 -1.1757 -0.4555 -1.9333
  166MOL    H8643316   1.433   0.542   1.666  2.0002 -0.0571  0.6605
  166MOL    H8743317   1.492   0.754   1.870 -1.5783  0.5365  0.9156
  166MOL    H8843318   1.332   0.417   1.818 -2.3865 -0.7067 -0.6535
  166MOL    H8943319   1.246   0.451   1.970 -0.1656 -1.8926 -0.1337
  166MOL    H9043320   1.393   0.363   1.982  0.1621  1.6665  0.7407
  166MOL    H9143321   1.340   0.598   2.135 -0.9332 -0.2020 -2.1565
  166MOL    H9243322   1.453   0.717   2.085  2.5077 -0.1314 -1.8951
  166MOL    C9343323   1.555   0.547   2.150 -0.9470  0.5269 -0.0696
  166MOL    C9443324   1.551   0.581   2.298 -0.6692  0.4449  0.3039
  166MOL    C9543325   1.650   0.640   2.368 -0.5400 -0.3039 -0.0489
  166MOL    C9643326   1.634   0.659   2.513 -0.0461  1.0954 -0.4488
  166MOL    C9743327   1.780   0.690   2.308  0.3024  0.2494  0.4308
  166MOL    H9843328   1.645   0.574   2.094 -1.8884  0.6283 -1.5610
  166MOL    H9943329   1.552   0.439   2.136  1.2958  0.2552  1.2950
  166MOL   H10043330   1.459   0.548   2.343 -0.0830 -1.3889  0.2054
  166MOL   H10143331   1.608   0.563   2.558 -1.0925  0.7279 -1.8022
  166MOL   H10243332   1.732   0.672   2.559  0.2340 -0.3418 -0.5911
  166MOL   H10343333   1.577   0.743   2.553 -0.7214 -0.1961  1.3999
  166MOL   H10443334   1.812   0.779   2.362 -1.3012 -0.0467  1.9075
  166MOL   H10543335   1.755   0.726   2.208 -2.5853 -2.4583  0.0890
  166MOL   C10643336   1.876   0.573   2.300  0.4228 -0.3750 -0.7379
  166MOL   C10743337   2.018   0.621   2.292  0.5935  0.3504 -0.4267
  166MOL   C10843338   2.101   0.650   2.394  0.7617  0.4744  0.1128
  166MOL   C10943339   2.075   0.617   2.537  0.6715  0.2709  0.0238
  166MOL   C11043340   2.243   0.710   2.360  0.8337 -0.0689 -0.5017
  166MOL   H11143341   1.847   0.494   2.230 -0.4466  1.3345 -2.3492
  166MOL   H11243342   1.871   0.510   2.389  0.2768 -2.2055 -2.0232
  166MOL   H11343343   2.054   0.644   2.192  1.7006  0.3623 -0.0352
  166MOL   H11443344   2.161   0.565   2.577 -2.1860 -1.5379  4.2011
  166MOL   H11543345   2.058   0.703   2.602  1.7252 -0.8805  1.8542
  166MOL   H11643346   1.989   0.551   2.548  0.5107  0.0253 -2.4369
  166MOL   H11743347   2.261   0.682   2.256  2.1339  2.9432 -1.1143
  166MOL   H11843348   2.309   0.641   2.413  0.6822 -0.4822 -0.8514
  166MOL   C11943349   2.272   0.853   2.394 -0.2937  0.7344 -0.3476
  166MOL   C12043350   2.414   0.891   2.362  0.1379 -0.3557  0.0211
  166MOL   C12143351   2.505   0.938   2.447  0.3052  0.1907 -0.0862
  166MOL   C12243352   2.649   0.957   2.393 -0.4107 -0.4146 -0.0266
  166MOL   C12343353   2.488   0.960   2.596 -0.2741  0.4897  0.4619
  166MOL   H12443354   2.224   0.883   2.487  0.5029  0.0892  0.2807
  166MOL   H12543355   2.218   0.907   2.316  1.9652  0.1190 -2.4071
  166MOL   H12643356   2.435   0.886   2.256 -0.1774  1.9552 -0.1682
  166MOL   H12743357   2.693   1.054   2.415  0.5534 -0.5279 -1.4002
  166MOL   H12843358   2.660   0.924   2.290 -0.3406 -1.1778  0.2183
  166MOL   H12943359   2.715   0.889   2.447 -0.4655  0.3489  1.0240
  166MOL   H13043360   2.390   1.002   2.616 -0.6779  0.3397 -1.1030
  166MOL   H13143361   2.554   1.036   2.637  1.4569  1.0652 -3.1985
  166MOL   C13243362   2.515   0.821   2.659 -0.7101  0.1238  0.6186
  166MOL   C13343363   2.496   0.821   2.804  0.5149 -0.1733  0.7785
  166MOL   C13443364   2.410   0.745   2.877  0.0888  0.1735 -0.2421
  166MOL   C13543365   2.385   0.771   3.023  0.3931  0.4882  0.7843
  166MOL   C13643366   2.324   0.629   2.826  0.2358  0.3282 -0.1473
  166MOL   H13743367   2.620   0.802   2.634 -1.4291  1.2169 -3.6155
  166MOL   H13843368   2.459   0.750   2.598 -1.0869  0.0050  1.1052
  166MOL   H13943369   2.548   0.901   2.855  0.7561 -0.5140  1.0733
  166MOL   H14043370   2.396   0.686   3.091 -0.3097  0.0999  0.4235
  166MOL   H14143371   2.288   0.818   3.041  0.5313  1.6810 -1.4898
  166MOL   H14243372   2.459   0.841   3.063 -0.3595  0.0310  3.0802
  166MOL   H14343373   2.317   0.644   2.719  0.1766  1.4871  0.0151
  166MOL   H14443374   2.228   0.644   2.876 -0.0361 -3.1907  0.5176
  166MOL   C14543375   2.371   0.490   2.866  0.3528  0.5985 -0.4338
  166MOL   C14643376   2.297   0.377   2.795  0.2921 -0.1552  0.4908
  166MOL   C14743377   2.344   0.310   2.685 -0.2334 -0.5705  0.8042
  166MOL   C14843378   2.258   0.187   2.632 -0.7550  0.2225  0.8485
  166MOL   C14943379   2.477   0.342   2.613 -0.2283  0.6139 -0.1522
  166MOL   H15043380   2.348   0.481   2.972  0.8724  2.0477 -0.1930
  166MOL   H15143381   2.479   0.479   2.856  0.2607  0.5300 -1.4592
  166MOL   H15243382   2.205   0.339   2.835  0.3858 -1.1763 -0.2304
  166MOL   H15343383   2.235   0.183   2.526 -0.0229 -0.2798  0.7092
  166MOL   H15443384   2.163   0.181   2.686 -0.3606 -0.2282  1.5020
  166MOL   H15543385   2.316   0.099   2.659 -2.4832 -0.8418  1.1983
  166MOL   H15643386   2.507   0.445   2.635  2.8987  0.2356 -2.4181
  166MOL   H15743387   2.468   0.326   2.506 -1.7141 -3.0193  0.4387
  166MOL   C15843388   2.591   0.250   2.667 -0.1967  0.8970  0.1938
  166MOL   C15943389   2.729   0.297   2.620  0.7026 -0.5324 -0.1254
  166MOL   C16043390   2.826   0.217   2.584  0.1996  0.8113 -0.2880
  166MOL   C16143391   2.815   0.064   2.583 -0.5024  0.0360  0.0859
  166MOL   C16243392   2.969   0.264   2.570 -0.0732 -0.2482 -0.0811
  166MOL   H16343393   2.571   0.143   2.658  1.2289  0.7406 -1.2665
  166MOL   H16443394   2.598   0.264   2.775 -0.6633  1.1672  0.1912
  166MOL   H16543395   2.746   0.404   2.623  0.0247 -0.4407  1.1804
  166MOL   H16643396   2.717   0.017   2.568  0.1473 -0.4085 -3.1307
  166MOL   H16743397   2.823   0.035   2.688  0.1967  0.4236  0.1395
  166MOL   H16843398   2.870   0.015   2.503 -0.9496  0.4084 -0.4612
  166MOL   H16943399   3.002   0.295   2.470 -0.5539 -1.2709 -0.5625
  166MOL   H17043400   3.037   0.197   2.622 -1.0319  0.6101  2.3584
  166MOL   C17143401   3.000   0.394   2.648  0.1599  0.1179  0.0180
  166MOL   C17243402   3.145   0.428   2.671  0.6614  0.1732  0.4829
  166MOL   C17343403   3.200   0.496   2.775 -0.8133  0.2226  0.7109
  166MOL   C17443404   3.121   0.549   2.897 -0.1029 -0.6307 -0.5842
  166MOL   C17543405   3.354   0.513   2.780 -0.3911  0.4915 -0.2212
  166MOL   H17643406   2.969   0.393   2.753  1.2787 -0.3294  0.3554
  166MOL   H17743407   2.963   0.479   2.592  1.9505 -0.4233 -2.0408
  166MOL   H17843408   3.207   0.395   2.589  0.7311  0.7305  0.3033
  166MOL   H17943409   3.152   0.497   2.987  1.3317  0.2362 -0.5561
  166MOL   H18043410   3.014   0.531   2.897 -0.4874  1.1175  3.0491
  166MOL   H18143411   3.143   0.654   2.917  1.0613 -1.3261  2.0422
  166MOL   H18243412   3.402   0.443   2.712  0.5119  1.1048 -0.2183
  166MOL   H18343413   3.392   0.472   2.873  0.1557 -0.4378 -0.8501
  166MOL   C18443414   3.397   0.657   2.745 -0.3034 -0.9200 -0.2301
  166MOL   C18543415   3.540   0.668   2.763 -0.3811 -0.6061 -0.3028
  166MOL   C18643416   3.634   0.675   2.665  0.4875 -0.5720  0.3148
  166MOL   C18743417   3.778   0.685   2.700 -0.0387 -0.4510 -0.3364
  166MOL   C18843418   3.608   0.676   2.515 -0.4437  0.0248  0.5869
  166MOL   H18943419   3.349   0.735   2.805 -0.8655 -0.5844 -1.1015
  166MOL   H19043420   3.383   0.684   2.640  4.1987  0.6422 -0.5111
  166MOL   H19143421   3.573   0.666   2.866 -0.1672 -2.5088 -0.3992
  166MOL   H19243422   3.845   0.629   2.635 -0.2554 -0.2984 -0.6936
  166MOL   H19343423   3.784   0.652   2.804 -2.5012 -0.7104 -0.2528
  166MOL   H19443424   3.802   0.791   2.695 -0.4755 -0.4473 -3.1244
  166MOL   H19543425   3.684   0.734   2.462 -1.6236  1.2929  0.2522
  166MOL   H19643426   3.509   0.721   2.502  0.2208  0.7885 -2.0500
  166MOL   C19743427   3.596   0.535   2.458  0.2028  0.8929 -0.4343
  166MOL   C19843428   3.555   0.541   2.313 -0.2086 -0.3596  0.5893
  166MOL   C19943429   3.637   0.543   2.207  0.4187 -0.1070  0.0676
  166MOL   C20043430   3.576   0.549   2.075  0.0728  0.0453 -0.2953
  166MOL   C20143431   3.790   0.532   2.215 -0.8069 -0.1578 -0.3672
  166MOL   H20243432   3.532   0.468   2.516 -0.4040  2.1299  0.3442
  166MOL   H20343433   3.692   0.484   2.465  0.2622  0.8605 -1.3454
  166MOL   H20443434   3.450   0.565   2.302  0.6141  2.4167 -1.9751
  166MOL   H20543435   3.617   0.627   2.012 -1.1660  0.8443 -0.1315
  166MOL   H20643436   3.470   0.573   2.070 -0.3548 -1.4480  1.0785
  166MOL   H20743437   3.597   0.454   2.026  1.0449  0.6888 -1.1421
  166MOL   H20843438   3.805   0.439   2.159  1.5414 -0.4266  0.6211
  166MOL   H20943439   3.824   0.501   2.314  0.7415  1.0705 -0.4916
  166MOL   C21043440   3.864   0.653   2.162 -0.5737 -0.1827 -0.2575
  166MOL   C21143441   4.015   0.646   2.173 -1.1219  0.9134 -0.0374
  166MOL   C21243442   4.101   0.716   2.091 -0.4950  0.0885  0.1075
  166MOL   C21343443   4.253   0.691   2.099  0.0102 -0.2413 -0.2753
  166MOL   C21443444   4.064   0.813   1.978  0.4093 -0.6017  0.2795
  166MOL   H21543445   3.828   0.745   2.210 -0.3267  0.0001 -0.4179
  166MOL   H21643446   3.833   0.678   2.061  1.0499  2.3664 -0.1849
  166MOL   H21743447   4.059   0.578   2.244  1.1712  1.7470 -0.6035
  166MOL   H21843448   4.276   0.653   2.198  0.6812  1.3685  0.2132
  166MOL   H21943449   4.310   0.783   2.081 -0.4747 -0.1481 -1.3357
  166MOL   H22043450   4.290   0.609   2.038  1.3099 -0.5181  0.8547
  166MOL   H22143451   4.144   0.884   1.957  0.2715 -0.7689 -0.8108
  166MOL   H22243452   3.977   0.870   2.010  0.2103 -1.3892  1.1751
  166MOL   C22343453   4.034   0.735   1.846  0.4506 -0.4934  0.4303
  166MOL   C22443454   4.004   0.830   1.730  0.2073  1.4927  0.6091
  166MOL   C22543455   3.984   0.791   1.603  0.1511  0.0134  0.2286
  166MOL   C22643456   3.945   0.886   1.488 -0.8857  0.6582  0.2398
  166MOL   C22743457   3.974   0.640   1.563 -0.3415 -0.2844 -0.5489
  166MOL   H22843458   3.956   0.663   1.872  1.3897 -1.9805 -0.7774
  166MOL   H22943459   4.124   0.676   1.829  0.1586 -1.0361  0.7399
  166MOL   H23043460   4.000   0.936   1.752 -0.2456  1.4074  0.9400
  166MOL   H23143461   4.008   0.868   1.401  0.9789 -0.2049  1.7003
  166MOL   H23243462   3.955   0.993   1.502  0.6809  0.2729  2.4205
  166MOL   H23343463   3.844   0.875   1.450 -0.5116 -1.2997 -0.2731
  166MOL   H23443464   3.894   0.629   1.490  0.6048 -1.5715 -1.4134
  166MOL   H23543465   3.952   0.574   1.647  0.1367  1.6540  1.1312
  166MOL   C23643466   4.099   0.582   1.482 -0.2721  0.2582  0.2690
  166MOL   C23743467   4.090   0.432   1.445 -0.2148 -0.2439 -0.4339
  166MOL   C23843468   4.188   0.344   1.453 -0.8760  0.1221 -0.1742
  166MOL   C23943469   4.151   0.203   1.415 -0.0578  0.3779 -0.2467
  166MOL   C24043470   4.328   0.361   1.521 -0.6223  0.6615  0.0917
  166MOL   H24143471   4.192   0.598   1.536  1.2825 -0.0336 -2.2230
  166MOL   H24243472   4.109   0.646   1.394  0.9217 -2.2497 -1.4600
  166MOL   H24343473   3.997   0.404   1.398 -0.4631  0.2581 -0.2477
  166MOL   H24443474   4.242   0.164   1.371 -0.2700 -1.1275  0.6080
  166MOL   H24543475   4.066   0.206   1.347  0.0575  1.3272 -0.3521
  166MOL   H24643476   4.126   0.133   1.496  0.3072  0.8552  0.2841
  166MOL   H24743477   4.344   0.463   1.557 -1.4922  0.5218  0.9085
  166MOL   H24843478   4.409   0.322   1.459 -1.4184 -0.4548 -0.2592
  166MOL   C24943479   4.326   0.279   1.651  0.1579  0.2475  0.1449
  166MOL   C25043480   4.228   0.327   1.753 -0.2282  0.4234  0.2479
  166MOL   C25143481   4.133   0.259   1.825  0.0878 -0.6264  0.6523
  166MOL   C25243482   4.049   0.324   1.932  0.5608  0.4362  0.2021
  166MOL   C25343483   4.104   0.116   1.795 -0.0980 -0.5362  0.2170
  166MOL   H25443484   4.426   0.292   1.693  1.4524  0.1002 -2.8149
  166MOL   H25543485   4.313   0.175   1.624  2.4340  0.6580 -2.7868
  166MOL   H25643486   4.248   0.430   1.778 -0.6885  0.6656 -0.3715
  166MOL   H25743487   3.944   0.338   1.906  0.3168 -2.1690 -0.3586
  166MOL   H25843488   4.078   0.427   1.950  2.4988 -0.2054  0.9063
  166MOL   H25943489   4.062   0.266   2.024 -2.6695 -2.5899 -1.1247
  166MOL   H26043490   4.128   0.048   1.876 -0.0608  0.1014  0.7444
  166MOL   H26143491   4.162   0.083   1.708 -0.3556 -0.1588 -0.1020
  166MOL   H26243492   4.003   0.094   1.760 -0.3501  0.4855  0.2835
  167MOL     C143493   5.758   1.843   0.725 -0.6660  0.2048  0.3092
  167MOL     C243494   5.685   1.748   0.811 -0.2389 -0.3472  0.2936
  167MOL     C343495   5.559   1.701   0.805  0.1738  0.1681 -0.4971
  167MOL     C443496   5.507   1.593   0.910 -0.0744  0.4002 -0.4354
  167MOL     C543497   5.457   1.741   0.697  0.8615  0.5355  0.1396
  167MOL     H643498   5.801   1.915   0.795 -0.2621 -1.3415  1.6952
  167MOL     H743499   5.846   1.799   0.679 -1.2771 -1.6681  0.8897
  167MOL     H843500   5.752   1.717   0.890  2.3933 -0.7097 -2.0427
  167MOL     H943501   5.503   1.491   0.871  3.1975  0.5056 -1.2068
  167MOL    H1043502   5.414   1.620   0.959  0.8143  1.4502  0.7106
  167MOL    H1143503   5.586   1.579   0.985 -0.5001 -0.8277 -0.1968
  167MOL    H1243504   5.493   1.833   0.651 -0.8392  1.0003 -0.2830
  167MOL    H1343505   5.361   1.761   0.743  0.6782 -2.9345  1.4000
  167MOL    H1443506   5.692   1.881   0.648 -0.1378 -2.6989 -1.6722
  167MOL    C1543507   5.443   1.630   0.593  0.0489 -0.0400 -0.0886
  167MOL    C1643508   5.351   1.672   0.477  0.0832 -0.5077 -0.1987
  167MOL    C1743509   5.344   1.616   0.356  0.1392 -0.2775 -0.4690
  167MOL    C1843510   5.252   1.672   0.254  0.1698 -0.2251 -0.0944
  167MOL    C1943511   5.414   1.488   0.316 -0.2828  0.2964 -0.1080
  167MOL    H2043512   5.400   1.543   0.643  0.6016 -0.5306 -0.4658
  167MOL    H2143513   5.541   1.597   0.558  1.8815  3.5770  1.4159
  167MOL    H2243514   5.300   1.766   0.487 -2.4185 -1.7969 -0.4654
  167MOL    H2343515   5.276   1.677   0.148 -1.9679 -0.3469 -0.5957
  167MOL    H2443516   5.229   1.778   0.264  0.3981 -0.1493 -0.3615
  167MOL    H2543517   5.159   1.615   0.251 -0.6788  1.0582  1.0463
  167MOL    H2643518   5.512   1.491   0.363 -0.2360 -0.2203 -0.1647
  167MOL    H2743519   5.428   1.497   0.208 -0.5382 -2.1292 -0.3841
  167MOL    C2843520   5.336   1.367   0.350  0.8168  0.5590  0.2827
  167MOL    C2943521   5.417   1.253   0.415 -0.4234 -0.1023  0.2412
  167MOL    C3043522   5.501   1.159   0.363 -0.4966 -0.9137 -0.3030
  167MOL    C3143523   5.547   1.045   0.448 -0.6764  0.7563 -0.1342
  167MOL    C3243524   5.525   1.141   0.211 -0.1336 -0.1257 -0.0216
  167MOL    H3343525   5.288   1.317   0.266 -1.4346  1.5236  0.9540
  167MOL    H3443526   5.258   1.383   0.425  0.8622  0.4559  0.3522
  167MOL    H3543527   5.396   1.250   0.520 -0.3910 -1.9167  0.2107
  167MOL    H3643528   5.649   1.028   0.412  0.0466  2.5937  0.9740
  167MOL    H3743529   5.486   0.958   0.424 -0.7568  0.8674 -0.3374
  167MOL    H3843530   5.552   1.066   0.554 -1.7024 -0.9721  0.2835
  167MOL    H3943531   5.633   1.155   0.201 -0.3745  1.8092 -0.0760
  167MOL    H4043532   5.481   1.220   0.152 -0.1917  0.3603  0.6642
  167MOL    C4143533   5.484   1.004   0.159 -0.2648  0.4956  0.0192
  167MOL    C4243534   5.473   0.998   0.011 -0.8925 -0.4785 -0.2381
  167MOL    C4343535   5.387   0.926   7.812 -0.2827 -0.6841 -0.0407
  167MOL    C4443536   5.400   0.935   7.667 -0.2849 -0.2021  0.4383
  167MOL    C4543537   5.262   0.858   7.875  0.7071 -0.0926  0.3094
  167MOL    H4643538   5.398   0.966   0.215 -0.0715  1.4505  0.9780
  167MOL    H4743539   5.566   0.934   0.177 -0.8050  0.0251  0.7104
  167MOL    H4843540   5.560   1.042   7.842 -0.5290 -0.8138  0.1166
  167MOL    H4943541   5.499   0.969   7.636  0.0902 -1.9182 -0.3137
  167MOL    H5043542   5.323   1.005   7.634 -0.7229  0.1917  2.2416
  167MOL    H5143543   5.378   0.834   7.633 -1.5075  0.8906 -2.1405
  167MOL    H5243544   5.273   0.837   0.102  1.8322 -2.3193 -0.2381
  167MOL    H5343545   5.253   0.758   7.834  2.2363  0.0002 -0.2957
  167MOL    C5443546   5.124   0.920   7.845  0.3470  0.2375  0.4286
  167MOL    C5543547   5.018   0.815   0.001  0.1617 -0.5069  0.1007
  167MOL    C5643548   4.908   0.783   7.806  0.2135 -0.2091  0.2637
  167MOL    C5743549   4.802   0.684   7.848 -0.1489 -0.4978  0.3805
  167MOL    C5843550   4.878   0.850   7.670 -0.1437  0.4332  0.5317
  167MOL    H5943551   5.128   0.940   7.738 -2.7872  0.1574  0.2550
  167MOL    H6043552   5.097   1.010   0.022  0.0310  0.9717 -0.8849
  167MOL    H6143553   5.029   0.760   0.093  0.5632 -1.5869 -0.5891
  167MOL    H6243554   4.809   0.596   7.783  0.7334 -0.3738  0.3013
  167MOL    H6343555   4.698   0.716   7.847 -0.2660 -0.8381  1.1215
  167MOL    H6443556   4.825   0.651   0.071  2.1007 -2.0216 -0.5582
  167MOL    H6543557   4.934   0.944   7.665  1.6457 -0.6656 -0.3692
  167MOL    H6643558   4.771   0.868   7.663  0.1676  1.3507 -2.2159
  167MOL    C6743559   4.915   0.765   7.549 -0.6567  0.3874 -0.3712
  167MOL    C6843560   5.061   0.755   7.518 -0.1169  0.3072  0.0205
  167MOL    C6943561   5.121   0.721   7.401 -0.3160 -0.7762 -0.7156
  167MOL    C7043562   5.269   0.687   7.398 -0.2357 -0.2625 -0.0752
  167MOL    C7143563   5.042   0.677   7.284 -0.0522  0.2111  0.2293
  167MOL    H7243564   4.868   0.819   7.467 -0.9375 -1.2462 -1.2970
  167MOL    H7343565   4.858   0.672   7.550 -0.8206  0.4893  0.1329
  167MOL    H7443566   5.120   0.765   7.608  0.4335 -0.5495 -0.2404
  167MOL    H7543567   5.335   0.771   7.417  2.1629 -1.6346 -2.0974
  167MOL    H7643568   5.300   0.653   7.299 -0.2972 -0.8894  0.1160
  167MOL    H7743569   5.305   0.606   7.462  0.8940 -0.0311 -0.4223
  167MOL    H7843570   5.094   0.711   7.194  0.7668 -0.6941  0.3405
  167MOL    H7943571   4.939   0.710   7.286  0.2348  1.1100  0.5575
  167MOL    C8043572   5.033   0.525   7.280  0.3708  0.2995 -0.5554
  167MOL    C8143573   4.998   0.479   7.139 -0.5057 -0.5026 -0.8834
  167MOL    C8243574   5.082   0.430   7.045 -0.4294 -0.0089 -0.3410
  167MOL    C8343575   5.229   0.420   7.069 -0.2583  0.1774  0.2239
  167MOL    C8443576   5.038   0.383   6.903 -0.3500 -0.4706  0.3280
  167MOL    H8543577   4.965   0.486   7.355 -0.0743  0.2631 -0.9682
  167MOL    H8643578   5.132   0.485   7.301  1.5890  2.6360 -1.5650
  167MOL    H8743579   4.894   0.475   7.110 -0.7363 -0.5905 -0.0795
  167MOL    H8843580   5.276   0.326   7.098  0.3323  1.0909  2.2986
  167MOL    H8943581   5.281   0.485   7.140 -0.8063  0.6481  0.2013
  167MOL    H9043582   5.270   0.444   6.970 -0.5838 -0.2113 -0.0053
  167MOL    H9143583   5.071   0.283   6.877  4.1462  0.7154  1.1106
  167MOL    H9243584   5.100   0.439   6.833  0.0176 -0.6310  0.5277
  167MOL    C9343585   4.891   0.400   6.864 -0.1076 -0.1281 -0.0039
  167MOL    C9443586   4.873   0.362   6.718 -0.0203  0.2582 -0.4912
  167MOL    C9543587   4.827   0.439   6.618  0.1731  0.1784 -0.3359
  167MOL    C9643588   4.823   0.385   6.474  0.2193 -1.3028 -0.1230
  167MOL    C9743589   4.761   0.579   6.626  1.1716 -0.4902  0.8964
  167MOL    H9843590   4.865   0.506   6.875 -0.0297 -0.1959  0.8632
  167MOL    H9943591   4.833   0.347   6.939 -1.2751  0.2585 -0.6172
  167MOL   H10043592   4.898   0.259   6.694 -1.5274 -0.2562  0.0468
  167MOL   H10143593   4.902   0.311   6.476  1.0777 -0.3759  1.0948
  167MOL   H10243594   4.727   0.341   6.449 -0.5966 -0.0679  0.7917
  167MOL   H10343595   4.859   0.464   6.408  1.9362 -0.8084  1.3576
  167MOL   H10443596   4.810   0.652   6.562  0.8676 -0.1828  1.0140
  167MOL   H10543597   4.774   0.618   6.727 -0.5528 -1.9427  1.7090
  167MOL   C10643598   4.619   0.569   6.592 -0.3984  0.9175  0.4812
  167MOL   C10743599   4.544   0.697   6.620  0.1491  0.3187  0.4011
  167MOL   C10843600   4.439   0.749   6.539 -0.0571  0.8211  0.0290
  167MOL   C10943601   4.405   0.692   6.403  0.7622  0.5703  0.0089
  167MOL   C11043602   4.366   0.872   6.582 -0.1539  0.7765  0.0015
  167MOL   H11143603   4.582   0.491   6.659  3.2329 -0.2877  1.1861
  167MOL   H11243604   4.605   0.532   6.490  1.3214  2.9302 -0.5410
  167MOL   H11343605   4.566   0.740   6.716 -0.4925 -1.4991  1.3936
  167MOL   H11443606   4.329   0.761   6.366 -1.5755 -0.7789  2.1157
  167MOL   H11543607   4.490   0.697   6.335  0.2148  0.9159 -0.6614
  167MOL   H11643608   4.373   0.588   6.414 -0.2609  0.6950 -1.6098
  167MOL   H11743609   4.364   0.944   6.500 -0.2641  0.0864 -0.6061
  167MOL   H11843610   4.416   0.929   6.660  0.7841 -1.3687  1.0187
  167MOL   C11943611   4.224   0.839   6.630 -0.4422 -0.4026  0.7169
  167MOL   C12043612   4.146   0.960   6.663 -0.3235  0.4156  0.7617
  167MOL   C12143613   4.013   0.972   6.687 -0.5769  0.0808  1.0419
  167MOL   C12243614   3.946   1.108   6.714  0.2362  0.5091 -0.0621
  167MOL   C12343615   3.915   0.853   6.690  1.0921 -0.3040 -0.1720
  167MOL   H12443616   4.231   0.778   6.720 -2.0784 -1.4420  0.1505
  167MOL   H12543617   4.170   0.795   6.547  1.2382  0.3619 -0.8063
  167MOL   H12643618   4.205   1.050   6.666 -0.0380  0.3134 -1.2571
  167MOL   H12743619   3.869   1.115   6.638 -1.0274 -0.9536  1.0700
  167MOL   H12843620   4.029   1.177   6.694  0.0757  0.4562 -0.9350
  167MOL   H12943621   3.902   1.107   6.814  0.1598  2.7179 -0.0295
  167MOL   H13043622   3.850   0.862   6.777 -1.3049 -1.4846 -1.7787
  167MOL   H13143623   3.965   0.757   6.697 -1.0919 -1.4228  0.6928
  167MOL   C13243624   3.832   0.849   6.561  0.6635  0.7653  0.5211
  167MOL   C13343625   3.726   0.736   6.565 -0.0841 -0.4997  0.1592
  167MOL   C13443626   3.586   0.749   6.569  0.0301 -1.0156  0.6756
  167MOL   C13543627   3.488   0.632   6.602 -0.1235  0.2961 -0.2994
  167MOL   C13643628   3.522   0.892   6.547  0.6494 -0.0132 -0.3926
  167MOL   H13743629   3.893   0.830   6.473 -0.5905  0.4275 -0.2828
  167MOL   H13843630   3.785   0.944   6.536 -0.5944  0.4271  1.5960
  167MOL   H13943631   3.764   0.637   6.585  1.5544  0.3670  1.5164
  167MOL   H14043632   3.535   0.535   6.617  0.4753  0.7021  0.4923
  167MOL   H14143633   3.409   0.639   6.527  0.2420 -0.1357 -0.7341
  167MOL   H14243634   3.448   0.655   6.701  1.4242  0.5404  0.2878
  167MOL   H14343635   3.420   0.875   6.515  0.7298 -0.6439 -0.3116
  167MOL   H14443636   3.580   0.948   6.473 -0.6199 -0.1694 -1.5352
  167MOL   C14543637   3.514   0.965   6.680 -0.5390  1.0061 -0.0381
  167MOL   C14643638   3.462   1.106   6.668 -0.1890 -0.3563 -0.2942
  167MOL   C14743639   3.494   1.221   6.738  0.1154  0.0144  0.0137
  167MOL   C14843640   3.438   1.357   6.696  0.0049  0.7870  0.5983
  167MOL   C14943641   3.577   1.230   6.861  0.0893 -0.4334 -0.1832
  167MOL   H15043642   3.620   0.979   6.705 -0.0323 -1.6427 -0.5704
  167MOL   H15143643   3.475   0.904   6.761  2.8009 -1.6509 -0.2970
  167MOL   H15243644   3.385   1.118   6.593 -0.2540  0.8684 -0.0467
  167MOL   H15343645   3.374   1.398   6.773 -0.8472 -0.9068  0.7972
  167MOL   H15443646   3.371   1.346   6.611  2.3364 -1.4748 -1.0396
  167MOL   H15543647   3.507   1.437   6.667 -0.2038  0.7116 -0.1352
  167MOL   H15643648   3.628   1.133   6.862 -0.1419 -0.5556  0.4615
  167MOL   H15743649   3.499   1.229   6.937 -0.1355  2.0137 -0.3439
  167MOL   C15843650   3.676   1.340   6.880 -0.4611  0.1563 -0.1258
  167MOL   C15943651   3.755   1.329   7.003 -1.0649  0.3920  0.0086
  167MOL   C16043652   3.885   1.360   7.021  0.2354  0.6235  0.3607
  167MOL   C16143653   3.984   1.405   6.911  0.0848  0.9841 -0.2268
  167MOL   C16243654   3.955   1.355   7.159 -0.2743 -0.8218 -0.2252
  167MOL   H16343655   3.621   1.433   6.899 -2.0509 -0.3111 -2.2878
  167MOL   H16443656   3.730   1.363   6.788  0.6066  0.2849  0.5181
  167MOL   H16543657   3.694   1.297   7.086 -0.6030  0.3586  0.3438
  167MOL   H16643658   3.937   1.367   6.819 -2.5746  1.5694  0.8304
  167MOL   H16743659   4.071   1.341   6.916  0.3742  1.3608 -0.4173
  167MOL   H16843660   3.996   1.513   6.915 -0.2818  1.0179 -0.0370
  167MOL   H16943661   4.033   1.280   7.163  0.3659 -0.1027  1.0869
  167MOL   H17043662   3.875   1.338   7.231 -0.8129  0.7393 -0.4187
  167MOL   C17143663   4.021   1.488   7.206  0.6095  0.6622  0.3916
  167MOL   C17243664   3.913   1.602   7.224  0.1640  0.1074  0.3247
  167MOL   C17343665   3.884   1.680   7.328 -0.0637  0.1383  0.3766
  167MOL   C17443666   3.949   1.660   7.464  0.0690 -0.0278 -0.1995
  167MOL   C17543667   3.780   1.788   7.322 -0.1210  0.3223 -0.3663
  167MOL   H17643668   4.092   1.521   7.131 -0.8562 -0.4162 -1.5252
  167MOL   H17743669   4.072   1.474   7.301  0.3985 -1.1859  0.2589
  167MOL   H17843670   3.856   1.612   7.132  0.1159  1.8468  0.5261
  167MOL   H17943671   4.051   1.625   7.447  0.5960  1.1140  0.5420
  167MOL   H18043672   3.896   1.584   7.523  1.7212 -1.7313 -0.8337
  167MOL   H18143673   3.965   1.753   7.518  1.0772 -0.9767  1.1961
  167MOL   H18243674   3.743   1.794   7.220 -0.0608  1.8581 -0.3079
  167MOL   H18343675   3.828   1.884   7.341 -1.2672  0.7882  0.1949
  167MOL   C18443676   3.665   1.772   7.430  0.5389 -0.3429 -0.1687
  167MOL   C18543677   3.571   1.893   7.438 -0.5597 -0.5799 -0.0289
  167MOL   C18643678   3.433   1.891   7.439  0.6298  0.5422  0.3873
  167MOL   C18743679   3.358   2.018   7.442 -0.0293  1.2312  0.3286
  167MOL   C18843680   3.336   1.767   7.447 -0.2734  0.9012  0.4338
  167MOL   H18943681   3.705   1.752   7.529  1.6222 -1.7458 -0.8636
  167MOL   H19043682   3.610   1.683   7.399 -0.2651  0.2729 -0.5306
  167MOL   H19143683   3.614   1.991   7.423 -0.9107 -0.5644 -0.9758
  167MOL   H19243684   3.328   2.035   7.545 -0.4457  1.1915  0.2192
  167MOL   H19343685   3.275   2.021   7.370  0.7975 -0.5837 -0.7600
  167MOL   H19443686   3.414   2.106   7.410  0.5352  0.7892  0.0914
  167MOL   H19543687   3.251   1.786   7.513  0.4308  0.2314  1.5414
  167MOL   H19643688   3.387   1.693   7.508 -0.0224  1.7791  1.3007
  167MOL   C19743689   3.291   1.691   7.320 -0.6944  0.1374  0.1067
  167MOL   C19843690   3.228   1.559   7.353  0.3488  0.1448 -0.4043
  167MOL   C19943691   3.094   1.533   7.345  0.5392  0.3187  0.2751
  167MOL   C20043692   3.039   1.390   7.372  0.4457 -0.9169 -0.3968
  167MOL   C20143693   2.987   1.619   7.290 -0.2488 -1.0278 -0.5018
  167MOL   H20243694   3.381   1.662   7.266 -2.2794 -2.1839 -1.4064
  167MOL   H20343695   3.247   1.764   7.253 -2.3683 -1.8994 -1.0893
  167MOL   H20443696   3.298   1.485   7.390 -1.4072 -1.1367  0.3900
  167MOL   H20543697   3.118   1.319   7.395 -1.0677 -1.5767  3.1436
  167MOL   H20643698   2.984   1.341   7.291 -0.3866 -0.1514 -0.3088
  167MOL   H20743699   2.958   1.388   7.445 -0.3614 -0.5288 -1.2674
  167MOL   H20843700   3.010   1.723   7.311 -0.4252 -1.4298  1.7250
  167MOL   H20943701   2.899   1.606   7.353 -0.5099 -0.4685 -0.7504
  167MOL   C21043702   2.950   1.588   7.141 -0.4786  0.5132  0.1653
  167MOL   C21143703   2.817   1.656   7.094 -0.4298 -0.2482  0.7130
  167MOL   C21243704   2.786   1.789   7.088  0.1403 -0.1385  0.0841
  167MOL   C21343705   2.664   1.839   7.013 -0.9089 -0.1366  0.4110
  167MOL   C21443706   2.874   1.905   7.136 -0.1269 -0.2602 -0.6311
  167MOL   H21543707   2.920   1.483   7.130  0.2291  0.4402 -1.2677
  167MOL   H21643708   3.030   1.600   7.068 -1.1422  2.5166 -0.2589
  167MOL   H21743709   2.751   1.598   7.032 -0.1897  0.3515 -0.1055
  167MOL   H21843710   2.625   1.914   7.082  2.7998  1.7467  0.5772
  167MOL   H21943711   2.590   1.761   6.993  0.5545 -0.9409 -2.0442
  167MOL   H22043712   2.698   1.897   6.928 -0.9187 -2.1553 -1.0156
  167MOL   H22143713   2.880   1.986   7.063 -1.0600 -1.3825 -1.9937
  167MOL   H22243714   2.978   1.873   7.142 -0.5452 -1.8444 -1.2663
  167MOL   C22343715   2.824   1.956   7.271 -0.3165 -0.1549  0.4320
  167MOL   C22443716   2.886   2.092   7.305 -0.5364  0.2801 -0.1188
  167MOL   C22543717   2.955   2.130   7.415  0.0152  0.1390 -0.4414
  167MOL   C22643718   3.009   2.277   7.423 -0.3787  0.3799 -0.0050
  167MOL   C22743719   2.996   2.036   7.524 -0.4343 -1.0061  0.2169
  167MOL   H22843720   2.836   1.880   7.348  1.7642 -0.7967 -0.5033
  167MOL   H22943721   2.725   2.000   7.259 -0.9999 -1.7844  0.0373
  167MOL   H23043722   2.863   2.158   7.223 -0.6591  2.3546  1.5551
  167MOL   H23143723   2.969   2.325   7.333 -1.2774  0.7815  0.5932
  167MOL   H23243724   3.116   2.269   7.405 -0.6312 -2.2350 -0.4836
  167MOL   H23343725   2.981   2.333   7.512 -0.0926  0.2282  0.1792
  167MOL   H23443726   3.101   2.055   7.547  0.1016  0.2559 -3.0003
  167MOL   H23543727   2.994   1.929   7.501 -1.0854 -0.3205 -3.1612
  167MOL   C23643728   2.922   2.055   7.657  0.3241  0.1223 -0.3325
  167MOL   C23743729   2.992   1.999   7.783  0.6208  0.4728 -0.2690
  167MOL   C23843730   3.075   2.068   7.865  0.7072 -0.1159  0.7221
  167MOL   C23943731   3.129   2.001   0.103  0.2057  0.2921  0.3564
  167MOL   C24043732   3.134   2.210   7.851  0.7639  0.2830 -0.5563
  167MOL   H24143733   2.822   2.011   7.665 -0.6971  2.3326 -0.4664
  167MOL   H24243734   2.909   2.160   7.683 -0.2453 -0.4841  1.9281
  167MOL   H24343735   2.973   1.895   7.802  0.7026  0.2906 -1.1401
  167MOL   H24443736   3.238   1.999   0.097  0.0770 -2.1005 -2.9319
  167MOL   H24543737   3.100   1.896   0.113 -1.8158  0.8591  0.6690
  167MOL   H24643738   3.098   2.045   0.198 -0.3708  0.0533  0.2819
  167MOL   H24743739   3.127   2.239   7.746 -3.3490 -1.0412 -0.7489
  167MOL   H24843740   3.241   2.210   7.871  0.9425  1.7082 -1.4629
  167MOL   C24943741   3.066   2.320   0.057  0.2054  0.4564  0.6700
  167MOL   C25043742   3.120   2.462   0.026  0.5902 -0.8018  0.5051
  167MOL   C25143743   3.157   2.558   0.116  0.0271  0.3852  0.4722
  167MOL   C25243744   3.214   2.687   0.067 -0.3308  0.5918 -0.3422
  167MOL   C25343745   3.161   2.557   0.271 -0.0557  0.2715 -0.6133
  167MOL   H25443746   3.053   2.291   0.161 -1.2006 -1.3593  0.0143
  167MOL   H25543747   2.962   2.331   0.026 -0.3805 -0.1559  2.3351
  167MOL   H25643748   3.126   2.483   7.799 -1.7731 -2.0199  0.0849
  167MOL   H25743749   3.168   2.767   0.127 -0.9940 -2.2263  3.0895
  167MOL   H25843750   3.197   2.719   7.843  1.2246  2.4130 -0.0573
  167MOL   H25943751   3.321   2.691   0.086 -0.6060  3.0158  1.0086
  167MOL   H26043752   3.262   2.534   0.306  0.2573 -0.0805 -1.7243
  167MOL   H26143753   3.094   2.486   0.319 -0.3111  1.8928  1.4857
  167MOL   H26243754   3.138   2.651   0.320 -2.7972 -0.2297 -0.8961
  168MOL     C143755   1.026   6.232   0.976 -0.2896  0.1537 -0.1871
  168MOL     C243756   0.959   6.183   1.100  0.0128 -0.9150 -0.2324
  168MOL     C343757   0.829   6.158   1.115 -0.0195  0.4402 -0.1056
  168MOL     C443758   0.765   6.135   1.251  0.5579 -0.4606  0.7224
  168MOL     C543759   0.727   6.149   0.993 -0.3214 -0.1338  0.2412
  168MOL     H643760   0.958   6.239   0.891 -0.2706 -2.6007 -0.4882
  168MOL     H743761   1.071   6.329   0.995 -0.9200  0.4012  0.0648
  168MOL     H843762   1.021   6.176   1.188 -1.7778  0.2667  1.1539
  168MOL     H943763   0.678   6.199   1.262  1.8160  1.2464  0.8805
  168MOL    H1043764   0.829   6.146   1.339 -1.4994  0.5605  2.1159
  168MOL    H1143765   0.730   6.032   1.239  1.1283 -0.4762 -0.9648
  168MOL    H1243766   0.652   6.076   1.023 -1.6416  1.1107  0.0252
  168MOL    H1343767   0.782   6.103   0.911  0.7202  0.0024  0.8581
  168MOL    H1443768   1.107   6.164   0.952 -0.1209  0.2208  0.1849
  168MOL    C1543769   0.660   6.283   0.970  0.1383 -0.1155  0.0847
  168MOL    C1643770   0.556   6.268   0.865  0.1193 -0.1937  0.1324
  168MOL    C1743771   0.567   6.291   0.734 -1.4016  0.5393 -0.0438
  168MOL    C1843772   0.441   6.276   0.652  0.0392 -0.3022  0.0061
  168MOL    C1943773   0.691   6.327   0.657  0.2986  0.3335  0.1654
  168MOL    H2043774   0.742   6.351   0.948  2.2303 -2.6698 -0.3394
  168MOL    H2143775   0.607   6.315   1.060 -0.0814 -0.2643  0.0076
  168MOL    H2243776   0.455   6.238   0.890  0.2748 -2.7002 -2.0210
  168MOL    H2343777   0.355   6.229   0.700  1.2093 -2.1976  0.3015
  168MOL    H2443778   0.456   6.227   0.556 -0.3673  2.1161 -1.3369
  168MOL    H2543779   0.400   6.373   0.622 -1.0460 -0.9510 -0.6481
  168MOL    H2643780   0.701   6.250   0.581  0.0770  0.0540  0.4151
  168MOL    H2743781   0.780   6.327   0.720  1.3893  1.0764 -1.3381
  168MOL    C2843782   0.672   6.450   0.582  0.3225 -0.1082  0.0853
  168MOL    C2943783   0.789   6.480   0.497  0.3145 -0.0074  0.2650
  168MOL    C3043784   0.796   6.439   0.372 -0.2624 -0.3912 -0.3198
  168MOL    C3143785   0.908   6.489   0.286  0.2855 -0.3535 -0.1933
  168MOL    C3243786   0.690   6.358   0.293 -0.4957  0.1726  0.5693
  168MOL    H3343787   0.671   6.535   0.651 -0.0287  0.7037 -0.9103
  168MOL    H3443788   0.576   6.460   0.531 -0.6089 -1.9546  1.4018
  168MOL    H3543789   0.855   6.546   0.550  0.3351 -2.0783  2.9243
  168MOL    H3643790   0.863   6.542   0.202 -1.8010 -1.2307  0.3259
  168MOL    H3743791   0.972   6.414   0.240 -0.0769  0.2367 -1.6831
  168MOL    H3843792   0.966   6.558   0.347 -0.2010 -0.7243  0.6939
  168MOL    H3943793   0.607   6.332   0.359  0.4746 -1.2855  1.2439
  168MOL    H4043794   0.736   6.263   0.268 -1.2058  0.6598 -2.8473
  168MOL    C4143795   0.643   6.418   0.154 -0.0731 -0.5163 -0.3082
  168MOL    C4243796   0.529   6.336   0.095 -0.1255 -0.4070  0.9539
  168MOL    C4343797   0.451   6.359   7.866 -0.2023  0.3765 -0.3426
  168MOL    C4443798   0.340   6.259   7.818  0.0485 -0.6411 -0.5439
  168MOL    C4543799   0.462   6.484   7.781  0.4952 -0.3118 -0.5034
  168MOL    H4643800   0.727   6.438   0.087  0.9219 -1.0232  0.7747
  168MOL    H4743801   0.601   6.513   0.186  0.8850 -0.0163 -0.5225
  168MOL    H4843802   0.513   6.243   0.149 -2.7369 -0.3702  0.3402
  168MOL    H4943803   0.252   6.313   7.784  0.5236  0.1575 -0.5303
  168MOL    H5043804   0.310   6.197   0.023 -2.0550 -0.5376 -1.1751
  168MOL    H5143805   0.391   6.200   7.742  1.5931 -0.1087  0.0604
  168MOL    H5243806   0.464   6.575   7.841  1.1068 -0.6142 -0.0654
  168MOL    H5343807   0.373   6.501   7.719  0.2662 -0.5073 -0.2291
  168MOL    C5443808   0.563   6.468   7.676 -0.0761 -0.4752  0.3225
  168MOL    C5543809   0.578   6.599   7.601  0.0128 -0.0277 -0.2506
  168MOL    C5643810   0.647   6.711   7.621 -0.5735 -0.7565 -0.7783
  168MOL    C5743811   0.645   6.833   7.531 -0.0066  0.1271  0.7366
  168MOL    C5843812   0.742   6.723   7.739  0.3281 -0.0746  0.5441
  168MOL    H5943813   0.558   6.376   7.618  0.2517 -1.5571  1.9885
  168MOL    H6043814   0.656   6.450   7.730 -0.1254 -1.1822  0.1693
  168MOL    H6143815   0.514   6.621   7.517 -0.1516  0.2640 -0.0484
  168MOL    H6243816   0.745   6.874   7.521  0.3927 -0.8741  0.5363
  168MOL    H6343817   0.606   6.926   7.572  1.0165  0.5961  0.6719
  168MOL    H6443818   0.596   6.809   7.437 -0.8217  1.3814  0.8293
  168MOL    H6543819   0.723   6.640   7.807 -1.5300  1.0786  1.4615
  168MOL    H6643820   0.713   6.817   7.785  0.7603  1.8360 -2.9418
  168MOL    C6743821   0.888   6.712   7.698 -0.5669 -0.0698  0.5269
  168MOL    C6843822   0.985   6.732   7.816  0.2444  0.1806  0.3317
  168MOL    C6943823   1.071   6.651   7.876 -0.9045 -0.1824  0.0459
  168MOL    C7043824   1.175   6.707   0.101  0.0487 -0.7870  0.0117
  168MOL    C7143825   1.084   6.502   7.849  0.0937  0.1341 -0.0949
  168MOL    H7243826   0.924   6.785   7.626  0.5642 -0.6180  0.5172
  168MOL    H7343827   0.917   6.610   7.674 -0.1124  0.5453 -1.6467
  168MOL    H7443828   0.977   6.835   7.849 -4.0817 -0.1066  0.5367
  168MOL    H7543829   1.226   6.636   0.166 -0.2044 -1.2920 -0.3372
  168MOL    H7643830   1.119   6.775   0.165  1.0126 -0.5337  0.5971
  168MOL    H7743831   1.252   6.766   0.053  1.0001 -2.5382 -0.6839
  168MOL    H7843832   1.012   6.461   7.779  1.8320 -0.8902 -1.3086
  168MOL    H7943833   1.078   6.446   0.064  0.7384 -0.2818 -0.2998
  168MOL    C8043834   1.219   6.465   7.782  0.2501  0.4913  0.3116
  168MOL    C8143835   1.254   6.544   7.658 -0.4618  0.4491  0.4032
  168MOL    C8243836   1.285   6.494   7.541  0.0798 -0.0180  0.0692
  168MOL    C8343837   1.295   6.346   7.506  0.2114 -0.1705  0.1273
  168MOL    C8443838   1.310   6.587   7.430  0.1004  0.2986 -0.7209
  168MOL    H8543839   1.223   6.357   7.766 -0.9891  0.7986 -2.2632
  168MOL    H8643840   1.305   6.472   7.848 -0.0606  1.8168  0.5969
  168MOL    H8743841   1.263   6.650   7.677 -0.1929  0.8425 -1.7035
  168MOL    H8843842   1.400   6.324   7.487 -0.2093 -1.6038 -0.5635
  168MOL    H8943843   1.235   6.317   7.420  0.0290 -1.7054  0.7588
  168MOL    H9043844   1.262   6.273   7.580  0.6771 -0.3085  0.1968
  168MOL    H9143845   1.393   6.543   7.374 -0.3070 -0.0427 -1.0541
  168MOL    H9243846   1.342   6.681   7.475 -0.5449  0.7712 -1.2510
  168MOL    C9343847   1.189   6.618   7.340  0.4296  0.1051 -0.1272
  168MOL    C9443848   1.233   6.705   7.225  0.2541  0.7403  0.5254
  168MOL    C9543849   1.163   6.735   7.117  0.4418  0.2912  0.9943
  168MOL    C9643850   1.216   6.821   7.009 -0.4432  0.1078  0.1475
  168MOL    C9743851   1.023   6.677   7.087  0.3706 -0.0027  0.1751
  168MOL    H9843852   1.102   6.653   7.396  0.0674 -0.9224 -0.0330
  168MOL    H9943853   1.163   6.518   7.306  0.5197 -0.9918  2.8407
  168MOL   H10043854   1.327   6.756   7.235  0.9527 -0.8772  2.6441
  168MOL   H10143855   1.278   6.903   7.045  0.6034 -0.6064  0.0198
  168MOL   H10243856   1.269   6.753   6.942  1.6582  0.1683  1.6669
  168MOL   H10343857   1.128   6.865   6.963 -0.8665  2.8326  3.3209
  168MOL   H10443858   0.954   6.762   7.089  0.8507  0.3466  2.0912
  168MOL   H10543859   0.988   6.612   7.167  0.1380  1.3742  1.1983
  168MOL   C10643860   1.020   6.612   6.943 -0.4012 -0.4739  0.6176
  168MOL   C10743861   0.972   6.696   6.831  0.2907  0.1395 -0.0137
  168MOL   C10843862   0.993   6.664   6.702  0.1442 -0.0261  0.1132
  168MOL   C10943863   1.079   6.550   6.652  0.5234 -0.6287  0.1720
  168MOL   C11043864   0.917   6.741   6.595  0.0865  0.4513  0.0373
  168MOL   H11143865   0.957   6.523   6.939  0.7650 -1.4351  2.6459
  168MOL   H11243866   1.120   6.580   6.914 -0.5961 -1.4428  0.9884
  168MOL   H11343867   0.893   6.767   6.850  0.0562  0.4785 -2.1610
  168MOL   H11443868   1.110   6.484   6.733 -1.1636 -0.6411  0.8087
  168MOL   H11543869   1.032   6.482   6.580  0.0979 -0.8190  0.6340
  168MOL   H11643870   1.166   6.595   6.604  0.3126 -0.5534 -0.1417
  168MOL   H11743871   0.986   6.790   6.527  0.3464  1.1991  0.8259
  168MOL   H11843872   0.858   6.823   6.637  1.9687  1.4450  0.7975
  168MOL   C11943873   0.828   6.642   6.516 -0.5527 -0.5330  0.0535
  168MOL   C12043874   0.733   6.715   6.426  0.1614 -0.1119 -0.3098
  168MOL   C12143875   0.746   6.745   6.300 -0.0567  0.3594  0.1642
  168MOL   C12243876   0.638   6.829   6.228 -0.4369  0.5398  0.2009
  168MOL   C12343877   0.860   6.703   6.210  0.1783 -0.0232 -0.0940
  168MOL   H12443878   0.779   6.576   6.587  0.7308 -1.3126  0.2283
  168MOL   H12543879   0.882   6.566   6.459 -0.2283 -1.7377  1.9243
  168MOL   H12643880   0.659   6.761   6.490  0.2697 -1.5742  0.8993
  168MOL   H12743881   0.670   6.933   6.223 -2.2889  1.0390 -2.3655
  168MOL   H12843882   0.538   6.831   6.273 -1.8002  1.7811 -2.7472
  168MOL   H12943883   0.614   6.779   6.135  1.4800 -2.0719  1.0600
  168MOL   H13043884   0.954   6.688   6.263  0.5827 -2.1752 -1.3678
  168MOL   H13143885   0.887   6.794   6.155  1.8552  0.1505  1.0012
  168MOL   C13243886   0.833   6.580   6.114  0.8111 -0.7676 -0.1209
  168MOL   C13343887   0.968   6.551   6.050 -0.2887 -0.5113  0.2885
  168MOL   C13443888   0.981   6.514   5.922  0.1591 -0.2081  0.1891
  168MOL   C13543889   1.116   6.491   5.848  0.6875  0.2847 -0.0391
  168MOL   C13643890   0.862   6.471   5.833  0.3309  0.1755  0.0843
  168MOL   H13743891   0.756   6.596   6.038 -0.4247  1.5245  1.5506
  168MOL   H13843892   0.799   6.502   6.181  0.7907  0.4042  1.2515
  168MOL   H13943893   1.049   6.567   6.119  1.4808 -1.3462 -1.5398
  168MOL   H14043894   1.197   6.532   5.908 -0.3208  1.7926  0.3201
  168MOL   H14143895   1.132   6.534   5.749  0.0162  0.7099  0.0343
  168MOL   H14243896   1.133   6.384   5.833 -0.4718 -0.0444  0.8914
  168MOL   H14343897   0.788   6.415   5.891 -2.3700  3.2437 -0.1969
  168MOL   H14443898   0.888   6.390   5.765 -1.7688 -0.5071  0.0613
  168MOL   C14543899   0.806   6.587   5.741  0.0711 -1.1350 -0.3889
  168MOL   C14643900   0.682   6.534   5.672  0.5134  0.7541  0.6450
  168MOL   C14743901   0.570   6.597   5.646  0.1160  0.2281  0.1508
  168MOL   C14843902   0.464   6.527   5.575 -0.6401 -0.2556 -0.1823
  168MOL   C14943903   0.544   6.746   5.671 -0.1608 -0.1858  0.3493
  168MOL   H15043904   0.876   6.635   5.672  1.1657  0.4940  1.7909
  168MOL   H15143905   0.783   6.670   5.808 -0.1094  0.1290 -1.9783
  168MOL   H15243906   0.699   6.430   5.648  2.3313  1.2294 -0.2377
  168MOL   H15343907   0.487   6.420   5.571  0.3095 -0.1107  1.0137
  168MOL   H15443908   0.456   6.556   5.471  1.7782  0.1692 -0.2663
  168MOL   H15543909   0.374   6.548   5.632 -0.0724  2.6357 -0.3110
  168MOL   H15643910   0.532   6.798   5.576 -1.3360  0.4426  0.8346
  168MOL   H15743911   0.637   6.793   5.705 -0.5465  1.1344 -0.4011
  168MOL   C15843912   0.438   6.762   5.787  0.3158  0.0323 -0.5222
  168MOL   C15943913   0.392   6.897   5.812 -0.1920  0.0254 -0.4999
  168MOL   C16043914   0.267   6.940   5.788  0.4458  0.2332  0.0789
  168MOL   C16143915   0.173   6.877   5.694  0.3671 -0.3007 -0.1565
  168MOL   C16243916   0.221   7.069   5.864 -0.9894 -0.2594 -0.3440
  168MOL   H16343917   0.478   6.706   5.871  0.4929 -1.3959 -1.5441
  168MOL   H16443918   0.346   6.708   5.762  1.0092 -1.2354 -0.3282
  168MOL   H16543919   0.460   6.950   5.876  0.5315 -1.3070 -0.1465
  168MOL   H16643920   0.078   6.860   5.744  0.6730  0.8434  0.8250
  168MOL   H16743921   0.213   6.787   5.647  0.5615 -0.5868  0.5589
  168MOL   H16843922   0.148   6.947   5.614 -0.7024  0.9762  1.2746
  168MOL   H16943923   0.239   7.057   5.971 -1.2852  1.7570 -0.0452
  168MOL   H17043924   0.113   7.085   5.866 -0.8779  0.5897 -0.9421
  168MOL   C17143925   0.286   7.197   5.805 -0.3890 -0.6752 -1.0907
  168MOL   C17243926   0.253   7.211   5.656  0.0969 -0.2201  0.5583
  168MOL   C17343927   0.340   7.237   5.558 -0.8250 -0.0211 -0.0341
  168MOL   C17443928   0.487   7.262   5.567 -0.3854  0.4065  0.1467
  168MOL   C17543929   0.286   7.243   5.414  0.0363 -0.4253 -0.5128
  168MOL   H17643930   0.393   7.198   5.825 -1.2705  1.3986  4.1376
  168MOL   H17743931   0.253   7.293   5.844 -0.5696 -1.3647  0.4708
  168MOL   H17843932   0.149   7.206   5.626 -0.0499 -0.7678  1.1417
  168MOL   H17943933   0.538   7.232   5.475 -1.3284  2.2210 -0.9896
  168MOL   H18043934   0.535   7.224   5.658 -3.1672 -1.6189  0.8328
  168MOL   H18143935   0.490   7.370   5.577  0.6141  0.8310 -3.7856
  168MOL   H18243936   0.197   7.182   5.400  0.5616 -1.0085 -1.3560
  168MOL   H18343937   0.354   7.190   5.348  0.0209  0.5024 -1.2825
  168MOL   C18443938   0.271   7.391   5.369 -0.2432  0.1061 -0.6581
  168MOL   C18543939   0.180   7.396   5.242  0.1804 -0.4241 -0.1109
  168MOL   C18643940   0.212   7.417   5.113  0.0623 -0.5696  0.4245
  168MOL   C18743941   0.110   7.425   5.004  0.1110  0.0266  0.3466
  168MOL   C18843942   0.364   7.429   5.063 -0.2788  0.8861  0.5974
  168MOL   H18943943   0.369   7.427   5.339  0.7987 -2.3674 -0.3346
  168MOL   H19043944   0.221   7.452   5.444  3.1444 -0.2500  1.9736
  168MOL   H19143945   0.075   7.382   5.261  0.0591  1.4571  0.7576
  168MOL   H19243946   0.118   7.333   4.947  0.0685 -0.2250  0.7499
  168MOL   H19343947   0.143   7.509   4.943  0.9739  0.3667  1.2601
  168MOL   H19443948   0.010   7.451   5.039 -0.0751  1.5505 -1.2279
  168MOL   H19543949   0.442   7.421   5.138 -0.9362  1.3078  1.3262
  168MOL   H19643950   0.377   7.533   5.034  0.0628  0.8779  0.7163
  168MOL   C19743951   0.411   7.331   4.950  0.0883 -0.2387  0.3170
  168MOL   C19843952   0.554   7.356   4.916 -1.0717  0.2400  0.3818
  168MOL   C19943953   0.670   7.311   4.967  0.7726 -0.5116 -0.5105
  168MOL   C20043954   0.803   7.347   4.908 -0.4221 -0.2275  0.2652
  168MOL   C20143955   0.661   7.230   5.093 -0.1019  0.1035  0.2280
  168MOL   H20243956   0.349   7.337   4.860 -1.2186  1.1331  1.2713
  168MOL   H20343957   0.412   7.224   4.970 -0.5856 -0.6142 -1.5157
  168MOL   H20443958   0.551   7.420   4.830 -0.6457  0.1047  0.2659
  168MOL   H20543959   0.866   7.262   4.880  0.3876 -0.0068  1.4220
  168MOL   H20643960   0.863   7.403   4.980  2.7466 -1.5964 -1.2027
  168MOL   H20743961   0.786   7.419   4.828  2.8483  0.8388  0.4469
  168MOL   H20843962   0.560   7.217   5.131 -0.0908 -2.1250 -0.4235
  168MOL   H20943963   0.712   7.299   5.161  2.0547 -0.9365 -0.2684
  168MOL   C21043964   0.739   7.101   5.092  0.0526  0.2015 -0.0636
  168MOL   C21143965   0.776   7.061   5.237 -0.3275  0.3213  0.3633
  168MOL   C21243966   0.732   6.955   5.311  0.6582 -0.0583 -0.2390
  168MOL   C21343967   0.775   6.933   5.454  0.7447  0.3400 -0.1657
  168MOL   C21443968   0.618   6.870   5.257  0.2075 -0.1680  0.1327
  168MOL   H21543969   0.834   7.116   5.040 -0.2123  1.9011 -0.0790
  168MOL   H21643970   0.682   7.028   5.035  0.7396 -0.5113  0.1512
  168MOL   H21743971   0.845   7.126   5.289 -1.4528  0.0285  2.2377
  168MOL   H21843972   0.794   6.827   5.471  2.1401  1.0443  3.0896
  168MOL   H21943973   0.692   6.968   5.515  0.0628 -1.2731 -0.1518
  168MOL   H22043974   0.858   6.996   5.487  1.8465  0.3375 -2.8585
  168MOL   H22143975   0.637   6.772   5.301  2.5596 -0.2129 -0.8937
  168MOL   H22243976   0.635   6.866   5.150 -2.6235  1.7343 -0.4312
  168MOL   C22343977   0.480   6.920   5.278 -0.0247  0.4118 -0.3677
  168MOL   C22443978   0.370   6.809   5.270  0.1668 -0.3751 -0.2695
  168MOL   C22543979   0.272   6.788   5.181  0.1014 -0.1876  0.9246
  168MOL   C22643980   0.162   6.679   5.211 -1.1979 -0.1439  0.3230
  168MOL   C22743981   0.234   6.874   5.066  0.2351  0.5321 -0.8958
  168MOL   H22843982   0.453   7.005   5.215 -0.2871 -0.4004 -1.3474
  168MOL   H22943983   0.467   6.965   5.377 -0.7872  1.2799 -0.8477
  168MOL   H23043984   0.379   6.752   5.361 -2.9610 -0.3401  0.1046
  168MOL   H23143985   0.165   6.623   5.304 -3.2700  2.7855  2.2774
  168MOL   H23243986   0.169   6.607   5.130 -0.5324 -0.4254  0.6265
  168MOL   H23343987   0.067   6.732   5.200 -1.2639 -0.5914 -1.5280
  168MOL   H23443988   0.306   6.956   5.071 -0.0105  0.7430 -0.7867
  168MOL   H23543989   0.137   6.923   5.080  1.1219  1.6164  1.8524
  168MOL   C23643990   0.257   6.810   4.927 -0.0937 -0.0127 -0.1721
  168MOL   C23743991   0.404   6.821   4.896 -0.3120  0.1435 -0.4835
  168MOL   C23843992   0.472   6.858   4.788  0.7603 -0.1425 -0.0068
  168MOL   C23943993   0.626   6.870   4.792  0.8112 -0.1108 -0.1507
  168MOL   C24043994   0.404   6.907   4.658 -1.0113 -0.0270  0.1418
  168MOL   H24143995   0.191   6.856   4.854  0.1053 -0.1454 -0.4355
  168MOL   H24243996   0.226   6.706   4.915 -0.0187  0.2320 -2.6397
  168MOL   H24343997   0.469   6.787   4.975  1.1597  2.6193 -0.5818
  168MOL   H24443998   0.665   6.971   4.805  1.4283 -0.3729  0.1009
  168MOL   H24543999   0.663   6.836   4.696 -0.6866 -2.4529  0.0627
  168MOL   H24644000   0.659   6.798   4.867  2.1888  0.8808  0.2237
  168MOL   H24744001   0.319   6.851   4.619 -1.7040  1.1272 -0.0208
  168MOL   H24844002   0.478   6.896   4.579 -0.6800  1.9950  0.1582
  168MOL   C24944003   0.370   7.061   4.676  0.6024 -0.5633  0.1935
  168MOL   C25044004   0.302   7.111   4.548 -0.4939  0.5981 -0.3943
  168MOL   C25144005   0.187   7.183   4.537 -0.5175 -0.1445  0.1388
  168MOL   C25244006   0.121   7.206   4.404  0.1792  0.1806 -0.3162
  168MOL   C25344007   0.112   7.238   4.652 -0.1899 -0.0639 -0.4598
  168MOL   H25444008   0.456   7.128   4.681 -1.3773  1.9754  0.7988
  168MOL   H25544009   0.300   7.068   4.759  0.0831 -0.1432 -0.2697
  168MOL   H25644010   0.343   7.087   4.451 -0.9202  0.7934 -0.6227
  168MOL   H25744011   0.137   7.312   4.383  1.5050 -0.1770 -1.2006
  168MOL   H25844012   0.013   7.189   4.403 -0.0802  1.7337 -0.1197
  168MOL   H25944013   0.164   7.149   4.321  0.2517  1.8195 -1.4323
  168MOL   H26044014   0.164   7.286   4.735 -1.6907  1.1033 -0.1613
  168MOL   H26144015   0.059   7.157   4.702 -0.0516 -0.0630 -0.3119
  168MOL   H26244016   0.028   7.302   4.623  0.3899 -1.0920 -4.6701
  169MOL     C144017   6.365   7.663   0.828 -1.2230  0.7281 -0.0808
  169MOL     C244018   6.410   7.688   0.972 -0.4758 -0.8669 -0.5897
  169MOL     C344019   6.430   7.592   1.066  0.8998 -0.9229  0.1443
  169MOL     C444020   6.502   7.613   1.200 -0.0144 -0.0445 -0.3923
  169MOL     C544021   6.396   7.440   1.047 -0.3963 -0.1931 -0.2935
  169MOL     H644022   6.349   7.562   0.790  2.0310 -0.0168  0.3581
  169MOL     H744023   6.275   7.722   0.812 -0.0240  2.6893  0.3332
  169MOL     H844024   6.448   7.789   0.968  0.4036 -1.1223  0.8865
  169MOL     H944025   6.528   7.719   1.210 -0.4651 -0.1596  2.3283
  169MOL    H1044026   6.594   7.555   1.211 -0.9903 -1.8365 -1.5197
  169MOL    H1144027   6.445   7.582   1.287 -1.2072  1.0870 -0.7481
  169MOL    H1244028   6.303   7.418   0.995 -0.2885 -0.1325 -0.5158
  169MOL    H1344029   6.377   7.394   1.144 -1.9141 -1.9103 -1.3711
  169MOL    H1444030   6.433   7.704   0.755  1.1619  0.3653  1.8713
  169MOL    C1544031   6.516   7.358   0.975  0.2985  0.8727  0.2038
  169MOL    C1644032   6.486   7.210   0.961  0.6790 -0.2912  0.1684
  169MOL    C1744033   6.571   7.117   0.917  0.1732  0.1469 -0.2314
  169MOL    C1844034   6.525   6.968   0.905  0.8187  0.1616 -0.4436
  169MOL    C1944035   6.716   7.139   0.891 -0.1289  0.1966  0.0255
  169MOL    H2044036   6.612   7.372   1.025  1.7055  2.2445 -2.7961
  169MOL    H2144037   6.532   7.400   0.876  0.5555 -0.6370 -0.4119
  169MOL    H2244038   6.383   7.177   0.971  1.0100 -0.3865  3.9649
  169MOL    H2344039   6.417   6.954   0.916  0.7895 -1.2105 -2.2590
  169MOL    H2444040   6.578   6.892   0.961 -0.5676  1.0492  2.1389
  169MOL    H2544041   6.547   6.933   0.804 -0.4322 -0.2881 -0.5656
  169MOL    H2644042   6.741   7.244   0.891  1.2989 -0.1193  1.8090
  169MOL    H2744043   6.736   7.101   0.791  0.3660  2.3149 -0.6965
  169MOL    C2844044   6.802   7.079   1.005 -1.1590 -0.5294  0.3698
  169MOL    C2944045   6.952   7.112   0.981  0.4521  0.5894  0.2768
  169MOL    C3044046   7.033   7.150   1.080 -0.0506 -0.4811  0.1394
  169MOL    C3144047   7.180   7.187   1.048  0.2198  0.0090  0.1500
  169MOL    C3244048   6.998   7.164   1.230 -0.5007  0.3344  1.1566
  169MOL    H3344049   6.793   6.970   1.014 -0.0442 -0.9515 -2.8505
  169MOL    H3444050   6.771   7.114   1.103 -0.8497  0.7641  0.0172
  169MOL    H3544051   6.991   7.102   0.881  0.0449 -0.5998  0.2314
  169MOL    H3644052   7.245   7.107   1.084  0.1536  0.3662  1.0849
  169MOL    H3744053   7.202   7.285   1.090 -1.3716  0.5076 -0.1629
  169MOL    H3844054   7.201   7.192   0.941 -0.8700  0.5673 -0.0434
  169MOL    H3944055   7.080   7.132   1.293  0.5110  0.7915  0.0830
  169MOL    H4044056   6.928   7.085   1.256  0.3292 -0.8783 -0.2353
  169MOL    C4144057   6.946   7.304   1.267  0.1221 -0.4401 -0.3592
  169MOL    C4244058   6.900   7.294   1.411  0.5947  0.4177  0.8975
  169MOL    C4344059   6.775   7.293   1.455  0.1598 -0.2475 -1.0527
  169MOL    C4444060   6.751   7.298   1.603 -0.8286  0.2563  0.9860
  169MOL    C4544061   6.653   7.278   1.364 -0.5227 -0.5617 -0.1981
  169MOL    H4644062   6.876   7.343   1.194  1.5971 -0.0254 -1.5786
  169MOL    H4744063   7.033   7.369   1.264  0.2420 -0.3922  2.4530
  169MOL    H4844064   6.971   7.309   1.491  0.6570  0.2127  0.8812
  169MOL    H4944065   6.650   7.333   1.624 -0.8721 -1.1408  3.2595
  169MOL    H5044066   6.826   7.359   1.654  0.8357 -0.0635 -0.9952
  169MOL    H5144067   6.770   7.201   1.648 -1.3372 -0.2641  0.0947
  169MOL    H5244068   6.669   7.275   1.256 -0.9594  0.4313 -0.2946
  169MOL    H5344069   6.591   7.367   1.376  1.7822  1.4113 -2.3377
  169MOL    C5444070   6.562   7.161   1.405 -0.3055  0.4897 -0.6015
  169MOL    C5544071   6.427   7.163   1.332  0.4000 -0.4804 -0.2493
  169MOL    C5644072   6.322   7.244   1.366 -0.0285  0.0490  0.4987
  169MOL    C5744073   6.190   7.253   1.281 -0.4203 -0.0747  0.0777
  169MOL    C5844074   6.312   7.334   1.484 -0.1835  0.1811 -0.4678
  169MOL    H5944075   6.540   7.164   1.512  0.9112 -1.3886 -0.2592
  169MOL    H6044076   6.600   7.060   1.390  0.5355  0.6964  0.0568
  169MOL    H6144077   6.431   7.089   1.253  2.3171  0.0006 -0.6175
  169MOL    H6244078   6.192   7.195   1.189 -1.9452 -1.5772  0.9594
  169MOL    H6344079   6.173   7.355   1.245  1.3861  0.4246  0.5909
  169MOL    H6444080   6.101   7.224   1.338 -1.7641 -1.0335 -2.4466
  169MOL    H6544081   6.256   7.423   1.458 -0.7660 -0.4221 -1.2830
  169MOL    H6644082   6.412   7.367   1.515  0.1055 -1.3795  0.3120
  169MOL    C6744083   6.236   7.263   1.594 -0.2025 -0.6482  0.0028
  169MOL    C6844084   6.256   7.327   1.730  0.1743  0.7449 -0.6415
  169MOL    C6944085   6.265   7.250   1.843 -0.1922 -0.4839  0.6822
  169MOL    C7044086   6.257   7.325   1.974  0.5616  0.3357 -0.4966
  169MOL    C7144087   6.274   7.096   1.855 -0.1659 -0.3963 -0.4317
  169MOL    H7244088   6.256   7.156   1.598 -0.0370 -0.6325 -0.3859
  169MOL    H7344089   6.129   7.276   1.578 -0.3974 -0.5974  1.3114
  169MOL    H7444090   6.257   7.435   1.733 -2.0002  0.7386  1.1915
  169MOL    H7544091   6.261   7.433   1.961 -0.1707  0.3896 -0.3414
  169MOL    H7644092   6.336   7.283   2.036  0.0507 -1.9134 -1.2880
  169MOL    H7744093   6.161   7.309   2.024  0.6800 -1.0513 -0.6810
  169MOL    H7844094   6.359   7.078   1.920  0.0799  0.9535 -0.3597
  169MOL    H7944095   6.294   7.049   1.758  1.1116  2.2388 -1.5121
  169MOL    C8044096   6.137   7.039   1.902  0.3221  0.1627  0.1250
  169MOL    C8144097   6.125   6.887   1.878  0.0533 -0.4611  0.2401
  169MOL    C8244098   6.087   6.829   1.764 -0.5948 -0.3027 -0.2264
  169MOL    C8344099   6.036   6.913   1.644 -0.1644  0.1149 -0.0140
  169MOL    C8444100   6.076   6.679   1.755  0.1186 -0.5291 -0.3002
  169MOL    H8544101   6.055   7.093   1.854 -0.2715 -0.8212  0.0150
  169MOL    H8644102   6.126   7.060   2.008 -1.7447  1.3479 -0.2925
  169MOL    H8744103   6.147   6.820   1.960 -0.9103 -0.9389  0.1181
  169MOL    H8844104   6.019   6.856   1.553 -0.0454 -0.2071  0.1678
  169MOL    H8944105   6.116   6.987   1.634 -1.8369  2.1292  1.0789
  169MOL    H9044106   5.949   6.977   1.662 -0.6169 -0.1861 -1.0831
  169MOL    H9144107   6.071   6.633   1.854 -1.3784 -0.8348 -0.5010
  169MOL    H9244108   6.160   6.634   1.702 -0.5796 -1.1776 -0.8712
  169MOL    C9344109   5.938   6.624   1.696 -0.5492  0.2364  0.0185
  169MOL    C9444110   5.903   6.478   1.742 -0.9291 -0.9547  0.2747
  169MOL    C9544111   5.811   6.453   1.841  0.0411  0.1839  0.4699
  169MOL    C9644112   5.793   6.310   1.895 -0.9165  0.0431  0.4199
  169MOL    C9744113   5.723   6.559   1.910 -0.5608 -0.8849  0.0721
  169MOL    H9844114   5.956   6.624   1.588  0.0227  0.6161  0.1054
  169MOL    H9944115   5.859   6.694   1.722 -1.3406 -1.0025  1.0056
  169MOL   H10044116   5.966   6.398   1.704 -0.3792  0.5641 -2.1314
  169MOL   H10144117   5.703   6.256   1.867 -1.1679 -0.9513  3.0226
  169MOL   H10244118   5.873   6.242   1.867 -0.6338  1.2246 -1.7482
  169MOL   H10344119   5.805   6.313   2.003  1.9725 -2.9567  0.2575
  169MOL   H10444120   5.626   6.511   1.927 -1.0499  0.0662 -0.0008
  169MOL   H10544121   5.709   6.640   1.839  1.3809 -0.4007  0.2348
  169MOL   C10644122   5.773   6.608   2.046  0.0752 -0.7227 -0.7646
  169MOL   C10744123   5.666   6.700   2.110 -0.5106 -0.4122 -0.0978
  169MOL   C10844124   5.674   6.832   2.129 -0.0667  0.4247 -0.3878
  169MOL   C10944125   5.790   6.918   2.072  0.1542  0.2231  0.3086
  169MOL   C11044126   5.568   6.897   2.211  0.4322  0.0152  0.6064
  169MOL   H11144127   5.872   6.653   2.044 -1.2377  2.2344 -1.2424
  169MOL   H11244128   5.776   6.518   2.109 -0.2784  0.3756  0.8475
  169MOL   H11344129   5.587   6.641   2.153 -2.0993  0.8088 -1.2796
  169MOL   H11444130   5.747   6.962   1.982 -1.6440 -2.3470 -0.1363
  169MOL   H11544131   5.827   6.989   2.146 -0.9948 -0.2573  1.3702
  169MOL   H11644132   5.876   6.855   2.051 -0.2543 -0.3232  0.2656
  169MOL   H11744133   5.495   6.816   2.213 -0.5229  0.8689  1.0357
  169MOL   H11844134   5.519   6.983   2.166 -0.2608 -0.5241  0.3326
  169MOL   C11944135   5.619   6.928   2.355  0.4542 -0.7910 -0.0214
  169MOL   C12044136   5.499   6.964   2.440  0.1613 -0.6287  0.0932
  169MOL   C12144137   5.494   6.917   2.569  0.2259  0.1570  0.2960
  169MOL   C12244138   5.379   6.950   2.662  1.1240  0.1520 -0.1499
  169MOL   C12344139   5.595   6.829   2.631  0.1268  0.5712 -0.2255
  169MOL   H12444140   5.695   7.007   2.356  2.4453 -2.6630 -0.5756
  169MOL   H12544141   5.657   6.834   2.394 -1.5585 -0.8948  1.7833
  169MOL   H12644142   5.432   7.039   2.402  1.0113  0.4565  0.7277
  169MOL   H12744143   5.303   6.992   2.595  1.8636  0.8033 -0.5973
  169MOL   H12844144   5.397   7.032   2.732 -0.6472  1.0712 -0.7274
  169MOL   H12944145   5.337   6.865   2.715  0.0634 -0.4896 -1.9744
  169MOL   H13044146   5.631   6.747   2.569  0.5647  0.7695 -0.2367
  169MOL   H13144147   5.546   6.787   2.719  2.0190  0.6675  0.9151
  169MOL   C13244148   5.712   6.921   2.680  0.3970  0.4244 -0.0177
  169MOL   C13344149   5.809   6.847   2.767 -0.3657 -0.2308 -0.5805
  169MOL   C13444150   5.941   6.853   2.754  0.2985  0.9821  0.5886
  169MOL   C13544151   6.032   6.767   2.843 -0.1198  0.1688  0.1282
  169MOL   C13644152   6.024   6.931   2.645  0.5550  0.3304 -0.1196
  169MOL   H13744153   5.657   7.005   2.724 -2.3442 -1.8974  1.2029
  169MOL   H13844154   5.761   6.959   2.591 -1.4272 -0.4748 -1.4464
  169MOL   H13944155   5.765   6.801   2.854 -1.2393  1.5137 -0.0652
  169MOL   H14044156   6.012   6.786   2.949 -0.2015  0.4680  0.0599
  169MOL   H14144157   6.140   6.773   2.829 -0.2829  0.3634 -1.0822
  169MOL   H14244158   6.016   6.660   2.831 -0.1075  0.1975 -0.1448
  169MOL   H14344159   6.129   6.939   2.673  1.1762 -0.0602 -2.2481
  169MOL   H14444160   5.982   7.030   2.628 -1.2932 -0.8796 -2.9366
  169MOL   C14544161   6.025   6.859   2.511  0.3810  0.3376 -0.5786
  169MOL   C14644162   6.128   6.920   2.424 -0.2431  0.1240 -0.2600
  169MOL   C14744163   6.234   6.862   2.364 -0.0390 -0.5872 -0.7617
  169MOL   C14844164   6.333   6.941   2.281  0.0785  0.3111 -0.8949
  169MOL   C14944165   6.278   6.719   2.366  0.2184 -0.4700 -0.7478
  169MOL   H15044166   5.930   6.884   2.465  0.7168  1.0299 -0.8958
  169MOL   H15144167   6.041   6.752   2.524 -1.8164 -0.1356 -1.5837
  169MOL   H15244168   6.111   7.026   2.416 -2.2793 -0.0686  1.1764
  169MOL   H15344169   6.340   7.044   2.315  0.4251 -0.6023  1.9525
  169MOL   H15444170   6.301   6.938   2.176 -0.2687  1.4236 -0.8222
  169MOL   H15544171   6.437   6.913   2.294 -0.2370 -0.4319  0.1017
  169MOL   H15644172   6.222   6.675   2.448 -0.8822 -0.0339 -1.2531
  169MOL   H15744173   6.384   6.721   2.393  0.2019  1.0958 -0.7961
  169MOL   C15844174   6.240   6.646   2.235  0.0528 -0.6445  0.2122
  169MOL   C15944175   6.267   6.495   2.232  0.1932 -1.5170 -0.2186
  169MOL   C16044176   6.313   6.412   2.128 -0.2004 -0.1838 -0.0623
  169MOL   C16144177   6.334   6.455   1.986 -0.5881 -0.6711  0.1751
  169MOL   C16244178   6.328   6.258   2.161 -0.1023 -0.2097 -0.3833
  169MOL   H16344179   6.293   6.685   2.148  0.6451 -0.8865  0.4664
  169MOL   H16444180   6.133   6.664   2.223  0.1692  0.0733  0.2189
  169MOL   H16544181   6.253   6.442   2.325 -1.4586  0.8941  0.9794
  169MOL   H16644182   6.241   6.441   1.930  1.1296 -2.4011 -2.3162
  169MOL   H16744183   6.426   6.405   1.956  0.1646  0.0752  1.2027
  169MOL   H16844184   6.349   6.561   1.965  1.0166 -0.6012  1.5445
  169MOL   H16944185   6.342   6.242   2.268  0.0486 -1.8080 -0.6312
  169MOL   H17044186   6.423   6.228   2.116 -0.1005  0.1843 -0.6496
  169MOL   C17144187   6.217   6.172   2.103 -0.2170  0.0905  0.7946
  169MOL   C17244188   6.245   6.027   2.131  0.0499 -0.0514  0.0896
  169MOL   C17344189   6.212   5.921   2.055  0.3920 -0.5128 -0.1212
  169MOL   C17444190   6.145   5.931   1.919 -1.0430 -0.2685  0.1510
  169MOL   C17544191   6.221   5.772   2.106  0.3369 -0.4012 -0.0828
  169MOL   H17644192   6.215   6.203   1.998  1.6333 -1.6855  0.2046
  169MOL   H17744193   6.125   6.202   2.154  0.8797  3.1971  1.0406
  169MOL   H17844194   6.279   5.999   2.229  1.8890 -0.2050 -0.5864
  169MOL   H17944195   6.133   6.034   1.887 -0.3208 -0.1180  0.3467
  169MOL   H18044196   6.046   5.891   1.939 -1.0995  0.9238  2.2799
  169MOL   H18144197   6.193   5.881   1.834 -1.1271  1.0053 -0.6599
  169MOL   H18244198   6.310   5.725   2.064  0.3718  1.2158 -1.8621
  169MOL   H18344199   6.137   5.725   2.057 -0.5441 -1.1413  2.0665
  169MOL   C18444200   6.218   5.744   2.259  0.6032  0.1036  0.2485
  169MOL   C18544201   6.204   5.599   2.289 -0.4878 -0.1399 -1.3456
  169MOL   C18644202   6.256   5.532   2.397 -0.2683  0.5192 -0.5244
  169MOL   C18744203   6.214   5.390   2.414 -0.2476 -0.1043 -0.3579
  169MOL   C18844204   6.361   5.583   2.491  0.1247 -0.5802  0.5479
  169MOL   H18944205   6.140   5.796   2.317 -1.2473 -1.3637 -0.8690
  169MOL   H19044206   6.314   5.780   2.295 -0.1064  0.6491  1.6848
  169MOL   H19144207   6.140   5.542   2.224 -0.1276  0.4463 -2.2245
  169MOL   H19244208   6.137   5.355   2.344 -0.6085 -1.4172  0.6724
  169MOL   H19344209   6.179   5.373   2.516  0.6169  1.9788  0.3120
  169MOL   H19444210   6.297   5.321   2.401 -1.7049 -2.4597  2.2610
  169MOL   H19544211   6.420   5.645   2.423 -1.4332  0.2034 -0.1094
  169MOL   H19644212   6.431   5.502   2.512  0.0271 -0.5939  0.8119
  169MOL   C19744213   6.327   5.642   2.625 -0.1077  0.2010 -0.5941
  169MOL   C19844214   6.436   5.718   2.697 -0.0038  0.4647 -0.0416
  169MOL   C19944215   6.437   5.843   2.738 -0.0395 -1.0006  0.3124
  169MOL   C20044216   6.567   5.896   2.792  0.0314 -0.8591  0.0077
  169MOL   C20144217   6.316   5.938   2.711 -1.1491 -0.4300 -0.9634
  169MOL   H20244218   6.292   5.565   2.693  0.1154 -0.8573 -1.6507
  169MOL   H20344219   6.241   5.707   2.604  0.4135  0.7440 -1.0852
  169MOL   H20444220   6.524   5.657   2.706 -0.0685  0.2650 -0.7156
  169MOL   H20544221   6.644   5.819   2.780 -0.3549 -0.9916 -1.8435
  169MOL   H20644222   6.561   5.920   2.898  0.8625  1.3384 -0.4208
  169MOL   H20744223   6.595   5.990   2.745  1.4319 -0.6143  1.2714
  169MOL   H20844224   6.296   5.981   2.810 -0.8297  1.7501 -1.8236
  169MOL   H20944225   6.217   5.900   2.686 -0.7455 -0.6502 -2.2642
  169MOL   C21044226   6.349   6.050   2.607  0.5782  0.1680 -0.4057
  169MOL   C21144227   6.236   6.148   2.594 -0.2234 -0.2652 -0.6547
  169MOL   C21244228   6.242   6.284   2.605 -1.2953  0.6308  0.1734
  169MOL   C21344229   6.122   6.369   2.598 -0.4968  0.1305 -0.2454
  169MOL   C21444230   6.370   6.364   2.627 -0.4064 -0.2145 -1.2097
  169MOL   H21544231   6.350   5.992   2.514  2.1140 -1.2574  0.4639
  169MOL   H21644232   6.444   6.098   2.630  0.9484 -0.3367 -0.8570
  169MOL   H21744233   6.139   6.105   2.575  0.1824 -1.2059 -0.6250
  169MOL   H21844234   6.114   6.426   2.690  1.3500 -2.0974  1.3598
  169MOL   H21944235   6.044   6.294   2.611  1.0199 -1.0335  2.4123
  169MOL   H22044236   6.114   6.433   2.510 -1.6388 -1.6293 -1.4576
  169MOL   H22144237   6.358   6.464   2.586 -0.2838 -0.3094 -1.4834
  169MOL   H22244238   6.453   6.323   2.570  0.7408  1.4076 -0.7378
  169MOL   C22344239   6.403   6.372   2.774 -0.0404 -0.0259 -0.1312
  169MOL   C22444240   6.530   6.458   2.798 -0.2651  0.5372 -0.2395
  169MOL   C22544241   6.639   6.421   2.866  0.2323  0.0528  0.7253
  169MOL   C22644242   6.753   6.520   2.885  0.1726  0.1287  0.0357
  169MOL   C22744243   6.656   6.291   2.943  0.3898  0.5665 -0.0814
  169MOL   H22844244   6.416   6.270   2.808  1.4290 -0.0980 -0.8526
  169MOL   H22944245   6.322   6.417   2.832  0.5316  0.8851 -0.0095
  169MOL   H23044246   6.538   6.557   2.757  0.9591  0.2510 -0.7022
  169MOL   H23144247   6.847   6.480   2.846  0.2815 -0.6646  1.0808
  169MOL   H23244248   6.769   6.547   2.989  1.2026 -1.5021  0.3208
  169MOL   H23344249   6.749   6.614   2.829 -0.2973  0.5860  0.8362
  169MOL   H23444250   6.761   6.269   2.965  0.0376 -1.2377 -0.0844
  169MOL   H23544251   6.623   6.208   2.880  0.7888  3.0577 -3.7381
  169MOL   C23644252   6.581   6.290   3.078  0.2895  0.0291  0.4201
  169MOL   C23744253   6.454   6.205   3.079 -0.0515 -0.8870 -0.2378
  169MOL   C23844254   6.429   6.101   3.167 -0.5931 -0.1082 -0.1160
  169MOL   C23944255   6.306   6.013   3.158  0.3914 -0.1025 -0.1625
  169MOL   C24044256   6.520   6.057   3.283  0.4694 -0.2619  0.3929
  169MOL   H24144257   6.551   6.389   3.114 -0.7030 -0.4172  0.8343
  169MOL   H24244258   6.643   6.249   3.158 -0.8562 -2.7997 -0.0860
  169MOL   H24344259   6.375   6.225   3.008  0.6846 -1.8048 -1.3200
  169MOL   H24444260   6.231   6.046   3.086 -1.8621  0.1664  2.2241
  169MOL   H24544261   6.262   6.026   3.257 -1.8060 -0.0581 -1.1107
  169MOL   H24644262   6.324   5.909   3.130 -2.2699 -0.4705 -0.6308
  169MOL   H24744263   6.620   6.080   3.247 -0.0051  0.1880 -0.6627
  169MOL   H24844264   6.506   5.950   3.299  0.2012 -0.3640 -0.4912
  169MOL   C24944265   6.482   6.123   3.417  0.7283  0.2438  0.4681
  169MOL   C25044266   6.573   6.076   3.532  0.6014 -0.4205  0.2413
  169MOL   C25144267   6.539   6.023   3.652 -0.9228 -0.7972 -0.2957
  169MOL   C25244268   6.631   5.975   3.758  0.3494  0.2876 -0.6881
  169MOL   C25344269   6.389   6.010   3.688 -0.5103 -0.4829  0.0392
  169MOL   H25444270   6.376   6.102   3.431  0.7723  0.5101  1.1764
  169MOL   H25544271   6.483   6.232   3.412 -0.2827  0.2534  0.2007
  169MOL   H25644272   6.679   6.096   3.524  0.6985  1.8703  5.2977
  169MOL   H25744273   6.735   5.997   3.734 -0.0130  1.5005 -1.1977
  169MOL   H25844274   6.608   5.872   3.784 -1.0679  0.5876 -0.7194
  169MOL   H25944275   6.613   6.037   3.846  0.8500  0.5021 -0.7324
  169MOL   H26044276   6.337   6.103   3.665  0.6202  0.1061 -0.1715
  169MOL   H26144277   6.358   5.969   3.784 -0.3786 -0.1421  0.2276
  169MOL   H26244278   6.343   5.949   3.610  1.1228  0.7045 -1.8909
  170MOL     C144279   0.444   7.811   0.636 -0.4455 -0.5785  0.3871
  170MOL     C244280   0.402   7.816   0.491 -0.1592  0.3330  0.0724
  170MOL     C344281   0.297   0.001   0.440  0.3770 -0.3178  0.1300
  170MOL     C444282   0.274   7.862   0.296  0.3643 -0.1192  0.1281
  170MOL     C544283   0.210   0.104   0.509 -0.1411 -0.3631 -0.0443
  170MOL     H644284   0.379   7.740   0.688 -0.4807 -0.6979  0.1777
  170MOL     H744285   0.547   7.778   0.650  0.7634  2.8833 -0.1027
  170MOL     H844286   0.449   7.744   0.426  1.4989  0.1888  1.4126
  170MOL     H944287   0.292   0.083   0.258  0.4413 -0.3296 -0.4001
  170MOL    H1044288   0.173   7.831   0.269  0.8866  0.2388 -2.2975
  170MOL    H1144289   0.340   7.788   0.250 -0.1491  0.8558 -2.2341
  170MOL    H1244290   0.198   0.188   0.441 -0.2847  0.3966  0.9179
  170MOL    H1344291   0.253   0.133   0.605 -0.3734  0.2778 -0.1348
  170MOL    H1444292   0.450   0.020   0.699 -2.1834 -0.6332  0.6631
  170MOL    C1544293   0.071   0.046   0.543  0.1150  0.1503 -0.0344
  170MOL    C1644294   7.856   0.155   0.598 -0.0631 -1.6717  0.3291
  170MOL    C1744295   7.727   0.148   0.628  0.4194  0.1935 -0.1898
  170MOL    C1844296   7.657   0.277   0.671 -0.7114  0.7591  0.0029
  170MOL    C1944297   7.640   0.028   0.595  0.2309  0.0142 -0.1554
  170MOL    H2044298   0.065   7.846   0.618 -0.7924 -1.4662 -1.7720
  170MOL    H2144299   0.037   0.012   0.446  1.1242 -1.0259  0.0232
  170MOL    H2244300   0.026   0.250   0.610 -3.9400  0.2113  2.3064
  170MOL    H2344301   7.638   0.344   0.587 -0.1992 -0.5006 -1.1539
  170MOL    H2444302   7.714   0.326   0.749  3.2411  1.3327 -3.0842
  170MOL    H2544303   7.558   0.248   0.706 -0.1201 -0.1401  0.9428
  170MOL    H2644304   7.709   7.823   0.585  0.3298 -0.1093  1.3940
  170MOL    H2744305   7.601   0.045   0.494  1.6660 -2.1682 -1.1190
  170MOL    C2844306   7.532   7.874   0.699  0.4259 -0.2960 -0.6545
  170MOL    C2944307   7.447   7.753   0.664 -0.4807 -0.5538  0.7654
  170MOL    C3044308   7.450   7.635   0.738 -0.6863  0.1117  0.2866
  170MOL    C3144309   7.373   7.523   0.688 -0.2299 -0.4580  0.2640
  170MOL    C3244310   7.536   7.614   0.852  0.2770 -0.0699  0.1447
  170MOL    H3344311   7.452   0.068   0.712  0.4128 -0.3031 -0.6964
  170MOL    H3444312   7.573   7.873   0.800 -2.0509  2.2835  0.4527
  170MOL    H3544313   7.385   7.760   0.576  0.8841 -0.1037 -0.1700
  170MOL    H3644314   7.296   7.556   0.619 -0.0592 -1.1535 -0.2565
  170MOL    H3744315   7.329   7.461   0.766  0.4559 -0.5599  0.5722
  170MOL    H3844316   7.436   7.452   0.635  0.9860  0.1499  0.8735
  170MOL    H3944317   7.624   7.678   0.849  0.9788 -0.8934  1.8446
  170MOL    H4044318   7.574   7.512   0.851 -0.0883 -0.1965 -0.5322
  170MOL    C4144319   7.471   7.636   0.990 -0.1488 -0.8848  0.5439
  170MOL    C4244320   7.551   7.614   1.119  0.4191  0.1485  0.1654
  170MOL    C4344321   7.499   7.564   1.235  0.1988  0.1843  0.1544
  170MOL    C4444322   7.590   7.561   1.358  0.2539  0.1173  0.2403
  170MOL    C4544323   7.351   7.522   1.257 -0.1376 -0.8543  0.3509
  170MOL    H4644324   7.383   7.572   1.000 -0.3493 -0.7521 -0.3860
  170MOL    H4744325   7.428   7.736   0.993 -1.6734 -1.5284  0.6788
  170MOL    H4844326   7.651   7.650   1.107  0.6915 -0.8477 -0.6182
  170MOL    H4944327   7.533   7.577   1.450  0.0571  1.3743 -0.0892
  170MOL    H5044328   7.676   7.628   1.355 -0.0229  0.3943 -2.6173
  170MOL    H5144329   7.629   7.461   1.375 -0.2838  0.0951  1.4199
  170MOL    H5244330   7.342   7.450   1.338  2.2157 -1.3611  0.2037
  170MOL    H5344331   7.313   7.475   1.166  1.9518 -0.9170 -0.5205
  170MOL    C5444332   7.274   7.649   1.295  0.2714 -0.1744 -0.1146
  170MOL    C5544333   7.121   7.632   1.287  0.4355  0.2944  0.3663
  170MOL    C5644334   7.045   7.689   1.194 -0.4895  0.5400  0.5261
  170MOL    C5744335   6.890   7.666   1.206  0.3960  0.2663  0.5085
  170MOL    C5844336   7.090   7.799   1.092  0.6883 -0.3216  0.3149
  170MOL    H5944337   7.322   7.732   1.241  2.2928 -1.1177  0.1683
  170MOL    H6044338   7.313   7.675   1.393 -0.5268  0.9232 -0.0831
  170MOL    H6144339   7.073   7.567   1.359 -2.0112 -0.2833 -1.7343
  170MOL    H6244340   6.840   7.628   1.117  1.5925  0.0879 -0.1038
  170MOL    H6344341   6.857   7.768   1.224 -1.5956  0.1482 -2.2552
  170MOL    H6444342   6.863   7.609   1.295  1.3714 -1.7452 -0.4480
  170MOL    H6544343   7.023   7.816   1.007  1.4303 -0.8716 -0.3853
  170MOL    H6644344   7.176   7.749   1.047 -0.6091 -0.4718 -2.1315
  170MOL    C6744345   7.129   0.053   1.159 -0.2168  0.1783 -0.4580
  170MOL    C6844346   7.202   0.148   1.069  0.0455 -1.3173  0.0453
  170MOL    C6944347   7.320   0.209   1.087 -0.1678  0.2382 -0.1249
  170MOL    C7044348   7.391   0.295   0.979 -0.5791 -0.2298 -0.0707
  170MOL    C7144349   7.414   0.185   1.209 -0.2965 -0.3903  0.1756
  170MOL    H7244350   7.194   0.033   1.244  1.3054 -1.7143 -2.0140
  170MOL    H7344351   7.033   0.089   1.197 -1.6257 -3.5092 -0.2774
  170MOL    H7444352   7.149   0.164   0.976  1.5071 -0.3798 -0.6582
  170MOL    H7544353   7.326   0.337   0.902 -0.3949 -1.0687 -0.6873
  170MOL    H7644354   7.464   0.243   0.917 -0.8127  1.2703 -1.6204
  170MOL    H7744355   7.438   0.376   1.034  2.2313 -1.6873 -0.2755
  170MOL    H7844356   7.359   0.144   1.294  1.2439  0.8046  1.7781
  170MOL    H7944357   7.451   0.279   1.247 -0.7447 -0.1153 -0.0602
  170MOL    C8044358   7.534   0.089   1.179  0.7319  0.5039 -0.2389
  170MOL    C8144359   7.616   0.048   1.310 -0.2058  0.1426  0.2525
  170MOL    C8244360   7.727   0.110   1.355 -0.3075  0.0133  0.1109
  170MOL    C8344361   7.767   0.245   1.303  0.5871 -0.0992  0.2254
  170MOL    C8444362   7.819   0.072   1.471 -0.3680 -0.6005  0.6971
  170MOL    H8544363   7.605   0.136   1.110  1.6379 -2.1724 -1.2062
  170MOL    H8644364   7.489   7.876   1.141  1.8366  0.0374 -0.4384
  170MOL    H8744365   7.588   7.827   1.339  0.7137 -0.9749 -2.5164
  170MOL    H8844366   7.872   0.250   1.277  0.4854 -0.1419 -0.1939
  170MOL    H8944367   7.773   0.307   1.393  1.0716 -2.0144  1.5495
  170MOL    H9044368   7.715   0.292   1.220  1.1378 -0.3506 -0.2659
  170MOL    H9144369   7.771   7.866   1.520 -1.5624  0.7793  1.9366
  170MOL    H9244370   7.832   0.147   1.548  2.0657  0.1816 -0.4386
  170MOL    C9344371   0.077   0.027   1.427 -0.0216  0.4903 -0.1222
  170MOL    C9444372   0.062   7.766   1.373  0.3236 -0.1845  0.2202
  170MOL    C9544373   0.117   7.654   1.426  0.5387  0.0400 -0.0193
  170MOL    C9644374   0.102   7.518   1.356 -1.3281  0.0741  0.4507
  170MOL    C9744375   0.202   7.645   1.550 -0.5275 -0.5077  0.2555
  170MOL    H9844376   0.145   0.013   1.511 -0.3200  0.6555  0.1443
  170MOL    H9944377   0.125   0.094   1.356 -1.3772 -0.9562 -2.4734
  170MOL   H10044378   0.002   7.752   1.284  0.7447 -1.7253  0.1474
  170MOL   H10144379   0.085   7.432   1.421  1.1148 -0.3044  0.6091
  170MOL   H10244380   0.008   7.530   1.301 -0.1615 -1.2745 -1.8708
  170MOL   H10344381   0.177   7.488   1.284  0.2507  0.4243  1.9114
  170MOL   H10444382   0.190   7.546   1.593 -1.2587  0.5427  2.5226
  170MOL   H10544383   0.181   7.718   1.628 -0.3419 -1.0562  0.8222
  170MOL   C10644384   0.347   7.642   1.509 -0.3990  0.0153  0.3578
  170MOL   C10744385   0.444   7.672   1.634  0.4932  0.1896  0.0363
  170MOL   C10844386   0.563   7.736   1.632 -0.6785 -0.4368 -0.2004
  170MOL   C10944387   0.638   7.772   1.502 -0.1365 -0.6613 -0.5201
  170MOL   C11044388   0.640   7.772   1.758 -0.5918 -0.0405  1.2025
  170MOL   H11144389   0.380   7.712   1.433 -0.6565 -0.9490 -0.6501
  170MOL   H11244390   0.376   7.547   1.465 -2.1210 -1.1728  1.7131
  170MOL   H11344391   0.406   7.630   1.726  0.2024  0.6108  0.1123
  170MOL   H11444392   0.745   7.768   1.520 -0.5102 -4.7444  1.3322
  170MOL   H11544393   0.618   7.712   1.413  1.6060 -0.3690 -1.1250
  170MOL   H11644394   0.597   7.868   1.472  0.3135 -1.2472 -3.0706
  170MOL   H11744395   0.635   0.001   1.741  0.1837  0.1596  2.2444
  170MOL   H11844396   0.737   7.725   1.746 -1.2834 -0.9261 -1.2597
  170MOL   C11944397   0.571   7.739   1.893 -0.2816  0.2759 -0.1562
  170MOL   C12044398   0.553   7.593   1.920 -0.6965  0.9734  0.2672
  170MOL   C12144399   0.536   7.530   2.036  0.4248  0.4593 -0.1656
  170MOL   C12244400   0.518   7.382   2.033 -0.3250 -0.0236  0.0161
  170MOL   C12344401   0.523   7.592   2.178  0.3472 -1.1048  0.6075
  170MOL   H12444402   0.472   7.782   1.898  0.2471  1.2557  2.9641
  170MOL   H12544403   0.635   7.779   1.972  0.6097 -2.7389  0.7321
  170MOL   H12644404   0.545   7.530   1.832  1.3295  2.8301 -1.2858
  170MOL   H12744405   0.416   7.352   2.058  0.0996 -0.3979  1.3143
  170MOL   H12844406   0.579   7.336   2.110  0.5256  1.1528  0.0623
  170MOL   H12944407   0.537   7.335   1.937  0.1217 -0.1552  0.1687
  170MOL   H13044408   0.606   7.660   2.197 -1.0440  0.7589  0.1853
  170MOL   H13144409   0.522   7.519   2.259 -0.8454 -0.0959  1.5149
  170MOL   C13244410   0.405   7.681   2.196  0.7046  0.4927  1.3685
  170MOL   C13344411   0.412   7.754   2.321  0.2308  0.2112  0.1584
  170MOL   C13444412   0.387   0.005   2.343  0.4536 -0.2526  0.0900
  170MOL   C13544413   0.395   0.066   2.479 -0.1138  0.8135 -0.4315
  170MOL   C13644414   0.356   0.104   2.237  0.2725  0.2254  0.0358
  170MOL   H13744415   0.314   7.626   2.220  0.9605  0.0342  1.2738
  170MOL   H13844416   0.373   7.741   2.110 -0.6558 -0.2295  1.3518
  170MOL   H13944417   0.430   7.695   2.410  0.8878 -1.4273 -1.0396
  170MOL   H14044418   0.409   7.872   2.559 -0.2409 -0.2082 -1.3352
  170MOL   H14144419   0.311   0.127   2.515  0.4324  1.2682  0.0812
  170MOL   H14244420   0.492   0.116   2.481  0.1231  0.3263  1.3992
  170MOL   H14344421   0.417   0.087   2.148  1.3021  0.4873  0.6854
  170MOL   H14444422   0.384   0.204   2.270 -1.8232  1.0384 -0.5825
  170MOL   C14544423   0.211   0.098   2.206 -0.5716  0.0861 -0.7167
  170MOL   C14644424   0.188   0.171   2.083  0.3929  0.1099  0.7864
  170MOL   C14744425   0.111   0.134   1.980 -0.3390  0.4723  0.1693
  170MOL   C14844426   0.122   0.202   1.846 -0.5154  0.0134 -0.2283
  170MOL   C14944427   0.001   0.024   1.989  0.2818 -0.5223 -0.5426
  170MOL   H15044428   0.157   0.143   2.290 -1.7467 -0.8113 -0.9798
  170MOL   H15144429   0.174   7.875   2.202 -0.2804 -0.0676  0.2417
  170MOL   H15244430   0.246   0.258   2.058 -0.5270 -0.3049 -3.1672
  170MOL   H15344431   0.099   0.308   1.850 -1.1750 -0.2046  2.5879
  170MOL   H15444432   0.051   0.167   1.772 -1.7344  0.1696  0.8527
  170MOL   H15544433   0.220   0.190   1.800  0.5680  1.7341  1.5650
  170MOL   H15644434   7.784   0.074   1.994  0.7213  0.2513  0.4554
  170MOL   H15744435   0.009   7.843   2.080 -2.4129  1.2906  0.9567
  170MOL   C15844436   0.013   7.787   1.888 -0.0581  0.1327 -0.2289
  170MOL   C15944437   7.817   7.656   1.936 -0.8761  0.0086  0.0293
  170MOL   C16044438   7.764   7.570   1.846 -0.9582 -0.2513  0.1240
  170MOL   C16144439   7.755   7.596   1.696 -0.4163  0.7549  0.6442
  170MOL   C16244440   7.714   7.433   1.887 -0.6844  0.6756  0.0307
  170MOL   H16344441   0.118   7.760   1.888 -0.5481 -1.9525 -2.1767
  170MOL   H16444442   7.864   7.816   1.786  1.3986 -1.9545 -1.2423
  170MOL   H16544443   7.820   7.633   2.041  0.3747  1.7738  0.3866
  170MOL   H16644444   7.655   7.610   1.658 -0.1958 -0.9215 -0.5980
  170MOL   H16744445   7.787   7.498   1.662  0.8947  0.9016  1.3687
  170MOL   H16844446   7.815   7.674   1.649  1.6404 -0.4435  1.1723
  170MOL   H16944447   7.780   7.365   1.834  0.2164 -0.7389  2.8250
  170MOL   H17044448   7.612   7.416   1.851 -1.4704  3.0941  1.0253
  170MOL   C17144449   7.712   7.397   2.032 -0.3488 -0.1219  0.4543
  170MOL   C17244450   7.602   7.467   2.109  0.0606  0.1523  0.0144
  170MOL   C17344451   7.522   7.417   2.211 -0.4148 -0.1770  0.3919
  170MOL   C17444452   7.537   7.278   2.266  0.8030 -0.4921  0.1494
  170MOL   C17544453   7.414   7.498   2.277 -0.2774  0.5295 -0.0357
  170MOL   H17644454   7.816   7.395   2.065 -0.7005 -1.7377  1.5527
  170MOL   H17744455   7.692   7.289   2.028 -0.5612 -0.0347 -1.5323
  170MOL   H17844456   7.590   7.572   2.085 -3.5760  0.0983  1.3077
  170MOL   H17944457   7.549   7.280   2.375 -0.4914 -1.1430  0.3146
  170MOL   H18044458   7.620   7.226   2.219  0.9594  1.1799 -1.4854
  170MOL   H18144459   7.450   7.215   2.250 -0.0889  1.2322 -2.0662
  170MOL   H18244460   7.443   7.604   2.278 -0.6251  0.6225  0.4680
  170MOL   H18344461   7.410   7.476   2.384  1.4721  1.1733  0.1846
  170MOL   C18444462   7.284   7.467   2.211  0.1226  0.0983  0.1731
  170MOL   C18544463   7.177   7.547   2.282 -0.1812  0.6195 -0.6011
  170MOL   C18644464   7.074   7.614   2.231 -0.6752 -0.8042  0.3857
  170MOL   C18744465   6.982   7.688   2.319  0.8595  0.4098 -0.2200
  170MOL   C18844466   7.053   7.633   2.080 -0.4166 -0.3951  0.3879
  170MOL   H18944467   7.251   7.363   2.223  1.4665 -0.2919  0.6131
  170MOL   H19044468   7.276   7.485   2.104  1.9732 -0.3676 -0.0746
  170MOL   H19144469   7.189   7.540   2.389  0.6858 -5.3273 -0.9272
  170MOL   H19244470   6.996   7.666   2.425  0.1161  1.0647  0.0214
  170MOL   H19344471   6.881   7.679   2.278  0.8682 -0.2708 -0.1020
  170MOL   H19444472   7.000   7.795   2.317 -1.5749  0.9061  1.7748
  170MOL   H19544473   7.141   7.669   2.026 -0.8710  0.3061  0.0949
  170MOL   H19644474   6.976   7.708   2.059  0.1232  1.2874  3.9701
  170MOL   C19744475   7.000   7.509   2.017  0.1292  0.0917 -0.3565
  170MOL   C19844476   7.020   7.516   1.868 -0.4900 -0.0084  0.7924
  170MOL   C19944477   7.100   7.444   1.790  0.2085  0.0761 -0.1403
  170MOL   C20044478   7.111   7.487   1.646  0.3490  0.7299  0.2127
  170MOL   C20144479   7.183   7.327   1.836 -0.8129  0.0439 -0.7252
  170MOL   H20244480   6.894   7.486   2.026  0.4447 -1.0254  0.7341
  170MOL   H20344481   7.053   7.424   2.060 -1.2890  0.0160  1.3109
  170MOL   H20444482   6.978   7.603   1.819  0.4898  0.3041  0.5081
  170MOL   H20544483   7.186   7.564   1.625  0.3109  0.2827 -1.6273
  170MOL   H20644484   7.021   7.542   1.617 -0.6394 -0.7570  0.4428
  170MOL   H20744485   7.114   7.399   1.582  0.2451  0.3645  0.7114
  170MOL   H20844486   7.139   7.232   1.807 -1.8694 -0.5604  2.6357
  170MOL   H20944487   7.183   7.315   1.944 -3.5091 -1.6523 -0.8664
  170MOL   C21044488   7.327   7.325   1.785 -0.3722 -0.1428 -0.2200
  170MOL   C21144489   7.413   7.215   1.843  0.5496  0.3431  0.0870
  170MOL   C21244490   7.486   7.122   1.775 -0.3867 -0.2859  1.1935
  170MOL   C21344491   7.571   7.019   1.850  0.7396 -0.7260  0.8399
  170MOL   C21444492   7.483   7.107   1.621  0.6539  0.0540  0.0217
  170MOL   H21544493   7.390   7.412   1.803  1.0692 -1.0997 -0.5731
  170MOL   H21644494   7.321   7.333   1.677 -4.4302  0.9489 -0.0106
  170MOL   H21744495   7.415   7.200   1.950 -0.6893 -1.0318 -0.0717
  170MOL   H21844496   7.559   7.019   1.958 -0.8988 -1.2968  0.6742
  170MOL   H21944497   7.678   7.037   1.837  0.6318 -0.5783  0.1116
  170MOL   H22044498   7.554   6.917   1.814 -0.6236  0.1110 -0.9326
  170MOL   H22144499   7.383   7.110   1.579  0.7918  0.4917 -0.2881
  170MOL   H22244500   7.530   7.010   1.605  2.5696  1.0199 -0.4881
  170MOL   C22344501   7.562   7.212   1.536 -0.0260  0.1431 -0.7027
  170MOL   C22444502   7.531   7.192   1.387  0.6481  0.1462 -0.3075
  170MOL   C22544503   7.612   7.202   1.277 -0.1631  0.5223  0.5195
  170MOL   C22644504   7.557   7.208   1.137  0.1944  0.3881  1.2353
  170MOL   C22744505   7.760   7.214   1.287 -0.5817 -0.3278 -0.1845
  170MOL   H22844506   7.669   7.206   1.553 -0.4471  0.9152  2.6874
  170MOL   H22944507   7.527   7.309   1.573 -3.7798 -1.3384 -0.1184
  170MOL   H23044508   7.425   7.181   1.370  0.2072 -0.5671  2.6273
  170MOL   H23144509   7.589   7.119   1.083 -2.6072  0.9250 -1.4427
  170MOL   H23244510   7.580   7.296   1.078  1.4443  0.5417  1.9269
  170MOL   H23344511   7.448   7.199   1.144  0.2304 -0.7938  0.4188
  170MOL   H23444512   7.796   7.238   1.387  1.1372  2.2712 -1.3598
  170MOL   H23544513   7.790   7.299   1.225 -0.9297 -0.5375 -0.6399
  170MOL   C23644514   7.840   7.097   1.230 -0.6640  0.2601 -0.6713
  170MOL   C23744515   0.115   7.103   1.257 -0.1606  0.2130  0.1586
  170MOL   C23844516   0.209   7.163   1.180 -0.1575  0.8968 -0.9455
  170MOL   C23944517   0.352   7.163   1.219  0.5059  0.2392 -0.7815
  170MOL   C24044518   0.183   7.232   1.050 -0.3103 -0.3837 -0.1887
  170MOL   H24144519   7.817   7.080   1.125  0.0459  3.1100 -1.3298
  170MOL   H24244520   7.799   7.011   1.283  2.2743 -1.4932 -1.1387
  170MOL   H24344521   0.146   7.057   1.350  0.5501  1.0932  0.3618
  170MOL   H24444522   0.359   7.124   1.321  0.8601  1.5929 -0.2776
  170MOL   H24544523   0.390   7.264   1.231  1.2332  0.0648 -1.5067
  170MOL   H24644524   0.409   7.103   1.147 -1.1774 -1.0459 -1.0675
  170MOL   H24744525   0.235   7.327   1.038  0.5622 -0.8465 -0.0928
  170MOL   H24844526   0.080   7.269   1.047 -0.5404 -0.9420  0.7565
  170MOL   C24944527   0.208   7.129   0.938 -0.2011 -0.1221  0.3161
  170MOL   C25044528   0.172   7.202   0.812 -0.1936 -0.3782  0.1527
  170MOL   C25144529   0.237   7.196   0.693  0.0059  1.1257  0.1570
  170MOL   C25244530   0.188   7.277   0.574  0.0272 -0.4551  0.9257
  170MOL   C25344531   0.365   7.122   0.674  0.0206  1.0134 -0.0798
  170MOL   H25444532   0.130   7.052   0.946 -1.1396  0.7133 -0.5616
  170MOL   H25544533   0.307   7.085   0.947  0.1210  0.6746  0.6214
  170MOL   H25644534   0.074   7.248   0.818  0.5502  1.0211  1.9722
  170MOL   H25744535   0.096   7.328   0.601 -1.9120 -2.6925 -1.2211
  170MOL   H25844536   0.154   7.223   0.486  1.4764 -1.4938  0.9693
  170MOL   H25944537   0.270   7.344   0.547 -0.9402  0.2203 -0.3630
  170MOL   H26044538   0.447   7.192   0.662  1.2644 -0.5676 -1.1096
  170MOL   H26144539   0.352   7.056   0.588  0.6020 -0.1976  0.7453
  170MOL   H26244540   0.402   7.062   0.757 -0.4163  2.4254  1.1405
  171MOL     C144541   6.569   0.515   1.624  0.5959  0.2676  0.3499
  171MOL     C244542   6.434   0.539   1.553 -1.3347  0.1576 -0.1503
  171MOL     C344543   6.398   0.643   1.468  0.0014 -0.6402 -0.3939
  171MOL     C444544   6.257   0.654   1.416 -0.4680  0.5805  0.5522
  171MOL     C544545   6.496   0.751   1.437  0.5054 -0.2335 -0.2345
  171MOL     H644546   6.540   0.449   1.706 -2.1146 -0.3223 -1.0258
  171MOL     H744547   6.644   0.467   1.562 -0.6311  0.0601 -0.9816
  171MOL     H844548   6.371   0.456   1.582  3.6077 -3.3232  1.3119
  171MOL     H944549   6.254   0.653   1.307  1.9521  1.7973  0.4426
  171MOL    H1044550   6.214   0.745   1.459 -0.8111  1.5386 -1.7504
  171MOL    H1144551   6.193   0.579   1.462 -0.3948 -0.2547 -0.6841
  171MOL    H1244552   6.576   0.754   1.511 -1.6199  0.2210  2.1210
  171MOL    H1344553   6.457   0.851   1.458 -1.2605 -0.8292 -0.5644
  171MOL    H1444554   6.608   0.603   1.676  3.0638  0.6110 -1.9769
  171MOL    C1544555   6.555   0.747   1.294 -0.3645  0.0648 -0.3058
  171MOL    C1644556   6.612   0.884   1.256  0.2022  0.4238  0.2496
  171MOL    C1744557   6.732   0.909   1.198 -0.4201  0.0871 -0.0482
  171MOL    C1844558   6.785   1.047   1.172 -0.4018 -0.1905  0.7384
  171MOL    C1944559   6.821   0.793   1.140 -0.3295  0.0715  0.2814
  171MOL    H2044560   6.484   0.713   1.219 -1.9038  0.0654  1.1233
  171MOL    H2144561   6.628   0.667   1.308 -1.9384 -1.2944  0.1616
  171MOL    H2244562   6.554   0.970   1.288 -2.0327  0.3223 -3.2429
  171MOL    H2344563   6.746   1.124   1.238  3.2555  0.3660  2.3810
  171MOL    H2444564   6.779   1.059   1.064  0.1805 -0.5221  0.6686
  171MOL    H2544565   6.892   1.062   1.185 -0.5528 -0.2751  2.1970
  171MOL    H2644566   6.775   0.696   1.124 -2.3953  1.2649 -1.2941
  171MOL    H2744567   6.898   0.781   1.216  1.4277  1.9008 -1.1315
  171MOL    C2844568   6.876   0.813   0.999  0.0814  0.1726  0.9020
  171MOL    C2944569   6.969   0.701   0.952  0.1365  0.6876 -0.2362
  171MOL    C3044570   7.004   0.669   0.828  0.1706  0.7354 -0.2932
  171MOL    C3144571   7.084   0.545   0.812 -0.4112 -0.0709  0.4974
  171MOL    C3244572   6.959   0.741   0.706  0.2732  0.2470 -0.1101
  171MOL    H3344573   6.932   0.907   1.005  0.9218 -0.2414 -0.3248
  171MOL    H3444574   6.803   0.837   0.922 -0.7464  0.8044  1.8644
  171MOL    H3544575   7.011   0.645   1.034  0.1141  1.5554  0.3615
  171MOL    H3644576   7.136   0.496   0.894 -0.3753 -1.0548 -0.1064
  171MOL    H3744577   7.155   0.569   0.733 -0.6702 -1.8534 -0.2945
  171MOL    H3844578   7.025   0.467   0.764  0.7592  0.8184 -2.4941
  171MOL    H3944579   6.858   0.778   0.723 -0.3756 -2.9634  3.4912
  171MOL    H4044580   6.966   0.677   0.618  3.1500  0.8498 -0.3884
  171MOL    C4144581   7.063   0.857   0.682  0.3092  0.2504 -0.1811
  171MOL    C4244582   7.027   0.935   0.555  0.4073 -0.0073  0.1144
  171MOL    C4344583   7.107   0.958   0.449 -0.5778 -0.1880  0.2075
  171MOL    C4444584   7.047   1.030   0.333  0.3366 -0.0832  1.5661
  171MOL    C4544585   7.252   0.908   0.439 -0.4130  0.1137  0.3705
  171MOL    H4644586   7.163   0.814   0.679  0.3510  0.3747 -0.6902
  171MOL    H4744587   7.068   0.932   0.761  1.1083 -0.1451  0.1527
  171MOL    H4844588   6.929   0.981   0.561  1.1105  1.5983 -0.2016
  171MOL    H4944589   7.110   1.119   0.337  1.0258 -0.5265  0.7680
  171MOL    H5044590   6.942   1.048   0.357  0.0897  0.2260  0.3038
  171MOL    H5144591   7.059   0.975   0.240  1.2474  3.3149 -0.4184
  171MOL    H5244592   7.295   0.874   0.534 -1.6846 -3.0565 -0.1146
  171MOL    H5344593   7.319   0.992   0.423  1.1380 -1.6678 -2.8464
  171MOL    C5444594   7.258   0.797   0.334  0.3771 -0.2854 -0.2956
  171MOL    C5544595   7.398   0.736   0.326 -0.0894  0.1740  0.4351
  171MOL    C5644596   7.445   0.620   0.378  0.1357  0.3201 -0.6551
  171MOL    C5744597   7.588   0.579   0.366  0.2288  0.0841  0.2518
  171MOL    C5844598   7.362   0.519   0.458  0.2220 -0.1311 -0.1594
  171MOL    H5944599   7.252   0.826   0.229  2.4458  0.0529 -0.3339
  171MOL    H6044600   7.181   0.723   0.356  0.0134 -0.9261 -3.4180
  171MOL    H6144601   7.473   0.791   0.272 -0.5714  0.0009 -0.4246
  171MOL    H6244602   7.624   0.559   0.467  1.7196  0.2181 -0.2378
  171MOL    H6344603   7.651   0.665   0.343 -0.3480  0.0423 -1.5819
  171MOL    H6444604   7.594   0.490   0.303  0.5490 -0.0183  0.4235
  171MOL    H6544605   7.278   0.566   0.509 -0.7373 -0.7628 -1.1693
  171MOL    H6644606   7.424   0.490   0.544  3.0499  2.3681 -1.2625
  171MOL    C6744607   7.327   0.394   0.381 -0.0122 -0.0443 -0.5398
  171MOL    C6844608   7.270   0.285   0.471  0.1004 -0.4483  0.4682
  171MOL    C6944609   7.185   0.192   0.437  0.3040 -0.2916  0.7557
  171MOL    C7044610   7.154   0.086   0.542 -0.5281  0.1484 -0.5138
  171MOL    C7144611   7.125   0.166   0.299  1.5244  0.5921  0.1372
  171MOL    H7244612   7.417   0.350   0.338  0.4255 -1.6135  1.8668
  171MOL    H7344613   7.264   0.428   0.299  0.7101 -0.2928 -1.2055
  171MOL    H7444614   7.306   0.286   0.573  0.5872  2.1671  0.3189
  171MOL    H7544615   7.214   0.081   0.633  0.2061 -0.7991 -1.0257
  171MOL    H7644616   7.163   7.864   0.500 -0.2712 -0.2651  0.5038
  171MOL    H7744617   7.050   0.096   0.571 -0.4557 -0.4692 -0.0282
  171MOL    H7844618   7.135   0.059   0.278  2.0672  0.5770  0.4712
  171MOL    H7944619   7.172   0.215   0.215  0.4513 -0.4480 -1.0998
  171MOL    C8044620   6.971   0.202   0.295 -0.1149  0.5969  0.4489
  171MOL    C8144621   6.938   0.350   0.315  1.0602 -0.1118 -0.4568
  171MOL    C8244622   6.843   0.432   0.261  0.0609 -0.1791  0.1658
  171MOL    C8344623   6.731   0.389   0.160 -0.1238 -0.2679 -0.2939
  171MOL    C8444624   6.847   0.575   0.305 -0.1826 -0.1650 -0.5406
  171MOL    H8544625   6.910   0.151   0.368  2.8690  0.7790  3.2091
  171MOL    H8644626   6.923   0.178   0.201 -1.6748 -0.7329  1.5787
  171MOL    H8744627   6.994   0.399   0.393 -0.3152 -1.9879  1.7907
  171MOL    H8844628   6.741   0.453   0.072  0.0435  0.2066  0.0694
  171MOL    H8944629   6.633   0.405   0.202 -0.1120 -0.4030 -0.2142
  171MOL    H9044630   6.744   0.285   0.131  1.3837 -0.0691 -0.4171
  171MOL    H9144631   6.858   0.635   0.215 -0.1190 -1.6628 -1.5601
  171MOL    H9244632   6.937   0.595   0.363 -0.6660 -2.1787  0.9634
  171MOL    C9344633   6.714   0.613   0.372 -0.2740  0.6165  0.1929
  171MOL    C9444634   6.706   0.769   0.394  0.4514  0.0582 -0.4109
  171MOL    C9544635   6.613   0.853   0.352 -0.4685  0.3517 -0.6649
  171MOL    C9644636   6.625   0.998   0.391 -0.7976 -0.3194  0.1707
  171MOL    C9744637   6.485   0.812   0.281  0.2299 -0.2644 -0.1371
  171MOL    H9844638   6.718   0.569   0.471  0.8522  0.6417  0.1646
  171MOL    H9944639   6.627   0.577   0.316 -0.9720  2.0751  0.3184
  171MOL   H10044640   6.789   0.801   0.457 -1.2358 -1.8685  2.9540
  171MOL   H10144641   6.529   1.036   0.423 -0.5803  0.3173  0.0633
  171MOL   H10244642   6.697   1.023   0.468  1.2051 -1.7235 -1.1593
  171MOL   H10344643   6.654   1.054   0.301 -1.7527  1.1835  0.7919
  171MOL   H10444644   6.507   0.712   0.244  1.1205 -0.4307  0.8210
  171MOL   H10544645   6.458   0.868   0.192 -0.1958  0.8425  0.6728
  171MOL   C10644646   6.371   0.798   0.379 -0.0752  0.1317  0.6035
  171MOL   C10744647   6.284   0.926   0.383 -0.1207 -0.3207  0.0375
  171MOL   C10844648   6.165   0.939   0.323  0.5157  0.1969 -0.2176
  171MOL   C10944649   6.106   0.838   0.229  0.2346  0.0382  0.1266
  171MOL   C11044650   6.082   1.060   0.355 -0.2690  0.1321 -0.1391
  171MOL   H11144651   6.418   0.774   0.474 -2.2152  0.1888  1.7020
  171MOL   H11244652   6.311   0.709   0.359  0.5153 -0.3134  0.7847
  171MOL   H11344653   6.316   1.005   0.448 -1.2565 -0.6742  1.0479
  171MOL   H11444654   6.030   0.780   0.280  0.2998  0.3149  0.5395
  171MOL   H11544655   6.042   0.896   0.163  2.0141  1.3197 -0.5258
  171MOL   H11644656   6.179   0.776   0.175 -0.0582 -0.7297  0.6034
  171MOL   H11744657   6.064   1.122   0.267  0.2073 -1.6290 -1.5323
  171MOL   H11844658   6.144   1.124   0.417  2.8299 -2.0550 -0.8353
  171MOL   C11944659   5.945   1.018   0.417  0.1784 -0.8767 -0.4445
  171MOL   C12044660   5.867   1.139   0.477  0.6380  0.7018 -0.2055
  171MOL   C12144661   5.841   1.159   0.608  0.0362 -0.3049 -0.4673
  171MOL   C12244662   5.756   1.280   0.646 -0.2110 -0.1015  0.5661
  171MOL   C12344663   5.883   1.067   0.722 -0.5635  0.0486  0.0093
  171MOL   H12444664   5.961   0.939   0.490 -1.0971 -1.8799 -1.2339
  171MOL   H12544665   5.882   0.977   0.339  0.9597  3.0006 -3.2631
  171MOL   H12644666   5.831   1.202   0.397 -0.9787  1.3397  1.0144
  171MOL   H12744667   5.731   1.356   0.572 -1.2425 -2.0941 -1.1800
  171MOL   H12844668   5.815   1.345   0.712 -0.3333  0.7470 -0.1512
  171MOL   H12944669   5.661   1.249   0.689 -0.8655 -0.5182 -1.1679
  171MOL   H13044670   5.875   0.968   0.679  0.1660 -0.3627  0.8158
  171MOL   H13144671   5.822   1.059   0.813  0.9151 -0.5380  0.9657
  171MOL   C13244672   6.018   1.098   0.792 -0.0950 -0.0164 -0.7749
  171MOL   C13344673   6.042   0.985   0.891 -0.9940  0.0471 -0.4913
  171MOL   C13444674   6.102   0.986   1.012 -0.2778 -0.0760  0.2490
  171MOL   C13544675   6.115   0.856   1.086  0.1117  0.0938  0.1025
  171MOL   C13644676   6.146   1.101   1.093 -0.0781 -0.9965 -0.1246
  171MOL   H13744677   6.003   1.198   0.833 -0.8644 -0.5195  0.1872
  171MOL   H13844678   6.089   1.105   0.710  2.6144 -0.8941  1.4299
  171MOL   H13944679   6.009   0.887   0.860 -2.9057  0.5530 -0.1008
  171MOL   H14044680   6.209   0.807   1.060  0.5967  2.1226 -2.0998
  171MOL   H14144681   6.023   0.802   1.067  0.8980 -1.1910 -0.1677
  171MOL   H14244682   6.121   0.889   1.190  0.0279 -1.6707  0.6822
  171MOL   H14344683   6.097   1.105   1.190 -2.7207 -0.3212 -1.4372
  171MOL   H14444684   6.098   1.189   1.052 -0.7667 -2.2968 -2.1880
  171MOL   C14544685   6.299   1.129   1.098  0.0889 -0.0420 -0.6664
  171MOL   C14644686   6.337   1.239   1.196  0.3707  0.3241  0.1298
  171MOL   C14744687   6.385   1.360   1.171  0.2034  0.1202  1.1175
  171MOL   C14844688   6.417   1.460   1.284 -0.1367  0.4140 -0.0623
  171MOL   C14944689   6.411   1.408   1.031  0.4170  0.0282  0.0806
  171MOL   H15044690   6.336   1.122   0.995  1.6079  0.1193 -0.1485
  171MOL   H15144691   6.342   1.040   1.145 -2.4082 -0.4844  0.8095
  171MOL   H15244692   6.306   1.229   1.299 -1.2485  2.0748 -0.1502
  171MOL   H15344693   6.415   1.424   1.387 -1.8451 -0.4134 -0.3571
  171MOL   H15444694   6.335   1.532   1.295 -0.5158 -0.5256  4.3738
  171MOL   H15544695   6.500   1.528   1.265 -0.7276  0.6843 -1.7771
  171MOL   H15644696   6.364   1.505   1.016  1.3817  0.3142 -1.2012
  171MOL   H15744697   6.356   1.348   0.959  0.6252  0.6766 -0.6262
  171MOL   C15844698   6.555   1.414   0.981 -0.7022  0.0026 -0.1047
  171MOL   C15944699   6.642   1.533   1.023  0.0035  0.2788  0.2750
  171MOL   C16044700   6.753   1.523   1.106  0.9094 -0.1597 -0.7253
  171MOL   C16144701   6.777   1.393   1.185 -0.2391  0.2673 -0.2703
  171MOL   C16244702   6.835   1.641   1.154  0.4453  0.5348 -0.2951
  171MOL   H16344703   6.554   1.420   0.872  0.9020  0.4503 -0.1198
  171MOL   H16444704   6.607   1.321   1.003  1.2411  1.3622  1.2377
  171MOL   H16544705   6.611   1.632   0.994  1.7201  0.8606  0.3588
  171MOL   H16644706   6.853   1.406   1.262  0.3210 -0.3773 -0.6953
  171MOL   H16744707   6.817   1.315   1.120 -0.5584 -0.3845  0.3127
  171MOL   H16844708   6.690   1.355   1.238 -0.9038  3.1696  0.7911
  171MOL   H16944709   6.827   1.643   1.262  1.6499  1.4590 -0.2086
  171MOL   H17044710   6.797   1.739   1.121 -1.0756 -0.0344 -0.3077
  171MOL   C17144711   6.975   1.613   1.111 -0.2919  0.3971 -0.1343
  171MOL   C17244712   7.078   1.721   1.139 -0.1276 -0.7127  0.6718
  171MOL   C17344713   7.182   1.761   1.060  1.1634 -0.0202  0.2839
  171MOL   C17444714   7.214   1.693   0.925 -0.7853  0.2871  0.5416
  171MOL   C17544715   7.275   1.858   1.115  0.7396  0.3175 -0.1369
  171MOL   H17644716   6.987   1.576   1.009 -1.4501 -0.4643  0.0349
  171MOL   H17744717   7.016   1.536   1.177  0.3183  0.6521 -0.2114
  171MOL   H17844718   7.057   1.775   1.230 -0.4093  1.1511 -0.4752
  171MOL   H17944719   7.126   1.638   0.891 -1.3456  1.4769  0.0330
  171MOL   H18044720   7.292   1.619   0.945 -0.2595  0.7023  0.0129
  171MOL   H18144721   7.237   1.772   0.855 -1.6716  0.1278  0.0680
  171MOL   H18244722   7.240   1.913   1.201  0.9449  1.7267 -0.9461
  171MOL   H18344723   7.294   1.924   1.030 -2.1276  0.4871 -0.7113
  171MOL   C18444724   7.390   1.779   1.165 -0.7586  0.3260 -0.6088
  171MOL   C18544725   7.507   1.870   1.198  0.6943 -0.3797  0.6220
  171MOL   C18644726   7.634   1.844   1.221  0.0597 -0.0510  0.3910
  171MOL   C18744727   7.729   1.958   1.255 -0.2389  0.2351 -0.5998
  171MOL   C18844728   7.686   1.698   1.218 -0.4950 -0.0489  0.8767
  171MOL   H18944729   7.429   1.700   1.101 -0.9065  2.0652 -2.9259
  171MOL   H19044730   7.364   1.719   1.252  2.6304 -0.3155  0.0141
  171MOL   H19144731   7.477   1.973   1.211  3.8827  0.8541 -1.2318
  171MOL   H19244732   7.795   1.983   1.173 -1.0972  2.6438 -0.5810
  171MOL   H19344733   7.793   1.927   1.338  0.2308 -1.8940 -1.7212
  171MOL   H19444734   7.670   2.046   1.279 -0.6807 -0.4050  0.7458
  171MOL   H19544735   7.783   1.690   1.168 -0.2195  0.7064  1.2945
  171MOL   H19644736   7.626   1.638   1.150  2.0018 -1.4135 -0.2195
  171MOL   C19744737   7.690   1.626   1.350  0.5234  0.1951 -0.1372
  171MOL   C19844738   7.771   1.492   1.335 -0.7782 -0.4895 -0.2178
  171MOL   C19944739   7.874   1.444   1.412 -0.4878 -0.6847  0.8814
  171MOL   C20044740   0.066   1.311   1.402 -0.1588 -0.5500 -0.3185
  171MOL   C20144741   0.051   1.538   1.521 -0.6265  0.4389 -0.1212
  171MOL   H20244742   7.593   1.624   1.400  0.0535  1.1507 -0.9952
  171MOL   H20344743   7.747   1.687   1.420 -1.3275  2.5836 -0.6240
  171MOL   H20444744   7.739   1.434   1.250 -1.3186 -1.5712  0.7150
  171MOL   H20544745   7.873   1.238   1.364 -0.9099  0.4233 -0.7756
  171MOL   H20644746   0.095   1.276   1.501  1.3940  3.3972  0.6868
  171MOL   H20744747   0.154   1.311   1.338 -0.9913  0.0165 -1.4876
  171MOL   H20844748   0.064   1.635   1.472 -0.1288 -0.0192 -0.9170
  171MOL   H20944749   0.152   1.505   1.546 -0.3564  1.7685  0.5884
  171MOL   C21044750   7.851   1.544   1.651  0.5709  0.5702 -0.0819
  171MOL   C21144751   0.052   1.621   1.752  0.3203  0.9504 -0.0762
  171MOL   C21244752   0.136   1.571   1.844 -0.4414 -0.6182 -0.0457
  171MOL   C21344753   0.188   1.669   1.952  0.5852  0.4740 -0.5209
  171MOL   C21444754   0.164   1.423   1.856  0.8304  0.4179  0.4563
  171MOL   H21544755   7.830   1.444   1.690 -3.0481  0.9977 -0.7265
  171MOL   H21644756   7.751   1.581   1.629 -0.6320 -1.9846  0.9027
  171MOL   H21744757   0.024   1.725   1.763  0.2651  0.9503 -0.2224
  171MOL   H21844758   0.259   1.621   2.020 -0.8841  1.3101  1.6560
  171MOL   H21944759   0.099   1.700   2.006  0.1616 -1.9671  0.2714
  171MOL   H22044760   0.224   1.765   1.916  0.6183  0.0781 -1.5503
  171MOL   H22144761   0.269   1.421   1.885  1.1262  0.5920 -0.5775
  171MOL   H22244762   0.156   1.374   1.759 -4.3382  0.6650  0.5894
  171MOL   C22344763   0.092   1.357   1.974 -0.2275 -0.2538 -0.0525
  171MOL   C22444764   0.143   1.227   2.023  0.8777  0.2203  0.2806
  171MOL   C22544765   0.188   1.189   2.144  0.5075  0.3953 -0.0184
  171MOL   C22644766   0.231   1.047   2.161 -0.1233  0.2418 -0.4948
  171MOL   C22744767   0.197   1.277   2.276  0.2700 -0.1577  0.3420
  171MOL   H22844768   7.869   1.334   1.941  0.1897 -0.6855 -1.0641
  171MOL   H22944769   0.073   1.421   2.061 -1.6299 -1.6102  0.6817
  171MOL   H23044770   0.137   1.152   1.946 -0.1136  0.4728  0.1077
  171MOL   H23144771   0.278   1.034   2.258 -1.9661 -0.8904  0.2589
  171MOL   H23244772   0.299   1.006   2.086  0.7588  1.3906 -0.3462
  171MOL   H23344773   0.158   0.967   2.159  0.0526  0.0671  0.2839
  171MOL   H23444774   0.190   1.383   2.248 -1.3633 -0.9011 -2.2838
  171MOL   H23544775   0.298   1.268   2.316  1.2547  0.0499 -1.9905
  171MOL   C23644776   0.096   1.234   2.382  0.0063 -0.2914 -0.0245
  171MOL   C23744777   0.114   1.330   2.505 -0.1632  0.3646  0.0050
  171MOL   C23844778   0.178   1.291   2.615 -0.0594  0.1709  0.0229
  171MOL   C23944779   0.208   1.391   2.723  0.0415 -1.1228 -0.1548
  171MOL   C24044780   0.238   1.149   2.646 -0.1591  0.1167 -0.2078
  171MOL   H24144781   0.105   1.126   2.398 -0.0031 -0.5134 -1.4986
  171MOL   H24244782   7.872   1.246   2.349  0.7170  1.6975 -1.6085
  171MOL   H24344783   0.098   1.435   2.489  0.5385  0.7819  1.9194
  171MOL   H24444784   0.304   1.437   2.704 -0.2412 -0.7092 -0.5788
  171MOL   H24544785   0.213   1.350   2.824  0.8404 -2.0843 -0.5742
  171MOL   H24644786   0.126   1.463   2.726 -0.0592 -1.0381 -3.1152
  171MOL   H24744787   0.180   1.069   2.601  2.0518 -1.8406  0.3460
  171MOL   H24844788   0.237   1.135   2.754  1.1793  1.2486 -0.0340
  171MOL   C24944789   0.386   1.134   2.619 -0.2341 -0.4201  0.5216
  171MOL   C25044790   0.433   0.994   2.660  0.4045  0.1814 -0.0068
  171MOL   C25144791   0.528   0.955   2.743 -0.2514 -0.3522  0.1296
  171MOL   C25244792   0.552   0.809   2.765  0.0576 -0.0513 -0.1508
  171MOL   C25344793   0.615   1.053   2.824  0.4202 -0.6086  0.6844
  171MOL   H25444794   0.430   1.195   2.697  1.1593  0.2231 -0.7279
  171MOL   H25544795   0.410   1.162   2.516 -3.5591 -2.9355 -1.0915
  171MOL   H25644796   0.379   0.912   2.615 -1.5361  0.5833  1.5020
  171MOL   H25744797   0.654   0.785   2.738  0.2088 -1.6334  1.6738
  171MOL   H25844798   0.486   0.748   2.704  0.4769 -0.2482 -0.4076
  171MOL   H25944799   0.552   0.784   2.872  1.3892  1.1207  0.1321
  171MOL   H26044800   0.562   1.092   2.911 -0.1694  0.8335 -0.2963
  171MOL   H26144801   0.632   1.141   2.761  0.3634 -1.9362 -1.2471
  171MOL   H26244802   0.715   1.026   2.856  1.1619 -0.7257 -1.5911
  172MOL     C144803   3.260   6.465   6.646  0.3694 -0.7615  0.1478
  172MOL     C244804   3.146   6.434   6.730  0.5937 -0.0378  0.1684
  172MOL     C344805   3.130   6.447   6.861  0.4878  0.4117 -0.1918
  172MOL     C444806   2.999   6.423   6.935 -0.4014  0.2703 -0.0624
  172MOL     C544807   3.243   6.481   6.961  0.4747  0.1185 -0.0495
  172MOL     H644808   3.345   6.421   6.697 -0.1135 -1.7881  0.0650
  172MOL     H744809   3.249   6.420   6.547  1.9936  1.0506 -0.8855
  172MOL     H844810   3.056   6.412   6.673  1.5024 -0.4425 -1.1299
  172MOL     H944811   2.913   6.399   6.872 -1.0320  0.8155  0.5721
  172MOL    H1044812   2.965   6.508   6.994  1.5954  2.1598 -1.5585
  172MOL    H1144813   2.990   6.335   6.998 -2.4678 -0.9199 -1.9169
  172MOL    H1244814   3.210   6.569   7.017  1.6497  1.4057 -1.3566
  172MOL    H1344815   3.327   6.494   6.893 -0.7033 -4.3963 -2.5119
  172MOL    H1444816   3.283   6.571   6.637  1.0136 -0.8965  0.2060
  172MOL    C1544817   3.265   6.373   7.075 -0.3554  0.0480  0.6018
  172MOL    C1644818   3.395   6.390   7.147 -0.0179 -0.1564  1.1613
  172MOL    C1744819   3.503   6.315   7.151 -0.4859 -0.3097  0.0327
  172MOL    C1844820   3.605   6.341   7.262  0.1040 -0.7263  0.0102
  172MOL    C1944821   3.517   6.181   7.076 -0.2382 -0.6449  0.3149
  172MOL    H2044822   3.262   6.277   7.023  0.7029 -0.4599  1.4894
  172MOL    H2144823   3.176   6.353   7.134 -0.4414  0.8424  0.7374
  172MOL    H2244824   3.383   6.478   7.208  1.3744  0.8984 -0.0494
  172MOL    H2344825   3.591   6.261   7.336 -1.9952  0.4230  0.8746
  172MOL    H2444826   3.583   6.436   7.311  1.0561 -0.2473 -0.4717
  172MOL    H2544827   3.703   6.316   7.220  0.9487 -0.1966  1.6250
  172MOL    H2644828   3.414   6.147   7.062 -0.3617  0.7781 -2.5472
  172MOL    H2744829   3.554   6.097   7.135 -0.2382 -1.1149 -0.3450
  172MOL    C2844830   3.583   6.199   6.939 -0.6465  0.0964  0.6612
  172MOL    C2944831   3.590   6.060   6.876  0.8733 -0.2343 -0.5282
  172MOL    C3044832   3.502   6.000   6.794  0.0007 -0.3213 -0.1717
  172MOL    C3144833   3.546   5.865   6.731 -0.0206  0.4918  0.1920
  172MOL    C3244834   3.365   6.058   6.742 -0.0872 -0.0022 -0.2205
  172MOL    H3344835   3.685   6.237   6.943 -0.7741  0.5897 -0.5777
  172MOL    H3444836   3.530   6.275   6.881 -0.3494  0.1927  0.5129
  172MOL    H3544837   3.671   5.997   6.910  2.0933  0.5720 -1.8696
  172MOL    H3644838   3.558   5.881   6.624 -0.5769  1.3331  0.2510
  172MOL    H3744839   3.469   5.789   6.748 -0.8524  0.7314 -2.3495
  172MOL    H3844840   3.639   5.830   6.777 -0.1653  1.0504  0.9232
  172MOL    H3944841   3.364   6.088   6.638 -0.5988 -0.3024 -0.3057
  172MOL    H4044842   3.349   6.150   6.799  1.8881  0.0225  0.3060
  172MOL    C4144843   3.240   5.969   6.751 -0.1481  0.0479 -0.5341
  172MOL    C4244844   3.112   6.050   6.738 -0.5597 -0.1141 -0.5219
  172MOL    C4344845   3.005   6.029   6.656 -0.1950 -0.5636  0.2264
  172MOL    C4444846   2.877   6.113   6.658  0.0224  0.4061  0.0550
  172MOL    C4544847   3.010   5.933   6.537  0.5949  0.3406  0.4702
  172MOL    H4644848   3.225   5.932   6.853 -0.1557 -1.1396 -0.9551
  172MOL    H4744849   3.254   5.880   6.690 -0.7484 -0.2261 -0.2788
  172MOL    H4844850   3.095   6.128   6.811  0.2184  0.5070 -1.0003
  172MOL    H4944851   2.852   6.166   6.567 -0.0525 -0.8969 -0.6966
  172MOL    H5044852   2.894   6.185   6.739  0.2002 -1.3490  1.6152
  172MOL    H5144853   2.788   6.054   6.681 -0.3998  1.1155  0.2643
  172MOL    H5244854   2.935   5.854   6.536 -0.8691  1.7046  0.2877
  172MOL    H5344855   3.109   5.888   6.535 -0.7034 -2.6702  0.4337
  172MOL    C5444856   3.000   5.996   6.397  0.6451 -0.1019  0.0460
  172MOL    C5544857   3.113   6.079   6.350  0.0004  0.0032 -0.5667
  172MOL    C5644858   3.177   6.084   6.231  0.0908 -0.3890  0.4715
  172MOL    C5744859   3.272   6.196   6.201 -0.2225  0.0348 -0.2888
  172MOL    C5844860   3.144   5.984   6.117 -0.6106  0.6145  0.0411
  172MOL    H5944861   2.902   6.045   6.403  1.4807  1.2440  3.5717
  172MOL    H6044862   2.979   5.908   6.336 -0.9115 -0.5662  1.2024
  172MOL    H6144863   3.134   6.163   6.414 -0.1806  0.1339 -0.6778
  172MOL    H6244864   3.375   6.163   6.196 -0.4810 -1.3195  2.2554
  172MOL    H6344865   3.262   6.277   6.274  2.8021  1.2803 -1.2076
  172MOL    H6444866   3.240   6.239   6.107 -0.8643 -0.5546 -0.3457
  172MOL    H6544867   3.083   5.901   6.150 -1.2692  1.3782  0.7627
  172MOL    H6644868   3.238   5.939   6.084 -0.7981  0.1949  0.0877
  172MOL    C6744869   3.075   6.039   6.001  0.2524 -0.4108  0.9688
  172MOL    C6844870   2.952   6.120   6.047 -0.3235  0.1863  0.5278
  172MOL    C6944871   2.824   6.077   6.053 -0.5263  0.4564  0.1052
  172MOL    C7044872   2.720   6.179   6.086 -0.3753 -0.1688 -0.3422
  172MOL    C7144873   2.769   5.935   6.036  0.2380 -0.2615  0.2266
  172MOL    H7244874   3.051   5.961   5.929  0.8716  0.5551 -0.3000
  172MOL    H7344875   3.141   6.104   5.944 -1.3118 -0.2138 -0.6498
  172MOL    H7444876   2.980   6.220   6.075 -0.2242 -0.0222  1.1683
  172MOL    H7544877   2.766   6.267   6.130  0.4384 -0.3580 -0.7920
  172MOL    H7644878   2.656   6.143   6.167 -0.1685 -1.3197 -0.6825
  172MOL    H7744879   2.667   6.204   5.994  0.5762  0.7343 -0.6546
  172MOL    H7844880   2.858   5.875   6.013 -0.1133 -2.1661  3.4779
  172MOL    H7944881   2.714   5.956   5.945 -0.3452  2.4196  1.1624
  172MOL    C8044882   2.686   5.862   6.148 -0.2478 -0.3757  0.0868
  172MOL    C8144883   2.705   5.708   6.138  0.0765 -1.1108  0.4550
  172MOL    C8244884   2.737   5.621   6.232 -0.1622  0.2736 -0.6244
  172MOL    C8344885   2.773   5.664   6.373 -0.0087 -0.0195 -0.3970
  172MOL    C8444886   2.756   5.477   6.198 -0.2642  0.1276 -0.3639
  172MOL    H8544887   2.584   5.889   6.122 -0.1220 -0.4624 -0.5049
  172MOL    H8644888   2.710   5.910   6.242 -1.9386  1.3370 -0.3146
  172MOL    H8744889   2.687   5.675   6.037  0.3361  1.8008 -0.6033
  172MOL    H8844890   2.690   5.622   6.431  0.2399 -0.0541 -0.0691
  172MOL    H8944891   2.765   5.772   6.389  1.5984  0.2808 -1.5611
  172MOL    H9044892   2.874   5.632   6.396 -0.0757 -0.8659 -1.2804
  172MOL    H9144893   2.845   5.441   6.250 -2.2346 -0.5666  2.6774
  172MOL    H9244894   2.775   5.462   6.092  0.3574  1.4183 -0.4418
  172MOL    C9344895   2.648   5.385   6.247  0.6508  0.5142  0.5567
  172MOL    C9444896   2.665   5.238   6.195  0.0202 -0.1430 -0.3513
  172MOL    C9544897   2.714   5.134   6.264 -0.1140  0.1744  0.5752
  172MOL    C9644898   2.718   4.996   6.210 -0.0389 -0.4370 -0.1939
  172MOL    C9744899   2.758   5.154   6.405 -0.0921 -0.2286 -0.2071
  172MOL    H9844900   2.548   5.417   6.217  0.5116  1.0400  1.5526
  172MOL    H9944901   2.629   5.375   6.354  0.1534 -2.2635  0.2439
  172MOL   H10044902   2.643   5.216   6.092  1.0837  0.5998 -0.7491
  172MOL   H10144903   2.659   4.932   6.275 -0.7501 -0.3709 -0.7677
  172MOL   H10244904   2.693   4.975   6.106  0.3823 -3.0680  0.2051
  172MOL   H10344905   2.820   4.957   6.212  0.2053  0.0255 -1.9526
  172MOL   H10444906   2.675   5.150   6.475 -0.4851  0.7125 -0.6070
  172MOL   H10544907   2.809   5.250   6.409 -0.1793 -0.1642 -0.5787
  172MOL   C10644908   2.869   5.063   6.461  0.0912  0.0621  0.7277
  172MOL   C10744909   2.873   5.067   6.612 -0.1680 -0.1818 -0.3269
  172MOL   C10844910   2.973   5.017   6.683 -0.8247  0.4310  0.6627
  172MOL   C10944911   3.098   4.956   6.617  0.1405  0.6164  0.0187
  172MOL   C11044912   2.989   5.045   6.833  0.3931 -0.8524 -1.0010
  172MOL   H11144913   2.964   5.079   6.411 -0.5185  0.0079 -0.4495
  172MOL   H11244914   2.849   4.958   6.438  1.4780 -0.0579  0.0604
  172MOL   H11344915   2.795   5.120   6.664 -0.2129  0.2353 -0.8116
  172MOL   H11444916   3.139   4.876   6.679  0.8094 -0.0927 -1.3037
  172MOL   H11544917   3.082   4.905   6.522 -1.1705  3.0544 -1.1064
  172MOL   H11644918   3.168   5.036   6.592  0.9193  0.2113  0.8871
  172MOL   H11744919   2.996   4.948   6.883 -0.3233  0.0419  0.8569
  172MOL   H11844920   2.903   5.098   6.871  1.6457 -0.4107  1.3160
  172MOL   C11944921   3.122   5.107   6.880 -0.6079  0.1424 -0.0758
  172MOL   C12044922   3.153   5.091   7.029  0.2816 -0.2454  0.3506
  172MOL   C12144923   3.125   5.165   7.141  0.0952  0.8621  0.0969
  172MOL   C12244924   3.146   5.108   7.281 -0.0429  0.0679 -0.2258
  172MOL   C12344925   3.056   5.297   7.147 -0.3164  0.1700 -0.6485
  172MOL   H12444926   3.128   5.214   6.861 -0.8900  0.7906  3.1508
  172MOL   H12544927   3.199   5.055   6.825 -2.0378  0.4308 -2.4107
  172MOL   H12644928   3.190   4.992   7.052 -1.6346 -0.8945  0.7456
  172MOL   H12744929   3.057   5.121   7.342  0.7198  0.2506  0.8478
  172MOL   H12844930   3.230   5.168   7.314  0.9557 -0.4133 -1.8348
  172MOL   H12944931   3.175   5.003   7.283  0.3430  0.1754 -0.1920
  172MOL   H13044932   2.969   5.290   7.212  0.6368 -1.4061  0.4902
  172MOL   H13144933   3.027   5.328   7.047 -0.3675 -0.9843 -0.9947
  172MOL   C13244934   3.153   5.397   7.207  0.9222  0.2577 -0.9220
  172MOL   C13344935   3.102   5.544   7.207  0.2729  0.3949  0.0619
  172MOL   C13444936   3.144   5.639   7.121 -0.0900 -0.2124 -0.2024
  172MOL   C13544937   3.097   5.790   7.130 -0.4421  0.9140 -0.4779
  172MOL   C13644938   3.238   5.611   7.000  0.6025  0.1485 -0.3360
  172MOL   H13744939   3.249   5.399   7.155  0.7971 -0.8670 -1.2114
  172MOL   H13844940   3.181   5.375   7.310 -2.5290 -1.6928 -0.3250
  172MOL   H13944941   3.028   5.573   7.280  0.7280 -0.7513  0.9983
  172MOL   H14044942   3.184   5.856   7.130  1.2499 -1.2324 -2.2811
  172MOL   H14144943   3.026   5.806   7.211 -1.0842 -1.5030 -0.5295
  172MOL   H14244944   3.042   5.814   7.038 -1.7797 -1.8421 -0.4482
  172MOL   H14344945   3.193   5.651   6.909 -0.3579 -0.6558 -0.2249
  172MOL   H14444946   3.230   5.509   6.964 -1.1965  0.6685 -1.4718
  172MOL   C14544947   3.389   5.657   7.018  0.1268 -0.2270  0.3979
  172MOL   C14644948   3.456   5.597   7.142  1.2091  1.0182  0.0500
  172MOL   C14744949   3.590   5.592   7.172  0.1151  0.2096 -0.2082
  172MOL   C14844950   3.639   5.510   7.289 -0.0456 -0.1249  0.0541
  172MOL   C14944951   3.696   5.642   7.079 -0.0449  0.2498 -0.0392
  172MOL   H15044952   3.392   5.763   7.040 -1.5932 -0.5271  2.1710
  172MOL   H15144953   3.450   5.638   6.929 -1.1873 -1.1036 -0.3354
  172MOL   H15244954   3.393   5.552   7.216  2.1891  0.9151  0.8359
  172MOL   H15344955   3.633   5.406   7.256 -1.1735  0.5080 -1.8240
  172MOL   H15444956   3.582   5.528   7.380  0.3769 -1.9758  0.7036
  172MOL   H15544957   3.744   5.536   7.304 -0.0091 -0.9865  1.3813
  172MOL   H15644958   3.774   5.693   7.136 -0.7415  1.8921 -0.5444
  172MOL   H15744959   3.652   5.726   7.026  0.9583  0.7599 -0.0815
  172MOL   C15844960   3.763   5.544   6.977  0.1866 -0.2295 -0.1408
  172MOL   C15944961   3.880   5.616   6.912  0.3487  0.0645  1.6516
  172MOL   C16044962   3.905   5.623   6.774  0.0522 -0.4544 -0.5347
  172MOL   C16144963   3.808   5.570   6.666 -0.1015 -0.6280 -0.3274
  172MOL   C16244964   4.037   5.687   6.722  0.6128 -0.2061 -0.1600
  172MOL   H16344965   3.693   5.500   6.907 -1.5713 -2.5575  2.9305
  172MOL   H16444966   3.802   5.455   7.028 -0.3832 -0.4402 -0.0679
  172MOL   H16544967   3.959   5.649   6.978  0.5633 -2.3466  2.6290
  172MOL   H16644968   3.706   5.606   6.680  1.0346  1.9783  1.5849
  172MOL   H16744969   3.800   5.461   6.668 -0.1809 -0.6288 -0.6197
  172MOL   H16844970   3.839   5.597   6.565 -0.0299  1.3728  0.2082
  172MOL   H16944971   4.085   5.730   6.810  0.2206  1.6681 -0.8521
  172MOL   H17044972   4.008   5.762   6.649 -1.3293 -1.1405 -0.3759
  172MOL   C17144973   4.137   5.582   6.667 -0.4651 -0.1650 -0.2900
  172MOL   C17244974   4.275   5.641   6.629  0.2329 -0.4102  0.2768
  172MOL   C17344975   4.330   5.688   6.512  0.6441  0.3697 -0.2917
  172MOL   C17444976   4.255   5.672   6.382  0.0121 -0.2307 -0.1594
  172MOL   C17544977   4.467   5.750   6.504 -0.2250  0.5464  0.2113
  172MOL   H17644978   4.103   5.523   6.582  0.9591  0.0509 -1.0334
  172MOL   H17744979   4.168   5.513   6.745 -2.1429 -0.3950  0.1965
  172MOL   H17844980   4.327   5.646   6.723 -4.0293 -3.3006  2.9413
  172MOL   H17944981   4.268   5.765   6.326 -0.2043  0.6964  1.2691
  172MOL   H18044982   4.149   5.675   6.405  0.3157 -0.4621  1.3642
  172MOL   H18144983   4.290   5.586   6.325 -0.4848 -1.1261  0.8787
  172MOL   H18244984   4.516   5.715   6.413  1.1464  0.7947  0.8274
  172MOL   H18344985   4.524   5.729   6.595 -1.8946 -0.1757  1.1204
  172MOL   C18444986   4.452   5.902   6.492  0.2366  0.4049  0.1960
  172MOL   C18544987   4.581   5.979   6.489 -0.2534  0.3127 -0.3754
  172MOL   C18644988   4.601   6.103   6.445 -0.2654  0.0648 -0.4720
  172MOL   C18744989   4.738   6.169   6.455 -0.1631  0.8201  0.2481
  172MOL   C18844990   4.493   6.184   6.375 -0.5390 -0.0359  0.8057
  172MOL   H18944991   4.395   5.956   6.567 -2.2103  0.3608 -1.5798
  172MOL   H19044992   4.399   5.930   6.401  0.2787 -0.2571 -0.0376
  172MOL   H19144993   4.668   5.922   6.518 -0.3683  0.0965 -0.4502
  172MOL   H19244994   4.805   6.129   6.531 -0.5366  2.3999  1.4080
  172MOL   H19344995   4.727   6.276   6.470 -0.5623  0.7052  0.7992
  172MOL   H19444996   4.792   6.150   6.362 -1.7043  0.2573 -0.5470
  172MOL   H19544997   4.481   6.285   6.414 -0.7610  1.0252 -1.9088
  172MOL   H19644998   4.395   6.136   6.382 -1.1460  0.9006 -1.0769
  172MOL   C19744999   4.524   6.196   6.221  0.0197  0.3529  0.5423
  172MOL   C19845000   4.568   6.065   6.152 -0.1780 -0.1009 -0.4307
  172MOL   C19945001   4.490   5.999   6.063 -0.0110  0.0137 -0.2839
  172MOL   C20045002   4.551   5.875   5.997  0.1478 -0.6785 -0.2477
  172MOL   C20145003   4.344   6.034   6.031  0.2342  0.9898 -0.3988
  172MOL   H20245004   4.608   6.265   6.213  0.4847 -0.3450 -0.6893
  172MOL   H20345005   4.445   6.250   6.170 -1.0852 -1.4132  0.3562
  172MOL   H20445006   4.663   6.022   6.181  0.4614  0.6382 -1.4102
  172MOL   H20545007   4.501   5.789   6.044 -1.4348  0.4752  0.2248
  172MOL   H20645008   4.658   5.854   5.993  0.4619  0.5527  1.0465
  172MOL   H20745009   4.524   5.870   5.892  1.3510 -0.1665 -0.5793
  172MOL   H20845010   4.310   6.084   6.122  1.5798 -1.0835  1.2770
  172MOL   H20945011   4.281   5.946   6.015  1.2511  0.0722  0.6279
  172MOL   C21045012   4.329   6.112   5.898  0.2067 -0.1748  0.3047
  172MOL   C21145013   4.200   6.184   5.906  0.5416 -0.2783  0.3011
  172MOL   C21245014   4.183   6.317   5.885 -0.0738  0.2734 -0.0237
  172MOL   C21345015   4.043   6.385   5.906 -0.2908 -0.1603  0.0214
  172MOL   C21445016   4.290   6.414   5.836  0.4075 -0.9338 -0.7240
  172MOL   H21545017   4.324   6.044   5.813  3.5501  1.5472 -1.3826
  172MOL   H21645018   4.415   6.176   5.878 -0.9361  1.1742 -0.4236
  172MOL   H21745019   4.120   6.117   5.933 -0.2611 -0.1231 -1.5661
  172MOL   H21845020   4.057   6.467   5.976  0.6209 -0.4792  0.2148
  172MOL   H21945021   3.972   6.313   5.947 -1.2389  1.5457  1.4316
  172MOL   H22045022   3.999   6.410   5.809 -0.3236  0.6657  0.2438
  172MOL   H22145023   4.394   6.392   5.859 -0.0923 -0.9209  1.5947
  172MOL   H22245024   4.280   6.495   5.908  0.6955  0.0991 -1.8198
  172MOL   C22345025   4.276   6.436   5.680  0.1069 -0.3567 -0.3513
  172MOL   C22445026   4.342   6.560   5.636  0.3867  0.3401  0.1750
  172MOL   C22545027   4.301   6.655   5.554  0.0124 -0.5913  0.1133
  172MOL   C22645028   4.386   6.789   5.537 -0.0823 -0.3509  0.3547
  172MOL   C22745029   4.167   6.667   5.482 -0.6429  0.2464 -0.0937
  172MOL   H22845030   4.168   6.442   5.669  0.2038  1.1130 -0.6268
  172MOL   H22945031   4.306   6.350   5.621  0.0541 -0.1418 -0.6946
  172MOL   H23045032   4.439   6.585   5.678  1.2141 -0.1895 -1.3905
  172MOL   H23145033   4.409   6.814   5.433 -0.9709  0.5403  0.3695
  172MOL   H23245034   4.488   6.771   5.569 -0.2025 -0.3232  0.7528
  172MOL   H23345035   4.358   6.883   5.584 -2.9056 -0.5815 -0.7391
  172MOL   H23445036   4.140   6.772   5.482 -1.2191  0.1040  0.3492
  172MOL   H23545037   4.094   6.615   5.544  1.4373 -1.8792  0.6610
  172MOL   C23645038   4.169   6.597   5.344 -0.4035 -0.5444  0.0066
  172MOL   C23745039   4.034   6.630   5.277 -0.0280 -0.7855  0.6208
  172MOL   C23845040   4.018   6.718   5.177 -0.1460  0.0183 -0.2848
  172MOL   C23945041   3.879   6.751   5.128 -0.1707  0.8698 -0.9969
  172MOL   C24045042   4.138   6.788   5.106 -0.4410 -0.3719 -0.0119
  172MOL   H24145043   4.196   6.492   5.353  0.5859 -0.1844  1.3761
  172MOL   H24245044   4.254   6.627   5.283 -0.4053 -0.6988 -0.0705
  172MOL   H24345045   3.942   6.580   5.304 -0.9495  0.9652  0.7641
  172MOL   H24445046   3.813   6.666   5.117 -2.1873  2.3829 -0.9245
  172MOL   H24545047   3.881   6.790   5.026 -1.2492  0.8532 -1.0272
  172MOL   H24645048   3.825   6.820   5.194  2.0204  3.6692 -1.9918
  172MOL   H24745049   4.215   6.809   5.181 -1.8690  1.2922  1.0156
  172MOL   H24845050   4.091   6.878   5.067 -0.1309  0.2810  1.0994
  172MOL   C24945051   4.192   6.697   4.998  0.4097 -0.6388  0.6342
  172MOL   C25045052   4.311   6.764   4.929 -0.1660  0.3109  0.5071
  172MOL   C25145053   4.312   6.845   4.820 -0.0525 -0.2626  0.6198
  172MOL   C25245054   4.436   6.887   4.749 -0.1450  0.0519  0.1382
  172MOL   C25345055   4.185   6.883   4.743  0.1646  0.5424  0.9328
  172MOL   H25445056   4.117   6.676   4.923  1.8931 -0.0557 -1.0610
  172MOL   H25545057   4.226   6.606   5.047  1.1705  0.1519  1.6171
  172MOL   H25645058   4.406   6.725   4.963 -1.3661 -2.0441  1.3132
  172MOL   H25745059   4.433   6.996   4.749  0.3881  0.0742 -1.2277
  172MOL   H25845060   4.439   6.851   4.647  1.5582 -0.4326  0.3591
  172MOL   H25945061   4.520   6.859   4.812  0.9440  1.2990 -0.7296
  172MOL   H26045062   4.174   6.808   4.664  0.1333  2.0599 -0.5442
  172MOL   H26145063   4.188   6.982   4.697 -2.0833 -0.4280 -1.4694
  172MOL   H26245064   4.095   6.871   4.804  0.3933 -0.0017  1.1634
  173MOL     C145065   3.038   3.163   2.961 -0.3726  0.5246  0.2600
  173MOL     C245066   3.149   3.272   2.958  0.0735  0.9511  0.1398
  173MOL     C345067   3.141   3.398   2.999  0.5420  0.3090  0.1479
  173MOL     C445068   3.253   3.494   2.986  0.0359 -0.0965  0.2550
  173MOL     C545069   3.012   3.462   3.044  1.0300 -0.1572 -0.0641
  173MOL     H645070   3.053   3.107   2.869  3.4701  0.1564  1.0661
  173MOL     H745071   3.049   3.087   3.037  0.8293  0.6233  0.1862
  173MOL     H845072   3.241   3.233   2.916 -0.0925  0.5377  0.1586
  173MOL     H945073   3.321   3.488   3.070 -0.7738 -1.1398  0.8392
  173MOL    H1045074   3.223   3.599   2.984 -0.2434 -0.1399 -4.7559
  173MOL    H1145075   3.312   3.492   2.894 -0.1517 -0.7589  0.1492
  173MOL    H1245076   2.932   3.388   3.048  1.8378 -1.2120 -2.5004
  173MOL    H1345077   2.969   3.543   2.985  1.1642  1.0392  1.4345
  173MOL    H1445078   2.941   3.213   2.958 -1.4779 -1.5336  0.7129
  173MOL    C1545079   3.031   3.518   3.186  1.0067  0.3856  0.3128
  173MOL    C1645080   2.902   3.566   3.258  0.0119  0.3463 -0.1042
  173MOL    C1745081   2.866   3.538   3.385 -0.2522 -0.4473  0.1883
  173MOL    C1845082   2.744   3.612   3.437  0.2586 -0.2933 -0.1579
  173MOL    C1945083   2.925   3.448   3.487 -0.1838  0.1486  0.5415
  173MOL    H2045084   3.092   3.608   3.183  0.5257  0.6420 -2.4481
  173MOL    H2145085   3.078   3.454   3.262 -2.2780  0.2209  2.3314
  173MOL    H2245086   2.842   3.642   3.211 -0.2254  0.2436  0.0286
  173MOL    H2345087   2.758   3.625   3.544  2.2935 -1.7791 -0.1986
  173MOL    H2445088   2.658   3.545   3.431  1.0095 -1.2138 -0.8973
  173MOL    H2545089   2.715   3.704   3.387  1.4227 -0.2268 -0.7275
  173MOL    H2645090   2.957   3.359   3.434 -0.6250  0.8367 -0.9195
  173MOL    H2745091   2.850   3.419   3.561  0.0509 -1.0071  0.3303
  173MOL    C2845092   3.037   3.521   3.556 -0.0390  0.0131 -0.8449
  173MOL    C2945093   3.090   3.449   3.676 -0.2113  0.2625  0.1109
  173MOL    C3045094   3.093   3.493   3.798 -0.2808  0.8038  0.1914
  173MOL    C3145095   3.159   3.414   3.909 -0.1400  0.1098 -0.6752
  173MOL    C3245096   3.043   3.630   3.843  0.0006 -0.6122  0.3011
  173MOL    H3345097   3.015   3.626   3.573  0.9985  0.0426  0.4044
  173MOL    H3445098   3.117   3.545   3.485 -0.7029 -2.0961 -2.3296
  173MOL    H3545099   3.142   3.357   3.655  1.3662  1.3387 -0.8259
  173MOL    H3645100   3.098   3.407   3.999  0.2909  1.7853 -0.2311
  173MOL    H3745101   3.263   3.445   3.926  0.2447 -1.1985 -0.5983
  173MOL    H3845102   3.175   3.315   3.867 -1.2013  0.7529 -2.6367
  173MOL    H3945103   3.029   3.693   3.755 -1.3371 -2.7526 -1.0654
  173MOL    H4045104   3.119   3.666   3.912  0.9530  0.0159 -1.0634
  173MOL    C4145105   2.912   3.623   3.920  0.2564  0.4045  0.2973
  173MOL    C4245106   2.856   3.751   3.967  0.2032 -0.0518  0.0583
  173MOL    C4345107   2.770   3.771   4.066  0.7172  0.4035 -0.2217
  173MOL    C4445108   2.723   3.911   4.097 -0.5153  0.2606 -0.2234
  173MOL    C4545109   2.701   3.666   4.147 -0.3461  0.1799 -1.2115
  173MOL    H4645110   2.906   3.552   4.003  1.7149 -0.2078 -0.1041
  173MOL    H4745111   2.842   3.583   3.846 -0.7038 -1.8361  2.3522
  173MOL    H4845112   2.893   3.833   3.907  1.9535 -0.5795  0.3738
  173MOL    H4945113   2.752   3.937   4.199  1.3299  1.3849 -1.0048
  173MOL    H5045114   2.617   3.922   4.075  0.2302  2.4560 -2.8842
  173MOL    H5145115   2.762   3.995   4.040  0.6353  1.1358  1.7819
  173MOL    H5245116   2.699   3.566   4.102  1.5778 -1.0215  1.2009
  173MOL    H5345117   2.601   3.701   4.171 -0.0741  1.2076 -1.5492
  173MOL    C5445118   2.772   3.649   4.283  0.3934 -0.3125  0.0476
  173MOL    C5545119   2.693   3.563   4.381 -0.4145 -1.0802  0.6626
  173MOL    C5645120   2.726   3.441   4.422 -0.5201  0.2820 -0.2568
  173MOL    C5745121   2.647   3.373   4.521 -0.3801  0.1927  0.2183
  173MOL    C5845122   2.850   3.363   4.367  0.0197 -0.4714 -0.0626
  173MOL    H5945123   2.758   3.750   4.322  1.6657 -0.5237  1.1274
  173MOL    H6045124   2.878   3.622   4.280  0.5835  0.4909 -0.8601
  173MOL    H6145125   2.606   3.613   4.422  0.0650  0.2493  0.0777
  173MOL    H6245126   2.717   3.367   4.604 -0.0741  0.0426 -0.0510
  173MOL    H6345127   2.629   3.273   4.481 -0.8755  0.1126  0.6407
  173MOL    H6445128   2.553   3.416   4.555 -1.2132  2.0790 -4.0845
  173MOL    H6545129   2.854   3.356   4.258  2.4853  2.4085 -0.2222
  173MOL    H6645130   2.838   3.260   4.400  1.8214 -0.7758 -0.2790
  173MOL    C6745131   2.985   3.417   4.428 -0.9760  0.7749 -0.1513
  173MOL    C6845132   3.009   3.361   4.563 -0.1553 -0.5085  0.1655
  173MOL    C6945133   3.073   3.426   4.669 -0.2547  0.1558 -0.0123
  173MOL    C7045134   3.077   3.354   4.805 -0.0852  0.2757 -0.4799
  173MOL    C7145135   3.122   3.565   4.656 -0.8966 -0.8863  0.7035
  173MOL    H7245136   2.981   3.526   4.430  1.9236  0.9168  0.6911
  173MOL    H7345137   3.056   3.377   4.356 -0.0372  0.7628  0.7626
  173MOL    H7445138   2.976   3.261   4.585  0.1921 -0.3408  1.4775
  173MOL    H7545139   3.027   3.415   4.881  1.6241  2.0142 -0.6983
  173MOL    H7645140   3.173   3.363   4.858 -0.9340  1.1854  0.9425
  173MOL    H7745141   3.052   3.249   4.816 -3.1682  1.1479  1.6536
  173MOL    H7845142   3.126   3.622   4.749 -0.9138 -2.0281  1.4148
  173MOL    H7945143   3.057   3.635   4.605  1.4915 -0.7366 -2.2777
  173MOL    C8045144   3.256   3.572   4.582 -0.2185 -0.3555  0.1972
  173MOL    C8145145   3.360   3.487   4.649  0.6391  0.6053  0.5436
  173MOL    C8245146   3.479   3.527   4.701  0.3708 -0.0559  0.4741
  173MOL    C8345147   3.522   3.669   4.701 -0.3515 -0.2352  0.3177
  173MOL    C8445148   3.594   3.430   4.745 -0.5454 -0.3451 -0.0698
  173MOL    H8545149   3.283   3.677   4.570 -1.2846 -0.2443 -1.4030
  173MOL    H8645150   3.248   3.537   4.479  3.7235  0.8672 -0.6132
  173MOL    H8745151   3.336   3.382   4.634  0.0174  0.7901  0.2142
  173MOL    H8845152   3.627   3.680   4.730  0.0159  0.7069 -1.2538
  173MOL    H8945153   3.466   3.733   4.769  0.7240 -0.2838  1.2557
  173MOL    H9045154   3.515   3.703   4.597 -0.1126  1.5609  0.8748
  173MOL    H9145155   3.619   3.446   4.849  1.7186  0.6747 -0.7496
  173MOL    H9245156   3.686   3.441   4.689 -0.7902 -0.5138 -0.5114
  173MOL    C9345157   3.552   3.284   4.767 -0.4189 -0.1263 -0.0061
  173MOL    C9445158   3.668   3.190   4.815  0.3008 -0.4825 -0.5428
  173MOL    C9545159   3.682   3.121   4.934  0.8071  0.0144  0.0583
  173MOL    C9645160   3.803   3.030   4.955  0.0236  0.4173 -0.2012
  173MOL    C9745161   3.583   3.142   5.055 -0.8754 -0.4355  0.3462
  173MOL    H9845162   3.523   3.240   4.672  0.3536  1.3785 -0.9580
  173MOL    H9945163   3.475   3.282   4.844 -1.5661  2.1242 -1.0510
  173MOL   H10045164   3.750   3.187   4.745  0.7773 -0.5799  0.0149
  173MOL   H10145165   3.842   2.986   4.863 -1.7006 -0.2483 -0.6247
  173MOL   H10245166   3.882   3.093   4.996 -0.4690  1.2695 -0.5465
  173MOL   H10345167   3.773   2.942   5.011 -0.5554  0.3631 -0.5933
  173MOL   H10445168   3.587   3.049   5.110  1.5574  0.4664  1.7790
  173MOL   H10545169   3.483   3.157   5.015 -1.0252  0.5168  1.0538
  173MOL   C10645170   3.633   3.261   5.140 -0.3898  0.0013 -0.0225
  173MOL   C10745171   3.542   3.286   5.264 -0.2772 -0.5684 -0.3964
  173MOL   C10845172   3.443   3.374   5.290 -0.4931 -0.0917 -0.1339
  173MOL   C10945173   3.395   3.471   5.183 -0.4326  0.7457 -0.2482
  173MOL   C11045174   3.370   3.383   5.427 -0.1610 -0.5804 -0.4336
  173MOL   H11145175   3.639   3.354   5.083  2.2239 -0.0756  0.0592
  173MOL   H11245176   3.734   3.251   5.180 -1.7082  0.7010  3.6843
  173MOL   H11345177   3.569   3.220   5.346 -1.8198  1.2695  1.6310
  173MOL   H11445178   3.436   3.451   5.084 -2.2996  0.4669 -1.0011
  173MOL   H11545179   3.286   3.469   5.172 -0.8191 -1.7552  3.0200
  173MOL   H11645180   3.422   3.570   5.220 -3.2624  0.3721  3.1429
  173MOL   H11745181   3.323   3.481   5.428 -1.2518 -1.0834 -1.5288
  173MOL   H11845182   3.433   3.375   5.515 -0.3522  1.5341 -0.0742
  173MOL   C11945183   3.251   3.284   5.436  0.2247 -0.1395  0.1778
  173MOL   C12045184   3.129   3.321   5.353  0.2072 -0.2358 -0.0160
  173MOL   C12145185   3.068   3.246   5.260  0.1707  0.2313  0.0121
  173MOL   C12245186   2.953   3.301   5.181  0.8954  0.1297  0.0687
  173MOL   C12345187   3.115   3.098   5.229 -0.1005 -0.1922  0.9341
  173MOL   H12445188   3.226   3.267   5.541 -1.5154 -2.4483 -0.5671
  173MOL   H12545189   3.297   3.188   5.413  0.7265  0.0983  0.1787
  173MOL   H12645190   3.095   3.420   5.381  1.5614  0.5798 -1.1362
  173MOL   H12745191   2.879   3.224   5.159 -0.4561  1.3467  0.2046
  173MOL   H12845192   2.992   3.336   5.085 -1.6572 -0.1902 -1.1362
  173MOL   H12945193   2.899   3.388   5.220  0.6412 -0.4739  1.0758
  173MOL   H13045194   3.024   3.038   5.225  0.0493 -0.5659  2.6410
  173MOL   H13145195   3.171   3.056   5.313  1.0050  1.4387  1.0323
  173MOL   C13245196   3.197   3.089   5.106 -0.7016  0.3795  0.3436
  173MOL   C13345197   3.251   2.954   5.068  0.6099 -0.2038  0.3998
  173MOL   C13445198   3.284   2.910   4.950 -0.0167  0.4366  0.9016
  173MOL   C13545199   3.330   2.768   4.925  0.3868  0.6925 -0.1228
  173MOL   C13645200   3.263   2.993   4.818  0.1357  0.4363  0.1812
  173MOL   H13745201   3.280   3.159   5.104 -2.0076  1.9710  1.2653
  173MOL   H13845202   3.132   3.128   5.028  0.4975 -1.9223 -1.9017
  173MOL   H13945203   3.272   2.892   5.154  2.8510 -0.0550 -0.0326
  173MOL   H14045204   3.270   2.713   4.853  0.1290  1.9067 -0.8528
  173MOL   H14145205   3.335   2.710   5.017  0.2935 -1.1050 -1.2285
  173MOL   H14245206   3.429   2.771   4.879 -0.3964 -0.9614 -1.9680
  173MOL   H14345207   3.341   2.964   4.748 -0.4360 -1.9827  0.5175
  173MOL   H14445208   3.268   3.099   4.842  1.0460  0.4981 -0.2685
  173MOL   C14545209   3.132   2.951   4.735  0.3448 -0.3163  0.5718
  173MOL   C14645210   2.996   2.968   4.811 -0.0788 -0.1255 -0.2908
  173MOL   C14745211   2.878   3.001   4.758  0.6136  0.4304  0.1072
  173MOL   C14845212   2.763   3.029   4.846 -0.2297  0.1561 -0.2817
  173MOL   C14945213   2.841   3.037   4.613 -0.7328  0.1313 -0.3681
  173MOL   H15045214   3.137   2.844   4.713  0.0262 -0.2620  0.2281
  173MOL   H15145215   3.126   3.002   4.639  0.0457 -1.0885  0.1733
  173MOL   H15245216   2.988   2.944   4.916  1.1419 -1.1233 -0.4200
  173MOL   H15345217   2.685   2.955   4.835 -1.3485  1.2488  0.2342
  173MOL   H15445218   2.713   3.120   4.812 -2.2899 -0.3310  1.3749
  173MOL   H15545219   2.786   3.033   4.952  0.1476 -1.6791 -0.2749
  173MOL   H15645220   2.933   3.040   4.555  0.6906  3.0241  1.9204
  173MOL   H15745221   2.780   3.127   4.607 -2.3351 -0.8857  0.1429
  173MOL   C15845222   2.748   2.927   4.551  0.0812  0.2415  0.5364
  173MOL   C15945223   2.714   2.965   4.405 -1.2270 -0.0540  0.0825
  173MOL   C16045224   2.718   2.881   4.296 -0.5285 -0.2155  0.4362
  173MOL   C16145225   2.761   2.736   4.315 -0.0286  0.1868  0.3760
  173MOL   C16245226   2.675   2.923   4.158 -0.2621 -0.2638  0.5326
  173MOL   H16345227   2.655   2.924   4.607 -0.2612 -0.0821 -0.0386
  173MOL   H16445228   2.791   2.828   4.567  0.4881  0.5473  1.3612
  173MOL   H16545229   2.679   3.067   4.405  0.7353  0.6598 -0.2765
  173MOL   H16645230   2.865   2.728   4.345  0.3279 -1.2821 -1.2091
  173MOL   H16745231   2.761   2.688   4.218  0.9749 -0.0483  0.4932
  173MOL   H16845232   2.709   2.665   4.380  0.8156 -1.2996 -0.5526
  173MOL   H16945233   2.610   2.850   4.112 -0.3355 -0.4611  0.9475
  173MOL   H17045234   2.770   2.925   4.105  0.0325 -0.9137  1.0309
  173MOL   C17145235   2.603   3.059   4.156  0.0195 -0.5326  0.1720
  173MOL   C17245236   2.570   3.119   4.018 -0.1709 -0.3484  0.2818
  173MOL   C17345237   2.643   3.212   3.945 -0.0242 -0.2397  0.0859
  173MOL   C17445238   2.764   3.280   4.006 -0.6359 -0.3005 -0.2301
  173MOL   C17545239   2.612   3.257   3.806  0.8058 -0.5857 -0.0819
  173MOL   H17645240   2.663   3.132   4.211 -1.9787  0.0407  1.6416
  173MOL   H17745241   2.511   3.061   4.214  0.4969  1.4261  0.9029
  173MOL   H17845242   2.492   3.068   3.963 -2.6813  0.2976  3.0864
  173MOL   H17945243   2.734   3.362   4.072  0.2945 -1.5941  1.8727
  173MOL   H18045244   2.839   3.319   3.938 -1.2958  1.8374  0.2516
  173MOL   H18145245   2.817   3.201   4.061  1.4380  1.4580  0.3685
  173MOL   H18245246   2.707   3.252   3.753  0.6063  1.0505 -0.6316
  173MOL   H18345247   2.587   3.361   3.829  0.1135  0.1093 -3.6911
  173MOL   C18445248   2.497   3.195   3.735 -0.6099 -0.7830  0.0143
  173MOL   C18545249   2.469   3.269   3.605 -0.1779 -0.4537 -1.1092
  173MOL   C18645250   2.352   3.267   3.534  0.0049  0.2118 -0.9233
  173MOL   C18745251   2.326   3.360   3.416  0.3462 -0.9137  0.5241
  173MOL   C18845252   2.237   3.170   3.578 -0.6836  0.3558 -0.3053
  173MOL   H18945253   2.410   3.198   3.801 -1.1645 -1.0560 -0.6938
  173MOL   H19045254   2.522   3.090   3.723  1.9545 -0.2380  0.4505
  173MOL   H19145255   2.550   3.330   3.567 -0.3605 -0.7943 -2.0619
  173MOL   H19245256   2.408   3.431   3.428 -2.6576  2.8812 -0.1948
  173MOL   H19345257   2.228   3.401   3.394  0.1723 -0.7113  1.6455
  173MOL   H19445258   2.353   3.295   3.333  0.4545 -2.0917  1.4748
  173MOL   H19545259   2.277   3.088   3.637  0.0548  1.3635  0.6027
  173MOL   H19645260   2.201   3.124   3.486 -1.1526  0.1318 -0.0142
  173MOL   C19745261   2.137   3.238   3.665  1.2636  0.2854  0.1615
  173MOL   C19845262   2.027   3.151   3.724  0.2366 -0.6517 -0.0428
  173MOL   C19945263   1.987   3.144   3.857  0.2100  0.3261  0.1400
  173MOL   C20045264   1.868   3.059   3.894  0.4940 -0.1076  0.7976
  173MOL   C20145265   2.058   3.220   3.971 -0.0286  0.7331 -0.0059
  173MOL   H20245266   2.079   3.302   3.599 -1.6848 -0.9145  1.5317
  173MOL   H20345267   2.191   3.300   3.737  1.0316  0.2015  0.4061
  173MOL   H20445268   1.966   3.104   3.648 -0.7127  1.6555 -0.7381
  173MOL   H20545269   1.908   2.985   3.963  0.7533 -1.3122 -0.5959
  173MOL   H20645270   1.823   3.010   3.807 -0.5559 -0.2596  1.4162
  173MOL   H20745271   1.803   3.116   3.961 -0.1788  0.6544 -0.4756
  173MOL   H20845272   2.165   3.213   3.952  0.2555  0.4115  1.6141
  173MOL   H20945273   2.045   3.153   4.056 -0.4943  0.2774 -0.4340
  173MOL   C21045274   2.023   3.370   3.987  0.1840  0.8946 -0.2998
  173MOL   C21145275   2.092   3.434   4.103 -0.4316  0.1874 -0.7281
  173MOL   C21245276   2.222   3.485   4.109 -0.7758  0.9859 -0.2565
  173MOL   C21345277   2.276   3.564   4.225 -0.1660  0.1497  0.4380
  173MOL   C21445278   2.308   3.483   3.981 -0.6132  0.3450  0.3196
  173MOL   H21545279   1.917   3.383   4.007  0.1340  0.2526 -0.1246
  173MOL   H21645280   2.044   3.420   3.893 -2.2460  3.6595  0.5776
  173MOL   H21745281   2.033   3.446   4.193 -0.5877  1.1510 -0.9445
  173MOL   H21845282   2.381   3.549   4.251 -0.4369 -0.0287  1.4523
  173MOL   H21945283   2.227   3.540   4.319  0.1464  2.2951  1.1729
  173MOL   H22045284   2.268   3.669   4.197  1.6160  0.4913  1.1837
  173MOL   H22145285   2.280   3.406   3.909 -1.1531 -1.2386  2.1931
  173MOL   H22245286   2.405   3.440   4.002  0.6638  2.6122 -0.7239
  173MOL   C22345287   2.347   3.623   3.924  0.0161  0.5455  0.1702
  173MOL   C22445288   2.305   3.627   3.776 -0.2014  0.0375  0.2746
  173MOL   C22545289   2.367   3.705   3.679 -0.2004 -0.6706 -0.7650
  173MOL   C22645290   2.305   3.717   3.543  0.8049  0.2787 -0.5464
  173MOL   C22745291   2.502   3.768   3.701 -0.2057  0.0398  0.2630
  173MOL   H22845292   2.453   3.642   3.939  0.1074  0.5243 -0.4059
  173MOL   H22945293   2.290   3.707   3.964  0.0091  0.8880 -0.5528
  173MOL   H23045294   2.212   3.581   3.743  0.0259 -0.5271  0.4212
  173MOL   H23145295   2.365   3.666   3.467  2.1589  0.1301  0.6153
  173MOL   H23245296   2.293   3.822   3.515  1.1720  0.0254 -1.6757
  173MOL   H23345297   2.206   3.672   3.547  1.4372 -0.9656  2.1383
  173MOL   H23445298   2.558   3.743   3.611 -3.1474  0.5834 -1.8258
  173MOL   H23545299   2.562   3.711   3.772 -1.2302 -0.1704  0.9842
  173MOL   C23645300   2.496   3.914   3.733 -0.3648 -0.0363  0.3597
  173MOL   C23745301   2.632   3.968   3.727 -0.4720 -0.2477 -0.8843
  173MOL   C23845302   2.692   4.021   3.619  0.0182 -0.3283  0.1473
  173MOL   C23945303   2.845   4.054   3.608  0.2295 -0.7470 -0.3036
  173MOL   C24045304   2.622   4.021   3.483  0.3180 -0.3122 -0.3480
  173MOL   H24145305   2.455   3.937   3.832  2.0624  0.9125  1.1945
  173MOL   H24245306   2.440   3.971   3.658 -1.6265 -0.8291  0.6918
  173MOL   H24345307   2.690   3.951   3.816 -1.1856  1.0598 -0.1507
  173MOL   H24445308   2.902   3.965   3.582  0.8482 -0.6100  0.5770
  173MOL   H24545309   2.883   4.073   3.708 -1.5371 -3.1460  0.8974
  173MOL   H24645310   2.862   4.143   3.547  2.3454 -0.7802  0.2082
  173MOL   H24745311   2.544   3.945   3.484 -0.3870  0.4010  0.8585
  173MOL   H24845312   2.693   3.991   3.406 -0.4064 -0.3297 -1.0128
  173MOL   C24945313   2.562   4.157   3.448 -0.0332 -0.1514  0.0343
  173MOL   C25045314   2.486   4.144   3.316 -0.2836 -0.1674  0.1927
  173MOL   C25145315   2.539   4.199   3.208 -0.0377  0.4582 -0.2834
  173MOL   C25245316   2.476   4.172   3.075 -0.2324 -0.0062 -0.6651
  173MOL   C25345317   2.673   4.279   3.208  0.6291  0.8542 -0.1688
  173MOL   H25445318   2.642   4.231   3.452 -0.3561  0.1415  1.4511
  173MOL   H25545319   2.491   4.188   3.525  1.3728  0.9060  0.9318
  173MOL   H25645320   2.390   4.095   3.309 -1.1385  1.5577 -0.3914
  173MOL   H25745321   2.532   4.098   3.017  0.9115  0.1313  0.2617
  173MOL   H25845322   2.463   4.261   3.014  0.9107  0.4289 -0.2910
  173MOL   H25945323   2.378   4.125   3.082 -0.6995  1.1711  0.8125
  173MOL   H26045324   2.747   4.248   3.282 -0.0141 -1.3590 -0.4095
  173MOL   H26145325   2.634   4.378   3.232 -0.0635  1.0515 -2.0220
  173MOL   H26245326   2.725   4.264   3.114  1.9735  0.1700  0.6699
  174MOL     C145327   0.815   0.109   0.576 -0.7203 -0.3259 -0.3649
  174MOL     C245328   0.751   0.152   0.450 -0.6751  0.4972  0.3049
  174MOL     C345329   0.663   0.250   0.437  0.4179  0.0943 -0.7738
  174MOL     C445330   0.591   0.267   0.310 -0.2476  0.2469 -0.6249
  174MOL     C545331   0.623   0.351   0.547 -0.1887  0.8512  0.1456
  174MOL     H645332   0.739   0.075   0.647  0.9401 -1.5313  0.8732
  174MOL     H745333   0.886   0.027   0.565 -2.9901 -2.4055 -0.0636
  174MOL     H845334   0.762   0.081   0.370 -0.4909  0.3079  0.4968
  174MOL     H945335   0.483   0.256   0.326 -0.0263 -0.9582  0.1199
  174MOL    H1045336   0.609   0.184   0.242 -0.2597 -1.8118  1.7931
  174MOL    H1145337   0.620   0.361   0.263  4.6465  0.3772  2.3284
  174MOL    H1245338   0.649   0.455   0.529  1.2453  0.3309 -0.9193
  174MOL    H1345339   0.677   0.335   0.640 -2.1511 -2.2960  0.8224
  174MOL    H1445340   0.867   0.192   0.623 -0.4591 -2.0373  2.5066
  174MOL    C1545341   0.476   0.341   0.601 -0.4724 -0.0287  0.3795
  174MOL    C1645342   0.458   0.435   0.721  0.3683  0.5048 -0.3959
  174MOL    C1745343   0.439   0.567   0.721 -0.7033 -0.2580  0.1793
  174MOL    C1845344   0.416   0.638   0.850  0.1634  0.9333  0.9622
  174MOL    C1945345   0.446   0.649   0.589 -0.5046 -0.7812 -0.5348
  174MOL    H2045346   0.464   0.236   0.629  2.3677  0.1422  2.3705
  174MOL    H2145347   0.407   0.376   0.524 -0.7777  0.6803  0.9732
  174MOL    H2245348   0.460   0.382   0.815  1.3599  0.0226 -0.6834
  174MOL    H2345349   0.490   0.718   0.860  1.3568 -0.2469  1.8397
  174MOL    H2445350   0.431   0.573   0.937 -1.1647  0.7841  1.0805
  174MOL    H2545351   0.316   0.680   0.858 -1.1737 -1.7171 -1.2102
  174MOL    H2645352   0.482   0.602   0.498 -0.0031 -1.0333 -0.2107
  174MOL    H2745353   0.526   0.721   0.603  2.5374 -3.6195 -2.4634
  174MOL    C2845354   0.316   0.724   0.550 -0.6002 -0.1766 -0.4130
  174MOL    C2945355   0.336   0.828   0.442  0.3256  0.6230  0.1220
  174MOL    C3045356   0.316   0.802   0.312 -0.5903 -0.1092  0.5358
  174MOL    C3145357   0.319   0.918   0.214  0.3709  0.4827 -0.0920
  174MOL    C3245358   0.307   0.662   0.259 -0.0375  0.3139 -0.5396
  174MOL    H3345359   0.288   0.789   0.633  2.2660  0.4757  0.0984
  174MOL    H3445360   0.238   0.651   0.527 -0.4227 -0.2356 -0.8273
  174MOL    H3545361   0.344   0.933   0.464 -0.9574  1.0638 -1.4098
  174MOL    H3645362   0.314   1.019   0.257  0.1669 -0.2904  1.7466
  174MOL    H3745363   0.237   0.925   0.143  0.5464 -0.1154 -0.3534
  174MOL    H3845364   0.414   0.906   0.162  0.8335 -0.5361  0.9785
  174MOL    H3945365   0.334   0.580   0.325 -1.3039  0.2109 -0.1275
  174MOL    H4045366   0.374   0.663   0.173  0.6662 -1.9549 -0.0314
  174MOL    C4145367   0.161   0.628   0.225 -0.4336 -0.1935  0.2063
  174MOL    C4245368   0.144   0.520   0.121  0.2818  0.4214 -0.1069
  174MOL    C4345369   0.143   0.528   7.866 -0.1714  0.3576  0.6676
  174MOL    C4445370   0.122   0.410   7.773 -0.3657 -0.2642 -0.7278
  174MOL    C4545371   0.153   0.659   7.793  0.4078 -0.6896  0.2476
  174MOL    H4645372   0.122   0.719   0.178  1.5924  0.9877  0.7526
  174MOL    H4745373   0.100   0.597   0.310 -2.3011  0.9151 -0.6977
  174MOL    H4845374   0.142   0.419   0.159 -1.2849  1.8221  3.8486
  174MOL    H4945375   0.207   0.408   7.706 -1.8242 -0.8935 -2.6014
  174MOL    H5045376   0.041   0.423   7.701 -0.0202 -0.8956 -1.2398
  174MOL    H5145377   0.107   0.319   7.832  0.7185  0.3505  0.5395
  174MOL    H5245378   0.205   0.627   7.702 -2.0906 -1.1808 -1.0473
  174MOL    H5345379   0.219   0.727   7.847  0.0344 -0.0404 -0.1241
  174MOL    C5445380   0.013   0.723   7.778 -0.0426  0.2087 -0.4827
  174MOL    C5545381   0.007   0.844   7.691  0.5976 -0.7384  0.4875
  174MOL    C5645382   7.871   0.974   7.725 -0.3674 -0.7093 -0.7021
  174MOL    C5745383   7.863   1.076   7.618  0.2497 -0.0582  0.4440
  174MOL    C5845384   7.864   1.023   7.868  0.4877  0.5465 -0.3400
  174MOL    H5945385   7.842   0.739   7.873  3.3529 -0.8849  1.5782
  174MOL    H6045386   7.825   0.652   7.730  1.0632 -1.1487 -0.0509
  174MOL    H6145387   0.020   0.814   7.587  2.1036  0.5528  0.2888
  174MOL    H6245388   7.767   1.128   7.622 -0.9232 -2.2033  1.1066
  174MOL    H6345389   7.863   1.019   7.525 -1.0464 -0.4085  0.6395
  174MOL    H6445390   0.067   1.146   7.623  0.1822 -0.0371  1.3920
  174MOL    H6545391   0.023   0.941   0.050 -0.9410 -0.3641 -0.6572
  174MOL    H6645392   7.757   1.038   0.005  0.4611  0.1562 -0.1393
  174MOL    C6745393   0.069   1.152   0.023 -0.1976  0.0892  1.2818
  174MOL    C6845394   0.215   1.151   7.855  0.1521 -0.0640 -0.0495
  174MOL    C6945395   0.300   1.251   7.822  0.5282 -0.0562 -0.1908
  174MOL    C7045396   0.436   1.222   7.759  0.1720  0.4912 -0.1025
  174MOL    C7145397   0.273   1.403   7.830 -0.2497  0.1920  0.2019
  174MOL    H7245398   0.073   1.178   0.129 -0.6646  0.0484  1.3085
  174MOL    H7345399   0.026   1.241   7.858 -0.0213  0.1550  1.2422
  174MOL    H7445400   0.255   1.051   7.851 -0.8855 -0.6139  2.5539
  174MOL    H7545401   0.514   1.260   7.824 -1.2250  0.7887  1.4382
  174MOL    H7645402   0.447   1.249   7.654  2.3601 -0.2622 -0.0850
  174MOL    H7745403   0.452   1.116   7.744  3.4802  0.9728 -0.3218
  174MOL    H7845404   0.358   1.452   7.877  1.2279 -1.5174 -0.6421
  174MOL    H7945405   0.188   1.424   0.017 -0.6757  0.0228 -0.2904
  174MOL    C8045406   0.249   1.468   7.698  0.3536 -0.4127  0.4863
  174MOL    C8145407   0.232   1.618   7.714 -0.3320 -0.1547 -0.1220
  174MOL    C8245408   0.262   1.720   7.627  0.3696  0.4077  0.4764
  174MOL    C8345409   0.327   1.700   7.488  0.4577 -0.0940  0.1452
  174MOL    C8445410   0.254   1.859   7.669 -0.3801 -0.3252 -0.5506
  174MOL    H8545411   0.157   1.429   7.653 -1.1450  0.9662  2.2831
  174MOL    H8645412   0.331   1.447   7.629 -1.1245 -0.9084 -1.1845
  174MOL    H8745413   0.202   1.650   7.813 -0.4686  0.9309 -0.5076
  174MOL    H8845414   0.275   1.764   7.416  1.6156  1.1841  0.4255
  174MOL    H8945415   0.315   1.600   7.448  1.1957 -1.2748  2.7529
  174MOL    H9045416   0.430   1.736   7.483  0.3467  0.3543  0.9229
  174MOL    H9145417   0.180   1.867   7.750  0.2315  0.2649 -0.0411
  174MOL    H9245418   0.209   1.919   7.590 -0.5482 -1.0278 -0.9929
  174MOL    C9345419   0.390   1.919   7.706 -0.2325  0.5361 -0.1310
  174MOL    C9445420   0.374   2.061   7.763  0.0116  0.4138  0.7314
  174MOL    C9545421   0.359   2.176   7.698  0.4475  0.6215  0.0629
  174MOL    C9645422   0.356   2.313   7.762  1.0104 -0.3936 -0.1041
  174MOL    C9745423   0.323   2.183   7.543  0.1741  0.0290 -0.5913
  174MOL    H9845424   0.450   1.916   7.615 -1.1172  0.8524 -0.7271
  174MOL    H9945425   0.446   1.857   7.776 -0.2561  0.4594 -0.1808
  174MOL   H10045426   0.391   2.071   7.869  0.1943  1.9000  0.5671
  174MOL   H10145427   0.256   2.356   7.758  1.9291  1.8565  0.2968
  174MOL   H10245428   0.387   2.317   7.867  0.9767  0.0207 -0.1080
  174MOL   H10345429   0.424   2.373   7.702 -0.7465  2.9891  1.1323
  174MOL   H10445430   0.311   2.082   7.502 -0.2086 -0.4743  0.7408
  174MOL   H10545431   0.400   2.226   7.480  0.9465  0.1350  0.4235
  174MOL   C10645432   0.192   2.256   7.509  0.0289 -0.1031 -0.5133
  174MOL   C10745433   0.118   2.201   7.381 -0.6086  0.1828 -0.1558
  174MOL   C10845434   0.065   2.269   7.272  0.1880  0.1736 -0.3780
  174MOL   C10945435   0.082   2.421   7.250 -0.6262  0.3548 -0.4161
  174MOL   C11045436   0.002   2.197   7.154  0.1200 -0.2477 -0.4063
  174MOL   H11145437   0.201   2.365   7.500  2.5757 -0.2438  0.0162
  174MOL   H11245438   0.123   2.245   7.592  0.5818  0.4006  0.0136
  174MOL   H11345439   0.100   2.095   7.374  1.2352 -0.1161 -0.7956
  174MOL   H11445440   0.116   2.485   7.331 -1.7454  1.2481 -0.6346
  174MOL   H11545441   0.158   2.452   7.179  0.4010 -0.3208  0.3681
  174MOL   H11645442   7.867   2.459   7.211 -1.6572 -0.4343  1.2404
  174MOL   H11745443   7.807   2.253   7.099  1.5666  1.7403 -0.3997
  174MOL   H11845444   7.824   2.113   7.194  0.5207 -0.6699 -0.7149
  174MOL   C11945445   0.111   2.151   7.056  0.9045  0.7203  0.2701
  174MOL   C12045446   0.200   2.034   7.098 -0.3273 -0.3924 -0.3875
  174MOL   C12145447   0.331   2.032   7.132 -0.7569 -0.3495 -0.6444
  174MOL   C12245448   0.393   1.899   7.177  0.3093 -0.6401  0.3452
  174MOL   C12345449   0.414   2.158   7.135 -0.1149  0.0842  0.0449
  174MOL   H12445450   0.168   2.234   7.016  1.8538  0.5519  1.2544
  174MOL   H12545451   0.061   2.111   6.968  0.4247 -1.2445  1.4030
  174MOL   H12645452   0.149   1.939   7.098  0.4040 -0.8658  2.9818
  174MOL   H12745453   0.480   1.868   7.118 -0.0213  1.2153 -1.1730
  174MOL   H12845454   0.327   1.815   7.156  1.2060 -0.9748 -1.2207
  174MOL   H12945455   0.430   1.894   7.279  1.4566 -1.8274 -0.1060
  174MOL   H13045456   0.481   2.152   7.221 -0.1576 -2.4983 -0.0714
  174MOL   H13145457   0.348   2.243   7.154 -1.2162 -0.5980 -0.7314
  174MOL   C13245458   0.508   2.190   7.010 -0.2460  0.7724  0.3128
  174MOL   C13345459   0.594   2.312   7.040 -0.0415  0.4986 -0.4189
  174MOL   C13445460   0.697   2.330   7.131 -0.2753 -0.2795  0.0494
  174MOL   C13545461   0.756   2.467   7.146  0.4863 -1.3945  0.4392
  174MOL   C13645462   0.757   2.217   7.212 -0.8682 -0.2501 -0.0714
  174MOL   H13745463   0.459   2.194   6.912 -0.2322 -2.3723  0.1471
  174MOL   H13845464   0.584   2.113   6.996 -2.0060 -0.4749 -3.0299
  174MOL   H13945465   0.559   2.403   6.994 -1.0949  0.1030 -0.4265
  174MOL   H14045466   0.858   2.461   7.107 -0.1763 -2.0918 -1.2252
  174MOL   H14145467   0.751   2.494   7.251 -0.3199 -0.5808  0.1991
  174MOL   H14245468   0.706   2.549   7.094  1.5204 -1.7152 -1.1160
  174MOL   H14345469   0.864   2.204   7.193 -1.1310 -0.7653 -1.2269
  174MOL   H14445470   0.708   2.126   7.179  0.9805 -0.1603 -3.3752
  174MOL   C14545471   0.728   2.233   7.365 -0.1146 -0.2202 -0.7060
  174MOL   C14645472   0.725   2.098   7.437  0.0210 -0.0465 -0.2737
  174MOL   C14745473   0.797   2.060   7.543  0.4107  0.0881  0.8162
  174MOL   C14845474   0.765   1.931   7.601  0.1246  0.6783  0.8479
  174MOL   C14945475   0.898   2.144   7.625  0.6842  0.0321  0.3001
  174MOL   H15045476   0.639   2.288   7.395 -0.8630 -1.3870 -0.7407
  174MOL   H15145477   0.805   2.292   7.414 -0.0552  0.8024 -2.0114
  174MOL   H15245478   0.648   2.030   7.405  0.1313 -0.1798 -0.2545
  174MOL   H15345479   0.728   1.863   7.524  1.1615  0.1192  0.8264
  174MOL   H15445480   0.701   1.939   7.689 -0.4681  1.5259  0.3480
  174MOL   H15545481   0.851   1.879   7.643 -2.4014 -1.4138  3.5863
  174MOL   H15645482   0.928   2.233   7.571  1.1488  0.1614  0.7603
  174MOL   H15745483   0.994   2.093   7.635  0.5347 -0.5565 -1.0966
  174MOL   C15845484   0.848   2.191   7.765 -0.0584 -0.0519 -0.1606
  174MOL   C15945485   0.942   2.290   7.818  0.4302  0.0352 -0.1378
  174MOL   C16045486   0.946   2.421   7.795 -0.0463  0.3340  0.6527
  174MOL   C16145487   0.843   2.479   7.707  0.0450  0.0717  0.0381
  174MOL   C16245488   1.054   2.514   7.847  0.0377 -0.5600 -0.0427
  174MOL   H16345489   0.858   2.109   7.836 -0.2453  1.6503  1.8929
  174MOL   H16445490   0.743   2.220   7.771 -0.2491 -0.6479 -0.6379
  174MOL   H16545491   1.019   2.244   7.879 -0.8437 -0.9777  0.7250
  174MOL   H16645492   0.797   2.560   7.763 -1.6184 -0.7228 -0.1710
  174MOL   H16745493   0.763   2.407   7.691 -1.3132  1.9579 -2.0767
  174MOL   H16845494   0.870   2.515   7.607  0.1733 -1.6703 -0.5715
  174MOL   H16945495   1.110   2.476   0.053  0.0064  0.1817  0.3162
  174MOL   H17045496   1.000   2.599   0.012  1.4640  0.6327 -0.5457
  174MOL   C17145497   1.150   2.566   7.744  0.2328 -0.1195  0.4085
  174MOL   C17245498   1.237   2.457   7.689  0.7111  0.1561 -0.2409
  174MOL   C17345499   1.357   2.472   7.630  0.0476 -0.5273 -0.1363
  174MOL   C17445500   1.416   2.613   7.614  0.2962 -0.0871 -0.2894
  174MOL   C17545501   1.450   2.343   7.616 -0.1635  0.3573 -0.0939
  174MOL   H17645502   1.225   2.631   7.789  1.2370 -0.9722  0.0043
  174MOL   H17745503   1.099   2.616   7.662  3.3103  0.4195 -1.2622
  174MOL   H17845504   1.198   2.357   7.700 -1.2370  0.8235 -0.9278
  174MOL   H17945505   1.476   2.611   7.523  3.4534  0.9467  1.6824
  174MOL   H18045506   1.476   2.641   7.700  0.4212  1.2115 -0.7991
  174MOL   H18145507   1.340   2.689   7.594 -1.1093 -1.4459 -0.1924
  174MOL   H18245508   1.430   2.307   7.515  0.1283 -0.8949  0.2881
  174MOL   H18345509   1.415   2.265   7.684 -1.0580  0.0857 -0.8436
  174MOL   C18445510   1.602   2.359   7.644 -0.0683  0.1821  0.3295
  174MOL   C18545511   1.656   2.223   7.646 -0.2323  0.6548 -0.6467
  174MOL   C18645512   1.760   2.173   7.722  0.5612 -0.6682 -0.0309
  174MOL   C18745513   1.801   2.032   7.705  0.8675 -0.0947 -0.1987
  174MOL   C18845514   1.838   2.254   7.831  0.3361 -0.9927  0.6829
  174MOL   H18945515   1.634   2.394   7.742  0.9299 -1.1077  0.4771
  174MOL   H19045516   1.655   2.414   7.566  1.4934 -0.0340  1.2100
  174MOL   H19145517   1.605   2.157   7.578 -0.0906  0.1281 -0.2476
  174MOL   H19245518   1.724   1.974   7.757  0.8121  0.4712  0.3519
  174MOL   H19345519   1.898   2.004   7.746  0.8240  0.7651  0.5009
  174MOL   H19445520   1.811   1.994   7.603 -0.2321  1.1619 -0.7904
  174MOL   H19545521   1.832   2.362   7.814  1.0489 -0.8548  1.3001
  174MOL   H19645522   1.944   2.233   7.823  0.4720 -0.4078  0.9414
  174MOL   C19745523   1.789   2.224   0.096  0.2249 -0.5464  0.3434
  174MOL   C19845524   1.639   2.196   0.099  0.4592  0.2477  0.6507
  174MOL   C19945525   1.549   2.296   0.128 -0.1878  0.4313 -0.0507
  174MOL   C20045526   1.407   2.258   0.131  0.0491  0.1855 -0.5832
  174MOL   C20145527   1.591   2.434   0.176  0.0530 -0.0515 -0.3260
  174MOL   H20245528   1.816   2.299   0.170 -0.1256 -1.2473  1.1799
  174MOL   H20345529   1.840   2.140   0.142 -1.2905 -0.2766  2.5576
  174MOL   H20445530   1.600   2.099   0.070  1.9881  0.0358 -0.7425
  174MOL   H20545531   1.345   2.343   0.103 -2.8848 -1.1426  1.6667
  174MOL   H20645532   1.367   2.233   0.230  1.0386  2.1899  0.3501
  174MOL   H20745533   1.397   2.174   0.063  2.2332 -0.4646 -0.1640
  174MOL   H20845534   1.510   2.499   0.143 -0.8984  0.1385  2.2386
  174MOL   H20945535   1.684   2.465   0.129  0.2676  2.0855  1.4171
  174MOL   C21045536   1.607   2.441   0.324 -0.0581  0.6509 -1.0031
  174MOL   C21145537   1.636   2.581   0.356  0.3482  0.0884  0.2795
  174MOL   C21245538   1.753   2.635   0.393 -0.2774 -0.1775  0.3231
  174MOL   C21345539   1.759   2.780   0.426  0.1399  0.4707 -0.3545
  174MOL   C21445540   1.884   2.562   0.421  0.2559 -0.5729  0.2809
  174MOL   H21545541   1.678   2.363   0.352 -0.1176  1.1970  0.7573
  174MOL   H21645542   1.506   2.413   0.356  0.5620 -1.2580 -0.6552
  174MOL   H21745543   1.553   2.649   0.351  0.6101  0.6132  2.6351
  174MOL   H21845544   1.785   2.788   0.531  2.1205  2.6378 -0.9633
  174MOL   H21945545   1.666   2.828   0.397 -1.1881 -1.9910 -0.2326
  174MOL   H22045546   1.825   2.831   0.355  0.3972 -0.7824 -1.0326
  174MOL   H22145547   1.861   2.456   0.408 -3.6216  0.2369  0.0014
  174MOL   H22245548   1.906   2.573   0.528 -1.3677 -2.6760  0.8739
  174MOL   C22345549   2.001   2.593   0.322 -0.0832  0.1614 -0.3668
  174MOL   C22445550   2.124   2.497   0.321  0.0467  0.8665  0.1436
  174MOL   C22545551   2.253   2.526   0.365  0.4617 -0.1163  0.3371
  174MOL   C22645552   2.370   2.423   0.358 -0.5658 -0.6796  0.2208
  174MOL   C22745553   2.294   2.667   0.409 -1.3200 -0.2494 -0.1405
  174MOL   H22845554   2.035   2.696   0.334 -1.1968  0.1806  3.0213
  174MOL   H22945555   1.965   2.578   0.220  1.7979 -0.4087 -0.9817
  174MOL   H23045556   2.097   2.395   0.298 -0.3582  1.1541 -0.6457
  174MOL   H23145557   2.444   2.437   0.280 -2.7672  2.4184 -1.4034
  174MOL   H23245558   2.327   2.325   0.334 -0.5968 -0.1920 -1.7764
  174MOL   H23345559   2.406   2.410   0.460 -1.6175 -1.0200  0.5614
  174MOL   H23445560   2.390   2.659   0.461 -1.4786  2.5580  0.6370
  174MOL   H23545561   2.224   2.706   0.483 -0.7636  0.5925 -0.0518
  174MOL   C23645562   2.326   2.769   0.296  0.2383  0.2936  0.1057
  174MOL   C23745563   2.386   2.897   0.339  0.1090 -0.2525 -0.1007
  174MOL   C23845564   2.317   3.004   0.384  0.6504  0.2553 -0.2443
  174MOL   C23945565   2.384   3.126   0.443  0.1113  0.0594  0.1971
  174MOL   C24045566   2.168   3.014   0.374  0.3120  0.2803  0.0369
  174MOL   H24145567   2.245   2.778   0.224 -0.1669  3.7609  0.9113
  174MOL   H24245568   2.409   2.719   0.246  0.0392  1.1179 -1.0640
  174MOL   H24345569   2.493   2.895   0.349  0.0218 -1.8463  0.6400
  174MOL   H24445570   2.393   3.201   0.364  1.7594  0.4139  0.6935
  174MOL   H24545571   2.487   3.112   0.476  0.7047  0.7059 -1.3108
  174MOL   H24645572   2.325   3.158   0.529 -1.7549 -2.7304  0.0166
  174MOL   H24745573   2.131   3.061   0.466 -1.3183  0.3332 -0.6325
  174MOL   H24845574   2.114   2.920   0.363  3.2473 -1.3277 -1.1070
  174MOL   C24945575   2.129   3.097   0.250  0.1389 -0.0748  0.3950
  174MOL   C25045576   2.130   3.015   0.120  0.7785 -0.5591  0.0346
  174MOL   C25145577   2.223   3.016   0.022 -0.2738 -0.3889 -0.7760
  174MOL   C25245578   2.210   2.923   7.787  0.4095 -0.5457 -0.2748
  174MOL   C25345579   2.330   3.112   0.012  0.0580  0.4388 -0.0489
  174MOL   H25445580   2.193   3.185   0.258  0.7192 -0.4752  0.2195
  174MOL   H25545581   2.027   3.133   0.264  0.7633  2.1356 -0.5215
  174MOL   H25645582   2.051   2.942   0.127 -1.0203  1.4816  1.4774
  174MOL   H25745583   2.300   2.891   7.735  0.1116 -1.0825 -0.4666
  174MOL   H25845584   2.155   2.976   7.708  0.0881 -2.1451 -1.1554
  174MOL   H25945585   2.156   2.832   7.812  1.0015 -0.9661 -0.5337
  174MOL   H26045586   2.356   3.154   0.109  1.1514 -1.5362  0.5307
  174MOL   H26145587   2.309   3.186   7.814  1.8011 -1.0693 -2.0521
  174MOL   H26245588   2.427   3.077   7.855  0.3086  0.1791  0.8584
  175MOL     C145589   2.212   4.083   7.595 -0.1409 -0.2544  0.2525
  175MOL     C245590   2.154   4.037   7.458 -0.1166  0.3624  1.1189
  175MOL     C345591   2.196   4.065   7.336 -0.7104 -0.7686  0.0286
  175MOL     C445592   2.125   4.027   7.213  0.2260  0.3294  0.1356
  175MOL     C545593   2.324   4.146   7.315 -0.2468  0.3961  0.2795
  175MOL     H645594   2.255   3.993   7.638 -0.8862 -0.6879  0.0891
  175MOL     H745595   2.287   4.161   7.578  0.6288 -1.1583 -0.5875
  175MOL     H845596   2.070   3.969   7.469  1.0012 -1.1832  0.2068
  175MOL     H945597   2.057   4.099   7.168 -0.3920  0.8345  1.8597
  175MOL    H1045598   2.059   3.944   7.239 -1.1047  0.5810 -2.2772
  175MOL    H1145599   2.188   3.985   7.134 -2.8268 -1.7158 -1.3076
  175MOL    H1245600   2.373   4.102   7.228  1.1987  0.9708  0.7935
  175MOL    H1345601   2.399   4.138   7.394  1.0917  1.4613 -0.8533
  175MOL    H1445602   2.125   4.113   7.654  0.9686  1.1312  1.2274
  175MOL    C1545603   2.299   4.295   7.282 -0.1927  0.0797  0.1245
  175MOL    C1645604   2.419   4.376   7.242 -0.4092  0.1195 -0.1084
  175MOL    C1745605   2.427   4.504   7.194  0.3916  0.0285  0.4946
  175MOL    C1845606   2.560   4.567   7.163 -0.9481 -0.8379  0.2468
  175MOL    C1945607   2.307   4.596   7.179 -0.1010 -0.3280  0.5665
  175MOL    H2045608   2.248   4.352   7.360  0.5883  1.1244 -0.1106
  175MOL    H2145609   2.225   4.291   7.202 -0.6647 -0.6829  0.5854
  175MOL    H2245610   2.508   4.316   7.248 -1.1361 -0.9335  0.2352
  175MOL    H2345611   2.568   4.577   7.055  0.7687  0.9718  0.5181
  175MOL    H2445612   2.653   4.522   7.197  0.5974  2.1244  0.0839
  175MOL    H2545613   2.553   4.673   7.187 -0.0744 -0.3887 -1.4271
  175MOL    H2645614   2.316   4.694   7.226  0.9354  0.6816 -1.6739
  175MOL    H2745615   2.221   4.545   7.223 -0.2473 -1.6464 -1.1779
  175MOL    C2845616   2.268   4.617   7.034  0.7010 -0.4886 -0.5586
  175MOL    C2945617   2.221   4.489   6.963  0.2630  0.0665  0.5523
  175MOL    C3045618   2.090   4.454   6.932 -0.1569 -0.3889 -0.2667
  175MOL    C3145619   2.061   4.318   6.881 -0.0887  0.2837  0.1671
  175MOL    C3245620   1.969   4.543   6.953  0.0639  0.0812  0.0117
  175MOL    H3345621   2.346   4.658   6.970  0.0408  2.4524  0.4841
  175MOL    H3445622   2.194   4.696   7.026 -0.3379 -1.5245 -1.4987
  175MOL    H3545623   2.298   4.415   6.950 -0.2027 -0.2397 -0.5175
  175MOL    H3645624   1.978   4.276   6.939 -0.9104  0.9884 -0.4887
  175MOL    H3745625   2.150   4.256   6.887  1.3429  2.3724  1.2148
  175MOL    H3845626   2.025   4.333   6.779  1.2285 -0.5630 -0.4321
  175MOL    H3945627   1.887   4.528   6.882 -0.0895  1.2594 -0.0720
  175MOL    H4045628   2.008   4.642   6.927 -0.2013  0.5105  1.2257
  175MOL    C4145629   1.911   4.523   7.088  0.3352  0.2830 -0.3977
  175MOL    C4245630   1.818   4.405   7.102  0.9513  0.7331 -0.2195
  175MOL    C4345631   1.814   4.313   7.203  0.1372 -0.1125  0.0030
  175MOL    C4445632   1.702   4.211   7.222  0.6625  0.6193  0.2497
  175MOL    C4545633   1.921   4.303   7.310 -0.7471  0.2560 -0.5782
  175MOL    H4645634   1.849   4.610   7.112 -1.0810 -0.9248  0.3553
  175MOL    H4745635   1.988   4.522   7.165 -2.5058  0.1238  2.5155
  175MOL    H4845636   1.726   4.407   7.047 -0.8939 -1.2734  2.6732
  175MOL    H4945637   1.742   4.115   7.190  0.1268  1.3294 -2.6965
  175MOL    H5045638   1.611   4.223   7.162 -0.0677 -0.5745  1.1112
  175MOL    H5145639   1.671   4.211   7.326  1.1960 -0.3995  0.4096
  175MOL    H5245640   2.024   4.323   7.280  0.7434 -3.5541  1.7042
  175MOL    H5345641   1.929   4.200   7.345  1.9998  0.5611 -0.2036
  175MOL    C5445642   1.891   4.399   7.429  0.0203 -0.4015 -0.0103
  175MOL    C5545643   2.014   4.396   7.531 -0.7487 -0.9929  0.1442
  175MOL    C5645644   2.083   4.498   7.586  0.0718 -0.0226  0.4238
  175MOL    C5745645   2.197   4.469   7.682  0.0470  0.3566 -0.3738
  175MOL    C5845646   2.067   4.641   7.554  0.3319 -0.3321 -0.3896
  175MOL    H5945647   1.801   4.354   7.471  0.2177 -1.5320 -0.7530
  175MOL    H6045648   1.862   4.502   7.410 -0.0039 -0.1980  1.0790
  175MOL    H6145649   2.047   4.297   7.559 -0.5452 -1.1138 -0.5038
  175MOL    H6245650   2.193   4.365   7.714 -2.3630 -1.2637 -5.5021
  175MOL    H6345651   2.189   4.539   7.765  1.2075 -0.3365  0.3478
  175MOL    H6445652   2.289   4.499   7.631  0.3825 -0.5210 -0.2849
  175MOL    H6545653   2.055   4.646   7.445 -0.8385 -0.3521 -0.2716
  175MOL    H6645654   2.162   4.686   7.582  1.1966 -2.8652  0.9352
  175MOL    C6745655   1.957   4.714   7.634  0.1924 -0.1479  0.1721
  175MOL    C6845656   1.931   4.854   7.584 -0.1646  0.1702  0.2607
  175MOL    C6945657   1.953   4.972   7.655  0.2275 -0.2253  0.6797
  175MOL    C7045658   1.907   5.106   7.604  0.3054  0.7603 -0.3185
  175MOL    C7145659   2.013   4.979   7.791 -0.0383 -0.0810 -0.0908
  175MOL    H7245660   1.961   4.704   7.742 -0.6380  0.4544  0.2626
  175MOL    H7345661   1.866   4.657   7.611 -2.1998  3.1312  1.1909
  175MOL    H7445662   1.880   4.859   7.489 -0.3028  1.3571  0.3861
  175MOL    H7545663   1.857   5.101   7.508 -1.1904  1.7837  0.3882
  175MOL    H7645664   1.990   5.176   7.595  1.3424 -0.2330  1.2226
  175MOL    H7745665   1.819   5.147   7.654  0.7378 -0.2183  1.3185
  175MOL    H7845666   2.051   4.883   7.827  0.6838 -0.3037 -1.4159
  175MOL    H7945667   1.943   5.012   7.867  0.0593  0.9822 -0.4508
  175MOL    C8045668   2.133   5.080   7.800  0.1189  0.0028 -0.9287
  175MOL    C8145669   2.098   5.222   7.825 -0.2869 -0.0860 -0.1522
  175MOL    C8245670   2.181   5.315   7.876  0.8966  0.2737  0.4022
  175MOL    C8345671   2.322   5.289   0.047 -0.4082 -0.2740  0.3925
  175MOL    C8445672   2.143   5.462   7.871 -0.7147  0.6391 -0.4169
  175MOL    H8545673   2.179   5.060   7.703  1.0890  1.1603 -0.7137
  175MOL    H8645674   2.209   5.044   7.868 -1.4972 -2.0803 -0.1771
  175MOL    H8745675   2.001   5.246   7.784 -0.6780 -1.7056 -0.2039
  175MOL    H8845676   2.381   5.303   7.836 -1.5580 -1.2082 -0.5360
  175MOL    H8945677   2.347   5.192   0.090  2.1850  1.1223  2.1108
  175MOL    H9045678   2.338   5.363   0.125 -1.2262 -1.7934  2.0469
  175MOL    H9145679   2.063   5.483   7.800  0.0700  0.8603 -1.2552
  175MOL    H9245680   2.236   5.498   7.826 -0.5201 -1.4992 -1.7938
  175MOL    C9345681   2.123   5.533   0.121  1.3607  0.2150  0.1566
  175MOL    C9445682   2.059   5.669   0.094  0.1604  0.7234  0.0610
  175MOL    C9545683   2.093   5.791   0.139 -0.0350  0.4316  0.2555
  175MOL    C9645684   2.003   5.918   0.127  0.0157 -0.0045 -0.2359
  175MOL    C9745685   2.211   5.817   0.227  0.1007  0.2415  0.4410
  175MOL    H9845686   2.211   5.533   0.184  0.1435  1.4424  1.8827
  175MOL    H9945687   2.048   5.473   0.173  0.8057  1.6795  1.0578
  175MOL   H10045688   1.965   5.664   0.041 -1.5689 -1.7160  3.1657
  175MOL   H10145689   1.898   5.893   0.111 -0.4029  0.7966  1.2041
  175MOL   H10245690   2.006   5.977   0.219  1.7990  0.7427 -0.7686
  175MOL   H10345691   2.044   5.971   0.042 -1.1446 -0.6592 -1.2270
  175MOL   H10445692   2.242   5.921   0.235  0.6674  0.2105 -1.2198
  175MOL   H10545693   2.294   5.759   0.186 -0.4680  0.4756 -1.0601
  175MOL   C10645694   2.177   5.776   0.373  0.5891 -0.5760  0.1233
  175MOL   C10745695   2.303   5.762   0.452  0.8461  0.3155  1.1330
  175MOL   C10845696   2.341   5.654   0.530 -0.9378  0.1415 -0.6137
  175MOL   C10945697   2.257   5.523   0.539  0.0066  0.0964  0.1135
  175MOL   C11045698   2.478   5.652   0.602 -0.3814 -0.0549 -0.2863
  175MOL   H11145699   2.114   5.688   0.384 -1.2765  0.7270  0.2170
  175MOL   H11245700   2.117   5.851   0.424  1.6961 -1.7105  3.2324
  175MOL   H11345701   2.364   5.851   0.445 -0.2154  0.8233 -2.5117
  175MOL   H11445702   2.150   5.544   0.535  0.1890  1.0651  0.2049
  175MOL   H11545703   2.283   5.450   0.463  1.6903 -2.8379  3.3903
  175MOL   H11645704   2.273   5.480   0.638 -1.2105  1.2267  0.8256
  175MOL   H11745705   2.527   5.742   0.564 -0.7516  1.1189  1.9008
  175MOL   H11845706   2.535   5.569   0.561  2.3754  1.2975  0.6453
  175MOL   C11945707   2.468   5.657   0.747 -0.7726 -0.4341  0.1681
  175MOL   C12045708   2.599   5.698   0.809 -0.0297 -0.0671 -0.6106
  175MOL   C12145709   2.630   5.819   0.871 -0.6068 -0.0433 -0.0991
  175MOL   C12245710   2.768   5.840   0.932 -0.5428  0.0766  1.2835
  175MOL   C12345711   2.531   5.934   0.885 -0.4571  0.1295 -0.1770
  175MOL   H12445712   2.418   5.566   0.781 -1.1396 -1.0614 -1.9815
  175MOL   H12545713   2.398   5.736   0.774  0.0529  0.6552 -0.8274
  175MOL   H12645714   2.677   5.624   0.810  0.7531  0.7278  1.8770
  175MOL   H12745715   2.832   5.752   0.917  0.2956  0.7451  0.9195
  175MOL   H12845716   2.764   5.845   1.040 -0.3121  0.8429  1.2564
  175MOL   H12945717   2.817   5.923   0.880  1.1908  0.4346  3.4272
  175MOL   H13045718   2.562   5.990   0.973 -0.2090 -0.0027 -0.1806
  175MOL   H13145719   2.439   5.882   0.910 -0.2526  0.2759  0.8794
  175MOL   C13245720   2.517   6.037   0.763 -0.1708  0.3718 -0.8466
  175MOL   C13345721   2.388   6.119   0.764  0.4406 -0.0642  0.2088
  175MOL   C13445722   2.369   6.251   0.791  0.2051 -0.3025  0.6011
  175MOL   C13545723   2.239   6.317   0.768 -0.7624  0.1532  0.5071
  175MOL   C13645724   2.478   6.356   0.816 -0.4820  0.7944 -0.1573
  175MOL   H13745725   2.508   5.973   0.676  0.1717 -0.4289 -0.2933
  175MOL   H13845726   2.600   6.106   0.749 -1.0652  1.6753  0.0623
  175MOL   H13945727   2.303   6.059   0.738 -0.0126  0.1120  1.2448
  175MOL   H14045728   2.155   6.247   0.777 -1.2657  0.4664 -1.5573
  175MOL   H14145729   2.229   6.355   0.667 -1.7197  1.6525  1.1457
  175MOL   H14245730   2.224   6.393   0.845  0.2028 -1.5569  2.4574
  175MOL   H14345731   2.563   6.295   0.847  1.0775  2.0522 -1.8323
  175MOL   H14445732   2.447   6.425   0.894 -1.4077 -0.4601  0.6096
  175MOL   C14545733   2.516   6.433   0.696  0.2935 -1.1550 -0.1999
  175MOL   C14645734   2.595   6.557   0.745  0.1592 -0.3926 -0.4532
  175MOL   C14745735   2.586   6.688   0.710  0.0001 -0.3223 -0.0050
  175MOL   C14845736   2.683   6.788   0.772 -0.1526  0.5053 -0.0841
  175MOL   C14945737   2.485   6.741   0.603 -0.0191 -0.1664 -0.6639
  175MOL   H15045738   2.435   6.462   0.629  1.2834  1.3713 -0.3475
  175MOL   H15145739   2.581   6.392   0.619  3.7449  4.9337 -0.8745
  175MOL   H15245740   2.677   6.524   0.808 -0.8496 -1.0978  0.5046
  175MOL   H15345741   2.720   6.864   0.703  0.1699  1.6500  1.3164
  175MOL   H15445742   2.762   6.738   0.827 -0.3860 -1.5096 -1.5477
  175MOL   H15545743   2.630   6.840   0.852 -0.4406 -1.1867  0.8302
  175MOL   H15645744   2.412   6.672   0.561  0.9943 -1.9666  0.5127
  175MOL   H15745745   2.536   6.795   0.523  1.3471 -0.8857 -0.2924
  175MOL   C15845746   2.393   6.840   0.665  0.1580  0.2928  0.5183
  175MOL   C15945747   2.303   6.905   0.560 -1.1252 -0.3077  0.1419
  175MOL   C16045748   2.201   6.989   0.591 -0.6427  0.5154  0.0721
  175MOL   C16145749   2.160   7.015   0.737 -1.0773 -0.2259  0.0486
  175MOL   C16245750   2.100   7.028   0.488 -0.1863 -0.3020  0.7218
  175MOL   H16345751   2.435   6.925   0.719  1.2469  0.1694 -0.1236
  175MOL   H16445752   2.325   6.784   0.729  0.3492  1.5358  1.8390
  175MOL   H16545753   2.318   6.869   0.459  0.4445 -3.5253  1.4708
  175MOL   H16645754   2.122   7.115   0.757  0.8473  0.4779  0.2966
  175MOL   H16745755   2.243   7.017   0.807 -1.3999  0.9650  0.3984
  175MOL   H16845756   2.083   6.949   0.778 -2.5586  1.9821  0.9037
  175MOL   H16945757   2.003   6.990   0.520 -0.3322 -0.4365  0.1232
  175MOL   H17045758   2.125   6.984   0.392 -0.0971 -0.5580  0.8624
  175MOL   C17145759   2.113   7.178   0.462 -0.0366  0.1074 -0.8768
  175MOL   C17245760   2.004   7.240   0.372 -0.0237  0.5390  0.7528
  175MOL   C17345761   1.910   7.330   0.411 -0.3970  0.2546 -1.0208
  175MOL   C17445762   1.911   7.373   0.553  0.1197 -0.0379  0.5930
  175MOL   C17545763   1.800   7.381   0.317  0.1528 -0.0151 -0.0535
  175MOL   H17645764   2.213   7.190   0.421 -0.3142 -0.3240 -1.6909
  175MOL   H17745765   2.122   7.237   0.553 -0.4790  0.3701 -1.0043
  175MOL   H17845766   2.007   7.202   0.271  2.4293  0.8941  0.6489
  175MOL   H17945767   2.005   7.420   0.583  0.6008 -0.5476 -0.0811
  175MOL   H18045768   1.873   7.283   0.602 -0.7843  0.4009  0.7056
  175MOL   H18145769   1.841   7.455   0.565  1.5831  1.0904  1.6968
  175MOL   H18245770   1.787   7.306   0.238  5.0081  0.2433 -1.2882
  175MOL   H18345771   1.810   7.482   0.279 -1.2682 -0.2737 -1.1593
  175MOL   C18445772   1.654   7.375   0.369 -0.5951  0.4442 -0.2995
  175MOL   C18545773   1.548   7.392   0.258  0.2885 -0.3563  0.6088
  175MOL   C18645774   1.471   7.501   0.231 -0.1933 -0.0212  0.6016
  175MOL   C18745775   1.391   7.500   0.108 -0.4853 -0.2864  0.1273
  175MOL   C18845776   1.454   7.615   0.327  0.7174  0.2238  0.1582
  175MOL   H18945777   1.628   7.451   0.443 -0.9957  0.5044 -0.5026
  175MOL   H19045778   1.626   7.281   0.417 -0.4974  0.2966 -0.5351
  175MOL   H19145779   1.529   7.315   0.185  0.8465  0.6043 -0.5699
  175MOL   H19245780   1.284   7.483   0.121 -0.6768  0.9374  0.1801
  175MOL   H19345781   1.426   7.419   0.044  1.2898 -0.4231  1.2315
  175MOL   H19445782   1.397   7.593   0.053 -1.4241 -1.5708 -2.2210
  175MOL   H19545783   1.427   7.704   0.270  0.1558 -0.5066 -0.7282
  175MOL   H19645784   1.547   7.644   0.376  0.7426  1.2155 -0.4543
  175MOL   C19745785   1.345   7.576   0.428  0.9263 -0.2189  0.3855
  175MOL   C19845786   1.320   7.690   0.523 -0.3548  0.5884 -0.1715
  175MOL   C19945787   1.220   7.705   0.609  0.8546 -0.0510  1.1095
  175MOL   C20045788   1.210   7.833   0.696  0.1051  0.0720 -0.4657
  175MOL   C20145789   1.099   7.609   0.627 -0.4659 -0.5714  0.2171
  175MOL   H20245790   1.373   7.483   0.477  0.1077  0.4687  2.1957
  175MOL   H20345791   1.255   7.536   0.381  2.1238 -0.4282 -1.7660
  175MOL   H20445792   1.386   7.775   0.518 -0.8520  0.9932  0.0758
  175MOL   H20545793   1.228   7.798   0.798  2.8039  1.3787 -0.4658
  175MOL   H20645794   1.119   0.013   0.687  0.2508  0.2585 -0.7221
  175MOL   H20745795   1.297   0.020   0.691  0.4378 -0.4443 -1.6205
  175MOL   H20845796   1.144   7.515   0.594  1.9836  0.4198  0.7031
  175MOL   H20945797   1.022   7.643   0.557  0.0887  0.2581  0.0052
  175MOL   C21045798   1.047   7.586   0.774  0.2653 -0.1782 -0.4389
  175MOL   C21145799   0.957   7.465   0.793 -0.1702  0.2036 -0.0132
  175MOL   C21245800   0.830   7.447   0.740  0.4869 -0.1582  0.6770
  175MOL   C21345801   0.748   7.321   0.772  0.1011 -0.8002  0.0395
  175MOL   C21445802   0.765   7.546   0.648 -0.3940 -0.4095  0.0317
  175MOL   H21545803   0.995   7.675   0.810  0.6787  0.2234 -0.8196
  175MOL   H21645804   1.130   7.572   0.844  0.2053  0.0665 -0.3179
  175MOL   H21745805   1.000   7.389   0.857  1.4444  1.6536  0.6464
  175MOL   H21845806   0.792   7.285   0.865  0.7136  0.9880  0.4613
  175MOL   H21945807   0.765   7.251   0.690  0.0309 -0.0483 -0.6176
  175MOL   H22045808   0.642   7.332   0.790  0.3795  2.1387  0.1301
  175MOL   H22145809   0.799   7.649   0.651 -1.2610 -0.1134  0.0476
  175MOL   H22245810   0.666   7.547   0.695  0.4072 -0.4983  1.7575
  175MOL   C22345811   0.759   7.502   0.506  0.3635  0.4193 -0.3301
  175MOL   C22445812   0.764   7.605   0.392  0.2125  0.0489  0.6028
  175MOL   C22545813   0.845   7.601   0.288 -0.7081  0.3568  0.0327
  175MOL   C22645814   0.832   7.712   0.188  0.1015 -0.1757  0.1902
  175MOL   C22745815   0.964   7.511   0.263  0.9553  0.0645  0.1826
  175MOL   H22845816   0.668   7.444   0.492  0.5259  0.3465 -1.1070
  175MOL   H22945817   0.829   7.420   0.488  0.2789  0.3797 -0.4811
  175MOL   H23045818   0.690   7.683   0.399 -0.6799 -0.8322  1.0885
  175MOL   H23145819   0.748   7.770   0.225  0.6636  0.5433  0.3495
  175MOL   H23245820   0.798   7.676   0.091 -0.1320 -0.0508  0.2267
  175MOL   H23345821   0.915   7.775   0.155 -0.4461 -0.2178 -1.2942
  175MOL   H23445822   0.995   7.484   0.364  1.7816  1.0121  0.1820
  175MOL   H23545823   1.055   7.558   0.227 -0.1250 -0.0374 -2.8152
  175MOL   C23645824   0.921   7.397   0.165  0.7273  0.1438  0.6466
  175MOL   C23745825   1.024   7.295   0.141 -0.8476  0.0377  0.0235
  175MOL   C23845826   1.075   7.202   0.224  0.7748  0.2832 -0.4883
  175MOL   C23945827   1.175   7.101   0.174 -0.5790  0.0641  0.4649
  175MOL   C24045828   1.035   7.187   0.375  0.4454 -0.1952 -0.3428
  175MOL   H24145829   0.896   7.454   0.075 -0.3653  0.6622  1.2842
  175MOL   H24245830   0.827   7.356   0.201 -1.1441  1.6270 -2.3161
  175MOL   H24345831   1.060   7.297   0.039  2.1802  2.9117  1.0485
  175MOL   H24445832   1.233   7.147   0.094  1.2935  0.7617  2.2043
  175MOL   H24545833   1.126   7.007   0.149  2.6360 -1.7416  0.7020
  175MOL   H24645834   1.246   7.080   0.254 -1.0540  0.8822  1.1102
  175MOL   H24745835   1.005   7.083   0.389 -0.1785  0.2862  1.9976
  175MOL   H24845836   0.948   7.251   0.389  0.4596 -0.3773  0.5480
  175MOL   C24945837   1.149   7.238   0.469  0.0893  0.0408 -0.4399
  175MOL   C25045838   1.125   7.180   0.609  0.3925 -0.0667  0.9709
  175MOL   C25145839   1.216   7.155   0.706  0.2380 -0.0951 -0.4654
  175MOL   C25245840   1.183   7.087   0.840  0.3623 -0.3247 -0.3367
  175MOL   C25345841   1.364   7.199   0.690  0.1107 -0.6001  0.0231
  175MOL   H25445842   1.148   7.347   0.473 -0.1262 -0.0094  1.9030
  175MOL   H25545843   1.248   7.203   0.437 -1.0390 -1.1414 -2.7357
  175MOL   H25645844   1.023   7.152   0.631 -0.3301  2.3574  0.8916
  175MOL   H25745845   1.221   7.130   0.933 -1.3077  0.4136  0.0180
  175MOL   H25845846   1.217   6.984   0.832 -0.1281 -0.4187 -1.3081
  175MOL   H25945847   1.075   7.081   0.846  0.4111  0.2707  1.2829
  175MOL   H26045848   1.379   7.277   0.764 -0.0937  2.0800 -2.6445
  175MOL   H26145849   1.396   7.234   0.592  2.4270 -0.5992  0.7578
  175MOL   H26245850   1.424   7.109   0.705 -1.6085 -2.0374 -1.4145
  176MOL     C145851   2.448   3.133   2.374 -0.2745  0.3046  0.1998
  176MOL     C245852   2.458   3.277   2.341 -0.5355  0.2788  0.2219
  176MOL     C345853   2.465   3.383   2.432  0.1895  0.3411 -0.0213
  176MOL     C445854   2.465   3.525   2.379  0.3376 -0.2649  0.5383
  176MOL     C545855   2.450   3.373   2.586 -0.9271 -0.7000  0.0920
  176MOL     H645856   2.446   3.102   2.478 -2.9012  0.5893  0.2712
  176MOL     H745857   2.359   3.084   2.335  1.8280 -2.9646 -0.7341
  176MOL     H845858   2.471   3.296   2.235 -0.2087  0.2851  0.2642
  176MOL     H945859   2.463   3.531   2.270 -0.9953  1.2208  0.6141
  176MOL    H1045860   2.555   3.573   2.416  0.2638  0.3049 -0.0194
  176MOL    H1145861   2.373   3.567   2.419 -0.9656 -1.8023 -0.7324
  176MOL    H1245862   2.530   3.427   2.636  1.1060 -1.6097 -2.0970
  176MOL    H1345863   2.459   3.270   2.621  0.7424 -0.6909 -0.2548
  176MOL    H1445864   2.539   3.087   2.334 -0.9890 -1.8302  0.9654
  176MOL    C1545865   2.311   3.420   2.650  0.2873  0.4351  0.0170
  176MOL    C1645866   2.284   3.356   2.781  0.6785 -1.1936 -0.1288
  176MOL    C1745867   2.236   3.411   2.896 -0.3128 -0.2696 -0.2080
  176MOL    C1845868   2.199   3.333   3.020 -0.0368  0.4003 -0.2885
  176MOL    C1945869   2.212   3.563   2.919  0.1774 -0.2911  0.8955
  176MOL    H2045870   2.226   3.390   2.589  0.6478  1.4898 -1.0139
  176MOL    H2145871   2.310   3.528   2.638  1.4392  0.4923  0.2899
  176MOL    H2245872   2.311   3.252   2.798  0.0706 -1.3864 -0.3562
  176MOL    H2345873   2.248   3.380   3.106  1.3959 -2.4669  0.5250
  176MOL    H2445874   2.238   3.232   3.010  0.6914  0.7044 -0.5910
  176MOL    H2545875   2.091   3.325   3.034 -0.1320  0.8229 -0.7729
  176MOL    H2645876   2.201   3.616   2.825 -0.5164 -0.0648  1.1001
  176MOL    H2745877   2.308   3.593   2.962  1.3479 -0.4605 -1.5423
  176MOL    C2845878   2.092   3.601   3.009  0.0324 -0.3748  0.3798
  176MOL    C2945879   2.072   3.747   3.022 -0.5046 -0.0219  0.1886
  176MOL    C3045880   2.076   3.826   3.138  0.3370 -0.6839  0.1940
  176MOL    C3145881   2.040   3.971   3.118 -0.0139 -0.9827 -0.2154
  176MOL    C3245882   2.077   3.770   3.280 -0.0971  0.2901  0.3753
  176MOL    H3345883   2.099   3.554   3.107 -0.6186 -0.2795  0.4698
  176MOL    H3445884   2.001   3.565   2.962  2.1232 -1.9094 -2.6726
  176MOL    H3545885   2.041   3.789   2.927  1.7339  1.0271 -0.1104
  176MOL    H3645886   1.931   3.974   3.126 -0.0240  0.1851 -0.5827
  176MOL    H3745887   2.063   3.998   3.015  1.0883 -2.1961 -0.2953
  176MOL    H3845888   2.071   4.040   3.196  1.6310 -0.5782 -1.1913
  176MOL    H3945889   2.149   3.828   3.337 -1.6315  0.3521  2.3044
  176MOL    H4045890   2.109   3.667   3.297  2.1944  0.7727 -0.7578
  176MOL    C4145891   1.945   3.807   3.354 -0.5220  0.3644 -0.6790
  176MOL    C4245892   1.967   3.781   3.501  0.3345  0.5882 -0.0347
  176MOL    C4345893   1.905   3.688   3.575  0.9610 -0.2591  0.1621
  176MOL    C4445894   1.947   3.667   3.717 -0.3584 -0.0633 -1.0353
  176MOL    C4545895   1.797   3.592   3.528  0.1557 -0.1661 -0.0117
  176MOL    H4645896   1.860   3.748   3.319 -0.8029 -0.3560  1.1493
  176MOL    H4745897   1.922   3.913   3.347  0.4875  0.3907 -4.2195
  176MOL    H4845898   2.045   3.836   3.551  0.5978 -0.2738  0.5127
  176MOL    H4945899   2.028   3.735   3.742  1.2149 -2.5626  0.9475
  176MOL    H5045900   1.982   3.564   3.726 -1.5386 -0.4753 -1.0159
  176MOL    H5145901   1.867   3.695   3.786 -0.5650 -2.3104 -0.3266
  176MOL    H5245902   1.737   3.630   3.446  0.4806 -2.0942 -1.1560
  176MOL    H5345903   1.726   3.557   3.603  0.7825 -0.6126  0.3874
  176MOL    C5445904   1.869   3.467   3.483 -0.0709  0.2069  0.2401
  176MOL    C5545905   1.770   3.369   3.414 -0.8368 -0.1243  0.2292
  176MOL    C5645906   1.752   3.356   3.281 -0.0287 -0.5152  0.3346
  176MOL    C5745907   1.663   3.241   3.228 -1.2774  0.1749  0.3054
  176MOL    C5845908   1.794   3.453   3.180 -0.9480  0.6208  1.0406
  176MOL    H5945909   1.910   3.420   3.573  2.1105  1.0661 -0.2660
  176MOL    H6045910   1.958   3.502   3.430  1.8647 -1.3182  2.3557
  176MOL    H6145911   1.738   3.284   3.473  1.1003 -1.9202 -1.2364
  176MOL    H6245912   1.704   3.206   3.134 -1.8955  0.7713 -0.1912
  176MOL    H6345913   1.563   3.281   3.210 -0.9428  0.6956 -0.3805
  176MOL    H6445914   1.664   3.153   3.293 -2.2893  1.1173  1.6531
  176MOL    H6545915   1.840   3.406   3.093  0.9080 -0.0792  2.3569
  176MOL    H6645916   1.883   3.502   3.220  0.8073 -1.3792 -0.3093
  176MOL    C6745917   1.688   3.554   3.147  0.2057 -0.7808  0.5357
  176MOL    C6845918   1.719   3.639   3.030 -0.0916  0.5891  0.2408
  176MOL    C6945919   1.659   3.648   2.914 -0.2707  0.7101 -0.3652
  176MOL    C7045920   1.703   3.743   2.801  0.1463 -0.0096  0.0551
  176MOL    C7145921   1.528   3.584   2.883  0.1621 -0.4021  0.2061
  176MOL    H7245922   1.646   3.623   3.220 -1.3121  0.6836 -1.6359
  176MOL    H7345923   1.599   3.500   3.113  0.5132  0.6576 -2.7370
  176MOL    H7445924   1.808   3.698   3.047  0.3259 -0.1153  0.5209
  176MOL    H7545925   1.746   3.700   2.711 -1.2510 -0.3207 -0.4668
  176MOL    H7645926   1.782   3.810   2.836 -1.8325  1.5579  1.6679
  176MOL    H7745927   1.626   3.818   2.780 -0.4413 -0.7998 -0.6389
  176MOL    H7845928   1.513   3.486   2.926 -1.6286  1.1414  3.2790
  176MOL    H7945929   1.522   3.557   2.777  0.6676  0.9194 -0.1755
  176MOL    C8045930   1.409   3.684   2.911  0.2910  0.4227  0.3653
  176MOL    C8145931   1.278   3.611   2.888 -0.2007  0.6389  0.1574
  176MOL    C8245932   1.170   3.645   2.814 -0.3435 -0.2542  0.2649
  176MOL    C8345933   1.153   3.775   2.743  0.3342 -0.1771 -0.6295
  176MOL    C8445934   1.048   3.546   2.813 -0.7514 -0.5977 -0.1161
  176MOL    H8545935   1.410   3.760   2.832 -1.1764  0.3041  0.2186
  176MOL    H8645936   1.407   3.735   3.008 -2.6313  0.9086  0.0750
  176MOL    H8745937   1.279   3.516   2.939  1.1061 -0.3390 -1.6349
  176MOL    H8845938   1.118   3.748   2.643  3.5806 -2.5148 -1.2469
  176MOL    H8945939   1.240   3.837   2.721  0.5172 -0.1293  0.2073
  176MOL    H9045940   1.078   3.827   2.803 -0.0981 -1.3822 -0.1010
  176MOL    H9145941   1.096   3.453   2.845  1.0624  0.4072  0.1438
  176MOL    H9245942   0.997   3.535   2.717 -2.5471  0.2934  0.7329
  176MOL    C9345943   0.941   3.586   2.919 -0.2089  0.3311  0.1213
  176MOL    C9445944   0.840   3.465   2.915  0.1945  0.2706 -0.7386
  176MOL    C9545945   0.777   3.416   3.026  0.0276 -1.3054 -0.1575
  176MOL    C9645946   0.678   3.298   3.008  0.7266 -0.2170 -0.7332
  176MOL    C9745947   0.784   3.477   3.166 -0.0400 -0.1404 -0.5956
  176MOL    H9845948   0.910   3.684   2.883  2.4092 -0.0607 -3.5048
  176MOL    H9945949   0.980   3.600   3.020  2.7041 -0.1819 -0.8729
  176MOL   H10045950   0.828   3.415   2.821  0.5620 -1.0192 -0.1053
  176MOL   H10145951   0.659   3.262   2.907 -0.3359 -0.3922 -0.4762
  176MOL   H10245952   0.726   3.211   3.053  1.6905  1.2069  1.0777
  176MOL   H10345953   0.586   3.327   3.058 -1.1453 -1.4124 -3.4194
  176MOL   H10445954   0.696   3.457   3.227  0.5500 -0.1433  0.2659
  176MOL   H10545955   0.796   3.585   3.163 -1.0455 -0.0514 -1.6182
  176MOL   C10645956   0.904   3.419   3.250  0.3172 -0.3450 -0.0287
  176MOL   C10745957   0.918   3.517   3.365 -0.3225  0.1206  0.3145
  176MOL   C10845958   0.913   3.481   3.497 -0.6505 -0.3175  0.1766
  176MOL   C10945959   0.884   3.345   3.558  0.5057  0.6101 -0.3818
  176MOL   C11045960   0.944   3.588   3.598  0.1070 -0.2110  0.2985
  176MOL   H11145961   1.001   3.421   3.200  0.1444 -1.0341 -0.4086
  176MOL   H11245962   0.899   3.318   3.290 -0.3918 -0.2969  0.0070
  176MOL   H11345963   0.950   3.616   3.337  0.9091 -0.0919  0.9230
  176MOL   H11445964   0.795   3.337   3.621  2.0552 -1.8122  1.5893
  176MOL   H11545965   0.863   3.267   3.485  1.5719 -0.6970  0.6940
  176MOL   H11645966   0.968   3.311   3.618 -1.0778 -1.2335  0.8589
  176MOL   H11745967   1.009   3.664   3.555 -1.1799  1.9511  2.0547
  176MOL   H11845968   1.016   3.549   3.671  0.5573  1.9842  1.0774
  176MOL   C11945969   0.827   3.654   3.675 -0.3889 -0.0222  0.2382
  176MOL   C12045970   0.732   3.727   3.586  0.8466 -0.2716  0.0342
  176MOL   C12145971   0.604   3.700   3.548  0.1136 -0.0267  0.0189
  176MOL   C12245972   0.535   3.796   3.450 -0.5145 -0.5286 -0.8106
  176MOL   C12345973   0.531   3.569   3.592 -0.8351 -0.0563  0.0516
  176MOL   H12445974   0.845   3.739   3.740  0.2509 -0.7542  1.0324
  176MOL   H12545975   0.775   3.574   3.729 -2.7822  1.0415 -0.4170
  176MOL   H12645976   0.775   3.822   3.557  0.9147 -0.4430 -0.4362
  176MOL   H12745977   0.502   3.735   3.366  2.3501 -3.0128 -0.2063
  176MOL   H12845978   0.612   3.869   3.426 -0.9542  1.2463  2.7958
  176MOL   H12945979   0.454   3.853   3.496  0.5712  0.0297  0.4111
  176MOL   H13045980   0.606   3.496   3.622 -1.6458 -0.7608  0.4105
  176MOL   H13145981   0.478   3.535   3.503 -1.5291  1.5998 -0.1844
  176MOL   C13245982   0.435   3.595   3.708 -0.3078  0.2303  0.0696
  176MOL   C13345983   0.375   3.460   3.759 -0.3519 -0.2049  0.1487
  176MOL   C13445984   0.243   3.431   3.773 -0.0709 -0.4760  0.1682
  176MOL   C13545985   0.195   3.286   3.798  0.4601  0.1870 -0.0537
  176MOL   C13645986   0.136   3.538   3.764  1.5130 -0.4430 -0.8689
  176MOL   H13745987   0.359   3.664   3.670  0.0345  0.6597  0.1606
  176MOL   H13845988   0.492   3.641   3.788  1.1732  0.4087 -1.0750
  176MOL   H13945989   0.449   3.384   3.777 -3.7890 -3.5395  0.7008
  176MOL   H14045990   0.261   3.214   3.750  0.6223  0.2659  0.0507
  176MOL   H14145991   0.098   3.268   3.751 -0.0050  0.1906  0.8850
  176MOL   H14245992   0.180   3.271   3.905 -1.0195  0.6366 -0.1803
  176MOL   H14345993   0.182   3.634   3.787  1.0117 -0.4651  0.2463
  176MOL   H14445994   0.060   3.514   3.838  1.2348  1.1392 -0.6227
  176MOL   C14545995   0.058   3.540   3.634  0.0983  0.1614 -0.8625
  176MOL   C14645996   7.803   3.622   3.638 -0.0922  1.0847  0.6349
  176MOL   C14745997   7.784   3.749   3.595 -0.6240  0.3333 -0.2158
  176MOL   C14845998   7.641   3.806   3.599  0.9705  0.2761 -0.1424
  176MOL   C14945999   0.014   3.831   3.529 -0.0060  0.0331 -0.2480
  176MOL   H15046000   0.038   3.439   3.599  0.7393  0.2181 -1.3853
  176MOL   H15146001   0.126   3.579   3.559 -0.8176  3.1820 -0.1996
  176MOL   H15246002   7.715   3.577   3.680 -1.3786  0.4638 -2.5941
  176MOL   H15346003   7.606   3.829   3.499 -1.2626  4.4382  1.4540
  176MOL   H15446004   7.635   3.897   3.659 -0.5288  0.3873 -0.4658
  176MOL   H15546005   7.569   3.741   3.648 -0.7016  1.5528 -0.8575
  176MOL   H15646006   0.115   3.794   3.550  0.3178 -0.2049 -2.1398
  176MOL   H15746007   0.019   3.932   3.570 -1.3000  0.9729 -2.3233
  176MOL   C15846008   7.867   3.853   3.377 -0.6359  0.2927  0.2140
  176MOL   C15946009   0.104   3.931   3.308  0.8596  0.0498 -0.4427
  176MOL   C16046010   0.191   3.886   3.220  0.1935  0.0185  0.6968
  176MOL   C16146011   0.204   3.729   3.198 -1.2071  0.5378 -0.3513
  176MOL   C16246012   0.297   3.977   3.157 -0.1609  0.9841  0.5898
  176MOL   H16346013   7.776   3.911   3.362 -1.9421 -0.9691  2.9126
  176MOL   H16446014   7.850   3.754   3.334 -1.9672  1.4074 -1.8848
  176MOL   H16546015   0.101   4.038   3.326  1.1686  0.1828 -1.1740
  176MOL   H16646016   0.180   3.682   3.293 -0.1774  0.7687  0.0298
  176MOL   H16746017   0.306   3.706   3.169 -0.5027  0.9330  1.7006
  176MOL   H16846018   0.135   3.706   3.118 -2.3109  0.9453  0.4653
  176MOL   H16946019   0.393   3.959   3.205 -0.3340  0.8251  0.8766
  176MOL   H17046020   0.280   4.082   3.178  1.6773  1.4310 -0.0289
  176MOL   C17146021   0.322   3.942   3.003 -0.5243 -1.1823  0.5609
  176MOL   C17246022   0.445   4.002   2.930  0.8558 -0.2254  0.6265
  176MOL   C17346023   0.537   3.936   2.853  0.0594  0.3977 -0.5833
  176MOL   C17446024   0.546   3.780   2.847  0.4602 -0.5732  0.2746
  176MOL   C17546025   0.655   4.004   2.785  0.5711  0.2236 -0.5021
  176MOL   H17646026   0.235   3.961   2.940  0.8195 -0.7445 -1.1825
  176MOL   H17746027   0.332   3.834   2.998 -1.9413 -1.3050  0.2248
  176MOL   H17846028   0.461   4.109   2.928 -0.0319 -0.0917  0.7616
  176MOL   H17946029   0.636   3.756   2.903 -0.8326 -0.7125  2.3637
  176MOL   H18046030   0.546   3.762   2.740  3.3208  0.6481  0.0466
  176MOL   H18146031   0.467   3.716   2.888 -0.0590 -1.1033 -1.5055
  176MOL   H18246032   0.740   3.940   2.809  1.2030  1.5039  0.7201
  176MOL   H18346033   0.675   4.103   2.827 -0.2469 -0.3348  1.2165
  176MOL   C18446034   0.649   3.999   2.631  0.3337 -0.2634  0.2354
  176MOL   C18546035   0.723   4.112   2.553  0.5449 -0.3622 -0.9127
  176MOL   C18646036   0.847   4.105   2.500 -1.0600  0.0041  0.1248
  176MOL   C18746037   0.908   4.230   2.431 -0.5427  0.2348 -0.4402
  176MOL   C18846038   0.933   3.978   2.503 -0.4372 -0.0979  0.2737
  176MOL   H18946039   0.543   4.006   2.603  0.3896  0.9367  0.2932
  176MOL   H19046040   0.669   3.899   2.591 -0.4926 -0.2586 -0.2199
  176MOL   H19146041   0.660   4.199   2.543  0.3954 -0.2164  1.0774
  176MOL   H19246042   0.910   4.230   2.322 -1.3429 -0.5110 -0.4643
  176MOL   H19346043   1.000   4.257   2.483 -0.2514 -0.2616 -0.6940
  176MOL   H19446044   0.831   4.307   2.442 -0.2357  0.4268  0.4635
  176MOL   H19546045   0.891   3.912   2.579 -2.4269  0.7144 -0.1016
  176MOL   H19646046   1.032   4.013   2.533  0.2539 -0.9898 -0.9242
  176MOL   C19746047   0.945   3.907   2.368  0.4553 -0.5578 -0.1101
  176MOL   C19846048   1.030   3.782   2.374  0.5849 -0.6495  0.1262
  176MOL   C19946049   0.985   3.653   2.383  0.8923 -0.0348  0.2009
  176MOL   C20046050   1.081   3.541   2.389  0.6129  0.3064 -0.5481
  176MOL   C20146051   0.836   3.620   2.376  0.5113  0.5788 -0.1245
  176MOL   H20246052   1.000   3.976   2.304 -1.9021  0.0461 -1.5440
  176MOL   H20346053   0.849   3.888   2.320  0.8186  1.8573 -1.9064
  176MOL   H20446054   1.137   3.797   2.373  0.3786  0.9715  0.2051
  176MOL   H20546055   1.140   3.537   2.297 -1.3276  1.1580 -1.8661
  176MOL   H20646056   1.037   3.445   2.413 -0.7055  1.3858  1.4334
  176MOL   H20746057   1.145   3.564   2.474  1.0433 -0.1266 -0.7536
  176MOL   H20846058   0.777   3.706   2.409 -0.7427 -0.1491 -0.4475
  176MOL   H20946059   0.814   3.552   2.458  0.7880  0.9341  0.2490
  176MOL   C21046060   0.795   3.585   2.229 -0.6089  0.5680 -0.2347
  176MOL   C21146061   0.878   3.484   2.160 -0.7860  0.6230 -0.3756
  176MOL   C21246062   0.957   3.501   2.049  0.1322 -0.0053 -0.8705
  176MOL   C21346063   1.028   3.388   1.972 -0.1347 -0.2859 -1.1834
  176MOL   C21446064   0.989   3.631   1.981  0.5037 -0.8100  0.3529
  176MOL   H21546065   0.795   3.667   2.157 -0.3397 -0.9809 -2.0592
  176MOL   H21646066   0.693   3.546   2.227  0.1243 -1.3949 -0.5428
  176MOL   H21746067   0.863   3.385   2.200 -1.5299  0.8171 -0.1640
  176MOL   H21846068   0.975   3.295   1.994 -1.3332  0.5794 -0.3710
  176MOL   H21946069   1.136   3.381   1.987 -0.2168 -0.6817 -0.7894
  176MOL   H22046070   1.012   3.399   1.865 -0.7590  1.5070 -0.9253
  176MOL   H22146071   1.097   3.643   1.983  0.3196  0.9765  0.3968
  176MOL   H22246072   0.952   3.704   2.053 -1.1828 -2.0132  0.7350
  176MOL   C22346073   0.920   3.645   1.842 -0.4793  0.4502 -0.1910
  176MOL   C22446074   0.957   3.773   1.775  0.4795  0.2812  0.4951
  176MOL   C22546075   1.035   3.781   1.665  0.4991  0.5578 -0.4048
  176MOL   C22646076   1.058   3.920   1.614  0.6459 -0.1164 -0.3105
  176MOL   C22746077   1.105   3.667   1.600 -0.0640  0.9981  0.1097
  176MOL   H22846078   0.812   3.642   1.859 -0.7551  0.0780 -1.8491
  176MOL   H22946079   0.944   3.562   1.775 -1.7391  0.2192 -0.3758
  176MOL   H23046080   0.914   3.861   1.820  0.9586  0.5183  0.4958
  176MOL   H23146081   1.003   3.996   1.670  1.3901  0.6187 -0.5503
  176MOL   H23246082   1.038   3.935   1.508 -1.3003  3.3092  0.4620
  176MOL   H23346083   1.164   3.941   1.628  0.8759  0.1285 -2.3048
  176MOL   H23446084   1.118   3.586   1.672  0.6558  0.0426 -1.0736
  176MOL   H23546085   1.204   3.700   1.566 -0.2304 -0.9426 -2.3888
  176MOL   C23646086   1.026   3.613   1.482 -0.5950  0.8715 -0.1663
  176MOL   C23746087   1.104   3.511   1.402  0.4161  0.2920 -0.0737
  176MOL   C23846088   1.070   3.385   1.368  0.2695 -0.0257  0.1957
  176MOL   C23946089   1.168   3.305   1.281 -0.7397  0.4733  0.3588
  176MOL   C24046090   0.930   3.326   1.395 -0.3462  0.3379 -0.5074
  176MOL   H24146091   1.002   3.700   1.422 -0.6570  0.1662 -1.1816
  176MOL   H24246092   0.926   3.585   1.516 -1.6629  3.3462 -1.2208
  176MOL   H24346093   1.195   3.555   1.363  1.5526 -0.6906  1.3983
  176MOL   H24446094   1.118   3.265   1.193  1.1459 -2.2961  0.5147
  176MOL   H24546095   1.226   3.224   1.325  0.0971 -1.3783 -3.9520
  176MOL   H24646096   1.248   3.362   1.234  0.8982 -1.6008  0.5922
  176MOL   H24746097   0.907   3.278   1.300  2.1530  1.8565 -1.9422
  176MOL   H24846098   0.853   3.403   1.403 -0.0142  0.7297 -0.9950
  176MOL   C24946099   0.938   3.229   1.505 -0.2988  0.3575  0.1595
  176MOL   C25046100   0.820   3.146   1.498 -0.3908  0.2536 -0.3686
  176MOL   C25146101   0.738   3.115   1.598 -0.0403  0.2953  0.5360
  176MOL   C25246102   0.612   3.038   1.582 -0.1121  0.3752 -0.1112
  176MOL   C25346103   0.751   3.166   1.741 -0.9631 -0.2021  0.5590
  176MOL   H25446104   0.956   3.278   1.601 -3.7377 -1.0254  1.5670
  176MOL   H25546105   1.026   3.167   1.485 -1.4178 -0.9145 -0.8667
  176MOL   H25646106   0.818   3.093   1.404  1.9840 -0.0647 -0.2527
  176MOL   H25746107   0.602   2.988   1.485 -1.5988  1.6580 -0.6365
  176MOL   H25846108   0.518   3.091   1.596 -1.0634 -0.9522 -1.3257
  176MOL   H25946109   0.617   2.947   1.642  1.5481  2.2264  2.6379
  176MOL   H26046110   0.853   3.166   1.780 -0.7527 -1.4417  0.0433
  176MOL   H26146111   0.700   3.104   1.814 -1.8007 -1.3752 -0.9785
  176MOL   H26246112   0.710   3.267   1.743 -0.0199  0.1580  2.3249
  177MOL     C146113   4.328   2.582   6.348  0.0134 -0.0784  0.1743
  177MOL     C246114   4.317   2.720   6.393  0.1194  0.4056 -1.2691
  177MOL     C346115   4.340   2.765   6.519  0.4734  0.7030  0.0940
  177MOL     C446116   4.329   2.909   6.548 -0.8129 -0.2351 -0.2199
  177MOL     C546117   4.371   2.678   6.637  0.3902  0.8259 -1.1373
  177MOL     H646118   4.339   2.577   6.240  1.5181  2.2095  0.1897
  177MOL     H746119   4.414   2.527   6.384 -0.2391  0.4765  1.6607
  177MOL     H846120   4.289   2.793   6.318  0.0274  2.1886  0.4516
  177MOL     H946121   4.318   2.972   6.459  1.3300  0.0223 -0.3417
  177MOL    H1046122   4.424   2.937   6.595 -2.2492  0.5311  2.3040
  177MOL    H1146123   4.250   2.927   6.620 -2.0284 -1.6042 -1.2034
  177MOL    H1246124   4.463   2.712   6.683  0.6987  0.6288 -1.6076
  177MOL    H1346125   4.381   2.570   6.621 -0.5103  0.7326 -1.0895
  177MOL    H1446126   4.233   2.529   6.352  0.3030 -0.6554 -0.5108
  177MOL    C1546127   4.265   2.688   6.751 -0.2992 -0.6898 -0.5056
  177MOL    C1646128   4.295   2.581   6.853 -0.2153 -0.4350 -0.5620
  177MOL    C1746129   4.222   2.469   6.879 -0.4475 -0.2781 -0.1743
  177MOL    C1846130   4.264   2.368   6.988 -0.1708 -0.5925  0.2812
  177MOL    C1946131   4.086   2.445   6.817  0.5215 -0.2063 -0.4825
  177MOL    H2046132   4.164   2.669   6.716 -1.1014 -2.2741  2.5241
  177MOL    H2146133   4.259   2.791   6.786 -3.1850 -1.1808  0.5423
  177MOL    H2246134   4.386   2.589   6.910  0.6362  0.9374 -2.0546
  177MOL    H2346135   4.368   2.362   7.020 -0.1730 -0.9585  0.2230
  177MOL    H2446136   4.241   2.268   6.950  0.9092 -0.7024 -0.1241
  177MOL    H2546137   4.204   2.394   7.075  0.2400  0.9822  0.1058
  177MOL    H2646138   4.054   2.341   6.820 -0.0956 -0.0015  0.2429
  177MOL    H2746139   4.066   2.483   6.717  1.0487 -0.5784 -0.7366
  177MOL    C2846140   3.990   2.527   6.903  0.1510 -0.2506 -0.4811
  177MOL    C2946141   3.850   2.544   6.853  0.7063 -0.4969 -0.0498
  177MOL    C3046142   3.803   2.664   6.795  0.4659 -0.6847 -0.3186
  177MOL    C3146143   3.649   2.683   6.770 -0.1979 -0.2717  0.3445
  177MOL    C3246144   3.894   2.783   6.748  0.0893  0.3249 -0.1784
  177MOL    H3346145   4.039   2.622   6.922 -0.9258  0.4687 -1.2374
  177MOL    H3446146   3.982   2.482   7.003 -0.2826  1.4639  0.2777
  177MOL    H3546147   3.781   2.464   6.876 -0.8867  1.1128  0.9675
  177MOL    H3646148   3.604   2.754   6.839 -0.5459  0.7494 -0.9313
  177MOL    H3746149   3.594   2.590   6.786  0.2171 -0.5581  0.1296
  177MOL    H3846150   3.634   2.719   6.669 -0.7340  0.6619  0.7566
  177MOL    H3946151   3.897   2.776   6.640  0.3040 -0.7147 -0.1142
  177MOL    H4046152   3.999   2.765   6.772 -0.0555  0.7271  0.7916
  177MOL    C4146153   3.849   2.919   6.800 -0.1875  0.2562 -0.7271
  177MOL    C4246154   3.917   3.032   6.730  1.2277 -0.7716 -0.1282
  177MOL    C4346155   3.862   3.131   6.655 -0.5339 -0.4320  0.4156
  177MOL    C4446156   3.964   3.238   6.601  0.0261 -0.0422  0.0405
  177MOL    C4546157   3.723   3.179   6.630  0.0800  0.0446  0.2892
  177MOL    H4646158   3.862   2.927   6.907 -0.1961  0.4051 -0.7365
  177MOL    H4746159   3.744   2.938   6.777 -0.5823 -0.6927  0.2564
  177MOL    H4846160   4.024   3.017   6.726  1.2434 -0.3901 -1.1740
  177MOL    H4946161   3.983   3.215   6.496  4.3777  0.2077  0.6775
  177MOL    H5046162   4.057   3.220   6.654 -0.8053 -0.8447  1.2630
  177MOL    H5146163   3.925   3.338   6.620  0.7397 -0.1173  2.0907
  177MOL    H5246164   3.712   3.286   6.644 -2.0979  0.0669 -1.2309
  177MOL    H5346165   3.654   3.137   6.704 -1.7189 -0.4332 -1.6057
  177MOL    C5446166   3.667   3.167   6.484 -0.0195  0.4001 -0.3225
  177MOL    C5546167   3.616   3.024   6.462 -0.6704 -0.1078  0.5781
  177MOL    C5646168   3.613   2.956   6.339 -0.5492  0.3660 -0.6235
  177MOL    C5746169   3.562   2.811   6.330 -0.6020  0.1030 -0.4292
  177MOL    C5846170   3.661   3.018   6.208  0.4249 -0.1142  0.4532
  177MOL    H5946171   3.743   3.198   6.412  0.4182  0.5861  0.2111
  177MOL    H6046172   3.573   3.222   6.479 -0.8048 -0.8753  0.1828
  177MOL    H6146173   3.571   2.980   6.550  0.9106 -0.5048  1.2198
  177MOL    H6246174   3.535   2.780   6.431 -0.3339 -0.1642 -0.4387
  177MOL    H6346175   3.640   2.751   6.282  2.3423  2.3787  1.3732
  177MOL    H6446176   3.479   2.801   6.260 -0.6307  2.3632 -0.7435
  177MOL    H6546177   3.759   2.975   6.186 -1.1297 -2.1092 -2.9309
  177MOL    H6646178   3.680   3.125   6.219 -1.8186  0.8397 -3.7178
  177MOL    C6746179   3.556   2.996   6.092 -0.1695 -0.3234 -0.5266
  177MOL    C6846180   3.600   3.072   5.973  0.1121  0.2853 -0.2277
  177MOL    C6946181   3.608   3.028   5.846  0.6497 -0.6548 -0.9129
  177MOL    C7046182   3.652   3.123   5.737  0.5768  0.6150  0.2209
  177MOL    C7146183   3.553   2.899   5.792  0.8961  0.4479  1.3682
  177MOL    H7246184   3.460   3.037   6.127 -1.1831 -1.9531 -1.3482
  177MOL    H7346185   3.542   2.890   6.075  1.5779 -0.2378 -2.6715
  177MOL    H7446186   3.648   3.167   5.992  0.7127  0.0572 -0.6077
  177MOL    H7546187   3.736   3.082   5.681 -0.5886  0.6067 -1.5673
  177MOL    H7646188   3.690   3.215   5.780  2.3799  0.4712 -1.0208
  177MOL    H7746189   3.570   3.155   5.673  1.8422  0.9991 -1.2354
  177MOL    H7846190   3.589   2.816   5.853  1.0348 -0.7571 -0.3411
  177MOL    H7946191   3.608   2.879   5.700  1.3252 -1.1579  1.9643
  177MOL    C8046192   3.400   2.911   5.762 -0.1818  0.0444  0.4363
  177MOL    C8146193   3.334   2.781   5.704 -0.0681  0.2047 -0.6011
  177MOL    C8246194   3.209   2.778   5.655  0.4672  0.7238 -0.0067
  177MOL    C8346195   3.129   2.907   5.636 -0.0869 -0.7492 -0.1596
  177MOL    C8446196   3.144   2.649   5.603  0.2442 -0.3663 -0.4866
  177MOL    H8546197   3.380   2.992   5.692 -1.4175 -0.2647  0.4342
  177MOL    H8646198   3.348   2.934   5.855 -1.5803  0.8337 -0.5371
  177MOL    H8746199   3.392   2.691   5.717 -0.0469  0.1297 -1.1730
  177MOL    H8846200   3.112   2.933   5.532  0.6862  2.2480  0.4231
  177MOL    H8946201   3.168   2.994   5.689  2.6415 -0.3360 -2.7114
  177MOL    H9046202   3.031   2.890   5.681 -0.1164 -0.0426  0.0517
  177MOL    H9146203   3.222   2.573   5.592 -1.0804 -1.8355  0.0661
  177MOL    H9246204   3.109   2.672   5.502  1.1406  1.9339 -0.3032
  177MOL    C9346205   3.025   2.604   5.691 -0.2925 -0.1191  0.3658
  177MOL    C9446206   2.990   2.459   5.667 -0.2496 -0.1852  0.1549
  177MOL    C9546207   2.864   2.406   5.639 -0.2784 -0.2966 -0.4046
  177MOL    C9646208   2.848   2.256   5.620  0.7122  0.7579 -0.0881
  177MOL    C9746209   2.731   2.472   5.630  0.7914 -0.1839 -0.2152
  177MOL    H9846210   2.937   2.667   5.673 -0.5636 -0.2213  1.3180
  177MOL    H9946211   3.049   2.617   5.796  0.9916  0.5628 -0.0034
  177MOL   H10046212   3.076   2.394   5.660 -0.7900 -0.8337 -0.6698
  177MOL   H10146213   2.793   2.226   5.531 -1.3209  1.9803  0.7395
  177MOL   H10246214   2.950   2.222   5.600 -0.3794 -2.3960 -0.6474
  177MOL   H10346215   2.802   2.205   5.705 -1.6111  0.8988 -1.2275
  177MOL   H10446216   2.739   2.575   5.664 -4.1649  0.3531 -0.3308
  177MOL   H10546217   2.654   2.428   5.693 -0.3334  0.3382 -1.2115
  177MOL   C10646218   2.677   2.484   5.490 -0.1948  0.6603 -0.2627
  177MOL   C10746219   2.564   2.578   5.472 -0.0726  0.2387  0.3389
  177MOL   C10846220   2.438   2.543   5.492  1.4077 -0.2055  0.3840
  177MOL   C10946221   2.391   2.405   5.518  0.1305  0.7274  0.0855
  177MOL   C11046222   2.330   2.654   5.476 -0.2225  0.4363  0.3900
  177MOL   H11146223   2.656   2.389   5.440  1.3476  1.1165 -1.8217
  177MOL   H11246224   2.752   2.537   5.432  1.0462  0.6846  1.3341
  177MOL   H11346225   2.582   2.684   5.469 -0.9684  0.3861  0.1745
  177MOL   H11446226   2.356   2.353   5.429 -1.6780  0.9223  0.6675
  177MOL   H11546227   2.465   2.341   5.566 -2.1704 -0.2161  2.4788
  177MOL   H11646228   2.311   2.399   5.592  0.2933  1.8168  0.3581
  177MOL   H11746229   2.240   2.609   5.434 -0.0885 -0.1063  0.6745
  177MOL   H11846230   2.360   2.735   5.409 -0.0100  0.5278  0.5953
  177MOL   C11946231   2.301   2.712   5.611 -0.5427 -0.4479  0.0352
  177MOL   C12046232   2.218   2.840   5.602  0.6675 -0.0753  0.6405
  177MOL   C12146233   2.239   2.954   5.668  0.2389  0.6056  0.4027
  177MOL   C12246234   2.146   3.069   5.645 -0.2221  0.0643  0.2201
  177MOL   C12346235   2.355   2.974   5.760  0.0057  0.2291 -0.4978
  177MOL   H12446236   2.395   2.743   5.656 -0.1201  0.4165 -1.4098
  177MOL   H12546237   2.259   2.644   5.685 -1.6860  0.0953 -0.0994
  177MOL   H12646238   2.129   2.831   5.541  1.6083 -1.2885 -0.6128
  177MOL   H12746239   2.182   3.169   5.665 -1.6060  1.0665 -2.0657
  177MOL   H12846240   2.065   3.050   5.716  1.1587  1.3246  2.1752
  177MOL   H12946241   2.121   3.061   5.539 -2.7869 -2.7997  0.9708
  177MOL   H13046242   2.399   2.883   5.802 -0.6532  0.3454  0.4663
  177MOL   H13146243   2.315   3.019   5.851  0.8698 -0.4854  0.2397
  177MOL   C13246244   2.461   3.060   5.685 -0.2932 -0.2891  0.0663
  177MOL   C13346245   2.562   2.984   5.605  0.1287 -0.5615 -0.0514
  177MOL   C13446246   2.690   3.019   5.573 -0.2736 -0.2167  0.0469
  177MOL   C13546247   2.779   2.934   5.481  0.1664 -0.4423  0.2590
  177MOL   C13646248   2.763   3.142   5.624  0.0578  0.5730 -0.4318
  177MOL   H13746249   2.500   3.117   5.769  3.7286 -3.0109  0.1626
  177MOL   H13846250   2.410   3.123   5.612  0.0254 -0.1604 -0.0479
  177MOL   H13946251   2.534   2.890   5.559 -0.2533 -0.3432 -0.2645
  177MOL   H14046252   2.851   2.996   5.429 -1.6093  0.0961 -1.6039
  177MOL   H14146253   2.729   2.878   5.402 -1.5351  2.2447 -0.6152
  177MOL   H14246254   2.818   2.862   5.554 -1.4806 -0.1435  1.4590
  177MOL   H14346255   2.867   3.118   5.645 -0.2069  2.2251  3.1630
  177MOL   H14446256   2.720   3.171   5.720  0.3367 -1.5677  0.3752
  177MOL   C14546257   2.750   3.265   5.531  0.3948 -0.0876  0.2804
  177MOL   C14646258   2.848   3.381   5.565  0.1489 -0.7684 -0.2033
  177MOL   C14746259   2.829   3.505   5.525 -0.1154 -0.8397 -0.0264
  177MOL   C14846260   2.938   3.608   5.552  0.4290 -1.1200  0.0483
  177MOL   C14946261   2.711   3.564   5.444 -0.5568 -0.0742 -0.0620
  177MOL   H15046262   2.648   3.298   5.511  0.7016  0.1710 -0.9273
  177MOL   H15146263   2.784   3.227   5.435  0.3045 -0.1853  0.2868
  177MOL   H15246264   2.938   3.345   5.613 -0.5509 -3.3334 -0.7492
  177MOL   H15346265   3.026   3.575   5.609  2.2008  1.1559 -1.2776
  177MOL   H15446266   2.892   3.701   5.585  1.2417 -1.2932  1.7817
  177MOL   H15546267   2.986   3.634   5.458  0.6813 -0.5578  0.3272
  177MOL   H15646268   2.679   3.493   5.368  1.5718 -0.4692 -0.6235
  177MOL   H15746269   2.748   3.639   5.375 -0.8873  0.3951  0.2678
  177MOL   C15846270   2.605   3.631   5.528  0.4379 -0.4397  0.1588
  177MOL   C15946271   2.479   3.627   5.455 -0.0661  0.1291 -0.5443
  177MOL   C16046272   2.354   3.587   5.497  0.0445  0.6545 -0.4554
  177MOL   C16146273   2.337   3.525   5.638 -0.3758 -0.3745 -0.5466
  177MOL   C16246274   2.231   3.589   5.407 -0.5861 -0.0909  0.4962
  177MOL   H16346275   2.626   3.735   5.552  1.0563 -0.1959 -1.3677
  177MOL   H16446276   2.596   3.581   5.625 -0.1027  0.3470  0.5223
  177MOL   H16546277   2.487   3.670   5.356  1.0402  0.9594 -0.1099
  177MOL   H16646278   2.238   3.482   5.649  0.6790 -2.6344  0.3682
  177MOL   H16746279   2.356   3.592   5.721  1.9620 -2.3690  0.5912
  177MOL   H16846280   2.392   3.432   5.651 -1.6339 -1.3646 -2.0708
  177MOL   H16946281   2.196   3.487   5.394  3.7965 -1.5744 -0.6491
  177MOL   H17046282   2.275   3.624   5.313  0.1627  2.8627  1.8905
  177MOL   C17146283   2.119   3.677   5.449  0.1884  0.2955 -0.5363
  177MOL   C17246284   2.000   3.671   5.350 -0.3049 -0.0672  0.4595
  177MOL   C17346285   1.920   3.770   5.315 -0.2105  0.4320  0.3540
  177MOL   C17446286   1.933   3.909   5.368 -0.4392 -0.2197  0.0285
  177MOL   C17546287   1.823   3.752   5.196  0.0724 -0.0954  0.6780
  177MOL   H17646288   2.155   3.778   5.469 -2.7155  1.1922  0.5148
  177MOL   H17746289   2.083   3.635   5.543  1.3910  0.2783 -0.0694
  177MOL   H17846290   1.983   3.577   5.300  0.4736  1.6013 -3.1082
  177MOL   H17946291   1.970   3.984   5.298  2.7916 -2.6886 -1.0401
  177MOL   H18046292   2.011   3.918   5.443  1.6417  0.0770 -2.1127
  177MOL   H18146293   1.834   3.939   5.404 -0.5191  0.0210 -0.3919
  177MOL   H18246294   1.849   3.658   5.147  0.8953  0.1020  0.7303
  177MOL   H18346295   1.855   3.830   5.126 -0.3095 -0.7721 -0.2596
  177MOL   C18446296   1.676   3.758   5.226 -0.0131 -0.3001  0.2052
  177MOL   C18546297   1.588   3.748   5.099 -0.1501 -0.2072 -0.5993
  177MOL   C18646298   1.523   3.641   5.057 -0.1782  0.6681 -0.3031
  177MOL   C18746299   1.427   3.662   4.952  0.0468 -0.0803  0.0544
  177MOL   C18846300   1.548   3.496   5.100 -0.0563 -0.3421  0.1047
  177MOL   H18946301   1.653   3.858   5.261  1.9627  0.4147 -0.4779
  177MOL   H19046302   1.635   3.693   5.304 -3.2805  0.3265 -0.9303
  177MOL   H19146303   1.563   3.845   5.060  0.1367  1.1199  2.4115
  177MOL   H19246304   1.393   3.576   4.895  0.2792 -0.8450  1.0570
  177MOL   H19346305   1.467   3.720   4.869 -1.7040 -1.4818 -1.8141
  177MOL   H19446306   1.349   3.708   5.013 -1.5474  0.8890 -2.6088
  177MOL   H19546307   1.452   3.450   5.122 -1.1025  0.8474 -1.7783
  177MOL   H19646308   1.614   3.503   5.186 -1.3058  0.9915  0.9857
  177MOL   C19746309   1.613   3.414   4.987 -0.0329  0.1228 -0.1949
  177MOL   C19846310   1.613   3.270   5.010 -0.0337  0.3132 -0.1061
  177MOL   C19946311   1.612   3.170   4.920 -1.0404  0.0934  0.0268
  177MOL   C20046312   1.592   3.027   4.973 -0.1627 -0.1623  0.2415
  177MOL   C20146313   1.621   3.196   4.769  0.2241 -0.4207 -0.5447
  177MOL   H20246314   1.717   3.449   4.989  0.2145 -0.6115  0.2318
  177MOL   H20346315   1.563   3.428   4.892 -1.8513 -0.6008  0.6265
  177MOL   H20446316   1.628   3.242   5.113  1.9544  0.0380 -0.4388
  177MOL   H20546317   1.487   3.006   4.952 -0.9212  2.7701  0.9726
  177MOL   H20646318   1.595   3.011   5.080  0.5867  1.5053  0.4826
  177MOL   H20746319   1.657   2.950   4.931 -0.5538  0.1196 -0.8994
  177MOL   H20846320   1.634   3.302   4.745 -0.7952 -0.3858 -0.9587
  177MOL   H20946321   1.526   3.163   4.727  0.8192 -0.5711 -1.7853
  177MOL   C21046322   1.731   3.118   4.706 -0.0530 -0.1342  0.1283
  177MOL   C21146323   1.703   3.111   4.554  0.2209 -0.2665 -0.3264
  177MOL   C21246324   1.782   3.161   4.459  0.3488  0.2446 -0.0739
  177MOL   C21346325   1.777   3.108   4.321 -0.1694 -0.1450  0.2216
  177MOL   C21446326   1.897   3.253   4.492 -0.4431  0.1476  0.7817
  177MOL   H21546327   1.738   3.019   4.751 -0.6894 -0.5359 -0.6531
  177MOL   H21646328   1.817   3.176   4.739  1.2110 -1.3694 -0.8731
  177MOL   H21746329   1.624   3.046   4.520  1.3508 -0.5016 -2.6000
  177MOL   H21846330   1.716   3.175   4.262  0.1136  1.2267  1.4660
  177MOL   H21946331   1.727   3.012   4.313  1.6568 -1.1398  0.2959
  177MOL   H22046332   1.882   3.114   4.293  0.3871 -1.0616  2.0101
  177MOL   H22146333   1.881   3.309   4.583  2.4640 -0.6466  1.8393
  177MOL   H22246334   1.918   3.317   4.406 -2.0443 -1.1591 -0.6256
  177MOL   C22346335   2.028   3.166   4.521 -0.4978 -0.1457 -0.4283
  177MOL   C22446336   2.150   3.244   4.571  0.1579  0.0098  0.7613
  177MOL   C22546337   2.215   3.230   4.690  0.5668 -0.5100 -0.2860
  177MOL   C22646338   2.324   3.335   4.725 -0.6066 -0.1126 -0.0003
  177MOL   C22746339   2.184   3.139   4.803  0.8480 -0.4236  0.0042
  177MOL   H22846340   2.056   3.106   4.434 -0.6226  1.3369 -1.4981
  177MOL   H22946341   1.988   3.105   4.601 -0.5228  0.4335 -0.0003
  177MOL   H23046342   2.179   3.320   4.500 -1.2816  2.1677  2.4389
  177MOL   H23146343   2.351   3.391   4.635  1.8665  0.6887  1.2021
  177MOL   H23246344   2.403   3.280   4.777 -0.9811 -0.6227  0.0309
  177MOL   H23346345   2.279   3.409   4.790  1.8377  0.4259  1.1333
  177MOL   H23446346   2.274   3.102   4.853 -1.7431 -1.6969  3.9896
  177MOL   H23546347   2.140   3.045   4.769 -0.3879  0.6114 -1.2868
  177MOL   C23646348   2.084   3.188   4.911  0.7716  0.4308 -0.5216
  177MOL   C23746349   1.989   3.089   4.975  0.3447 -0.2776 -0.8057
  177MOL   C23846350   1.961   3.069   5.107 -0.0901  0.7274 -0.0035
  177MOL   C23946351   1.880   2.945   5.144 -0.3436  0.1628  0.4858
  177MOL   C24046352   2.018   3.157   5.220  0.2735  0.1831 -0.5270
  177MOL   H24146353   2.016   3.253   4.857  0.8308  2.2290  1.5062
  177MOL   H24246354   2.133   3.255   4.981 -1.4141  3.1280 -1.5063
  177MOL   H24346355   1.943   3.030   4.898 -2.4665  0.8677 -0.0674
  177MOL   H24446356   1.875   2.885   5.053 -0.6405  0.0769  0.5591
  177MOL   H24546357   1.777   2.964   5.174  0.4830  1.6039  2.5709
  177MOL   H24646358   1.927   2.886   5.222 -2.5687 -1.8753  0.3093
  177MOL   H24746359   2.108   3.200   5.174  0.6375  0.5744  0.5396
  177MOL   H24846360   2.054   3.085   5.294 -0.2429 -0.6665 -1.0985
  177MOL   C24946361   1.916   3.252   5.287 -0.9494  0.0039 -0.4314
  177MOL   C25046362   1.968   3.318   5.408  0.6873 -0.1711 -0.1966
  177MOL   C25146363   1.885   3.367   5.505 -0.2744  0.1868  0.6668
  177MOL   C25246364   1.937   3.418   5.634  0.2872  0.1924 -0.9533
  177MOL   C25346365   1.732   3.360   5.493  0.2689  0.6792  0.5823
  177MOL   H25446366   1.824   3.199   5.313  0.2823 -0.9958  2.0847
  177MOL   H25546367   1.908   3.330   5.212  1.2843  0.4726 -0.2364
  177MOL   H25646368   2.073   3.306   5.429  0.6909 -1.0012 -0.7017
  177MOL   H25746369   1.897   3.516   5.657  1.3306  0.0919  1.4238
  177MOL   H25846370   2.042   3.392   5.639  0.3671  0.8500  0.9286
  177MOL   H25946371   1.895   3.351   5.709  1.0237 -0.5401 -1.1902
  177MOL   H26046372   1.721   3.255   5.518  1.3218  0.6427  0.9317
  177MOL   H26146373   1.707   3.387   5.390  3.7238 -2.0862 -1.0978
  177MOL   H26246374   1.692   3.440   5.555  0.3397  0.6014  0.7299
  178MOL     C146375   3.276   7.621   4.020 -0.3651 -0.1338  0.1567
  178MOL     C246376   3.268   7.715   3.898  0.2319  0.1404  0.2221
  178MOL     C346377   3.169   7.715   3.809  0.7704 -0.2556 -0.2859
  178MOL     C446378   3.174   7.814   3.694  0.0652 -0.3752  0.5632
  178MOL     C546379   3.053   7.612   3.807 -0.0732  0.6615 -0.0657
  178MOL     H646380   3.350   7.642   4.098 -0.5717 -3.0143  1.2078
  178MOL     H746381   3.178   7.628   4.066 -1.2488 -0.8638 -1.5743
  178MOL     H846382   3.342   7.794   3.903  0.9880 -0.5410 -0.0079
  178MOL     H946383   3.080   7.812   3.638  0.3007 -1.1235  0.1893
  178MOL    H1046384   3.252   7.787   3.623 -1.0948  1.7390 -1.5851
  178MOL    H1146385   3.189   0.037   3.728  0.3970 -0.1121 -0.3622
  178MOL    H1246386   2.956   7.662   3.801 -0.2683  0.3754  0.6191
  178MOL    H1346387   3.046   7.548   3.895 -1.9404 -0.3901 -0.9402
  178MOL    H1446388   3.288   7.516   3.992  0.2525 -0.2830  0.9567
  178MOL    C1546389   3.046   7.522   3.685  0.4412 -0.5394  0.5944
  178MOL    C1646390   3.152   7.412   3.697 -0.5205  0.3421 -0.0659
  178MOL    C1746391   3.125   7.278   3.708 -0.1683  0.1233  0.0192
  178MOL    C1846392   3.243   7.186   3.711 -0.0824 -0.7471 -0.1662
  178MOL    C1946393   2.993   7.216   3.714 -0.8850 -0.0523 -0.4462
  178MOL    H2046394   3.073   7.579   3.595  2.7128  0.7321  2.0152
  178MOL    H2146395   2.943   7.488   3.680  1.1816 -2.6169 -1.2853
  178MOL    H2246396   3.253   7.450   3.704 -0.4427  0.1030  0.1228
  178MOL    H2346397   3.242   7.110   3.788 -0.9225  0.4045  0.9756
  178MOL    H2446398   3.340   7.235   3.704 -0.5100  0.3706  1.6084
  178MOL    H2546399   3.222   7.135   3.617 -0.0904 -1.1387  0.0516
  178MOL    H2646400   2.923   7.287   3.758 -0.6243  0.9141 -1.5760
  178MOL    H2746401   2.998   7.129   3.779 -1.1449 -0.7412 -1.3297
  178MOL    C2846402   2.935   7.172   3.578  0.1860 -0.1660  0.1445
  178MOL    C2946403   2.790   7.141   3.583 -0.1997 -0.0448 -0.7107
  178MOL    C3046404   2.704   7.145   3.477 -0.3320  0.2344 -0.4493
  178MOL    C3146405   2.562   7.094   3.493  0.5818  0.1603 -0.0354
  178MOL    C3246406   2.751   7.165   3.333 -0.0219  0.0178  0.0032
  178MOL    H3346407   2.994   7.087   3.544  2.4904  0.5236  2.2061
  178MOL    H3446408   2.951   7.252   3.505 -0.8407 -0.1222 -0.0333
  178MOL    H3546409   2.742   7.113   3.676 -1.4488  2.3058 -0.5973
  178MOL    H3646410   2.558   7.055   3.594  0.3270  1.3852  0.4397
  178MOL    H3746411   2.534   7.018   3.420  0.9029 -0.7699  0.8067
  178MOL    H3846412   2.477   7.161   3.483  1.7704  1.4184 -2.1737
  178MOL    H3946413   2.849   7.213   3.334  0.1497 -0.3035  2.3030
  178MOL    H4046414   2.686   7.235   3.281 -0.9292  0.1844  1.3248
  178MOL    C4146415   2.762   7.031   3.257 -0.4519 -0.1453  0.4901
  178MOL    C4246416   2.799   7.049   3.115  0.1278 -0.2263 -0.1347
  178MOL    C4346417   2.725   7.088   3.013  0.3407  0.0474 -0.0360
  178MOL    C4446418   2.780   7.098   2.873 -0.0981  0.1975 -0.0178
  178MOL    C4546419   2.570   7.116   3.024 -0.1775 -0.1665  0.3067
  178MOL    H4646420   2.669   6.973   3.253 -0.0380 -0.6564 -3.6036
  178MOL    H4746421   2.833   6.962   3.301  1.2116  1.1473 -0.1061
  178MOL    H4846422   2.905   7.032   3.098  0.0052  0.2347 -1.3814
  178MOL    H4946423   2.889   7.089   2.870 -0.1173  0.1059 -0.7777
  178MOL    H5046424   2.740   7.192   2.834 -3.1181 -1.2972 -0.7105
  178MOL    H5146425   2.732   7.027   2.805 -0.8222  1.0411 -0.4166
  178MOL    H5246426   2.549   7.208   2.970  0.3969 -0.8633 -1.1273
  178MOL    H5346427   2.552   7.130   3.130 -1.2356 -1.8850  0.3730
  178MOL    C5446428   2.493   6.989   2.984 -0.1449  0.5562 -0.8998
  178MOL    C5546429   2.348   7.035   2.966 -0.2724 -0.2455 -0.3839
  178MOL    C5646430   2.258   6.994   2.874  0.2194  0.2853  0.1965
  178MOL    C5746431   2.115   7.050   2.876 -0.1533  0.5341 -0.6482
  178MOL    C5846432   2.299   6.905   2.754  0.1801 -0.2528 -0.1025
  178MOL    H5946433   2.499   6.908   3.056 -1.9048  1.3792  0.2170
  178MOL    H6046434   2.535   6.959   2.888  2.1811  0.2852  0.1823
  178MOL    H6146435   2.317   7.086   3.056 -1.2104  1.1348 -1.4654
  178MOL    H6246436   2.051   6.970   2.913 -0.0791  0.5723 -0.4342
  178MOL    H6346437   2.069   7.092   2.787 -0.2225  0.7657 -0.5048
  178MOL    H6446438   2.119   7.125   2.954  0.9768 -1.6889  1.5135
  178MOL    H6546439   2.407   6.889   2.741  0.5831  1.3170  1.1997
  178MOL    H6646440   2.256   6.957   2.668 -0.0322  0.4037  0.4006
  178MOL    C6746441   2.231   6.769   2.750  0.4482 -0.2667  0.0870
  178MOL    C6846442   2.250   6.696   2.615 -0.4243  0.6999  0.6039
  178MOL    C6946443   2.260   6.567   2.583 -0.2847  0.7554 -0.0918
  178MOL    C7046444   2.262   6.522   2.435  0.1567  0.3902  0.3361
  178MOL    C7146445   2.248   6.453   2.687 -0.4038 -0.0072  0.1159
  178MOL    H7246446   2.124   6.783   2.767  0.3777 -0.7044  0.0210
  178MOL    H7346447   2.266   6.705   2.831 -0.0110 -0.7348 -0.0793
  178MOL    H7446448   2.260   6.773   2.539  1.1241  1.0847  1.1598
  178MOL    H7546449   2.174   6.466   2.405 -0.4476 -0.0204  2.7351
  178MOL    H7646450   2.354   6.463   2.428  0.3572  0.4119  2.3137
  178MOL    H7746451   2.272   6.606   2.367 -0.2354 -0.2335 -0.4920
  178MOL    H7846452   2.221   6.364   2.630 -0.7285  1.2368 -1.6961
  178MOL    H7946453   2.164   6.499   2.738  1.5336  2.5711  1.0852
  178MOL    C8046454   2.369   6.427   2.768 -0.1302  0.9555  0.4338
  178MOL    C8146455   2.325   6.325   2.872  0.4893 -0.3386  0.2296
  178MOL    C8246456   2.299   6.358   3.002 -0.6803  0.1486  0.0588
  178MOL    C8346457   2.307   6.502   3.061 -0.6543 -0.4198  0.1832
  178MOL    C8446458   2.246   6.265   3.104 -0.2939  0.3552  0.6804
  178MOL    H8546459   2.414   6.517   2.810 -1.3524  3.2151 -2.8922
  178MOL    H8646460   2.448   6.379   2.710 -0.4540  1.3195 -0.3158
  178MOL    H8746461   2.313   6.230   2.823  2.8689  1.0673 -3.2527
  178MOL    H8846462   2.379   6.574   3.023 -0.8702 -0.0753  0.4190
  178MOL    H8946463   2.335   6.493   3.166  1.9526 -0.8230 -0.5006
  178MOL    H9046464   2.211   6.552   3.046  0.2577  1.2082 -0.3263
  178MOL    H9146465   2.195   6.186   3.049 -3.4267 -0.1716  4.0523
  178MOL    H9246466   2.154   6.299   3.153 -0.2082  2.2191 -0.4067
  178MOL    C9346467   2.355   6.204   3.193 -0.6293 -0.2591  0.3350
  178MOL    C9446468   2.457   6.121   3.111  0.2482 -0.0508  0.1968
  178MOL    C9546469   2.457   5.987   3.109 -0.2966  0.4290 -0.7825
  178MOL    C9646470   2.554   5.912   3.024 -0.0823 -0.2599 -1.1989
  178MOL    C9746471   2.344   5.900   3.171 -0.2578 -0.0796 -0.4775
  178MOL    H9846472   2.317   6.138   3.271 -0.2488  0.4378  1.1187
  178MOL    H9946473   2.390   6.293   3.245 -0.1518  0.4926 -1.2380
  178MOL   H10046474   2.537   6.170   3.058 -1.6186 -0.2408 -2.9324
  178MOL   H10146475   2.514   5.888   2.925 -0.7282  0.9729 -1.2410
  178MOL   H10246476   2.649   5.966   3.013  1.1284 -2.2916 -0.9315
  178MOL   H10346477   2.572   5.815   3.070 -2.2087 -0.4501 -0.7066
  178MOL   H10446478   2.301   5.827   3.103 -0.4053 -0.7890  0.3580
  178MOL   H10546479   2.261   5.966   3.195 -0.2163 -0.5697  1.1251
  178MOL   C10646480   2.391   5.834   3.303 -0.4605  0.5117  0.0716
  178MOL   C10746481   2.288   5.742   3.376  0.1700 -0.5451  0.0590
  178MOL   C10846482   2.207   5.781   3.472  0.3602  0.3831 -0.3969
  178MOL   C10946483   2.201   5.923   3.533 -0.3110 -0.1498 -0.1869
  178MOL   C11046484   2.096   5.684   3.528 -0.1269 -0.0842  0.3096
  178MOL   H11146485   2.422   5.910   3.375  1.0629  0.9166 -0.9884
  178MOL   H11246486   2.484   5.780   3.283  1.0423  2.4568  1.5239
  178MOL   H11346487   2.277   5.640   3.343 -2.3045 -1.6355  3.9227
  178MOL   H11446488   2.105   5.976   3.535  0.5118  1.3478  2.6620
  178MOL   H11546489   2.236   5.918   3.636  2.1525 -2.7386 -1.0872
  178MOL   H11646490   2.263   5.999   3.485  0.3447 -2.4048 -2.9856
  178MOL   H11746491   2.090   5.593   3.469  0.7325 -0.8720  1.4236
  178MOL   H11846492   2.005   5.736   3.500  1.1308  1.7985 -0.4271
  178MOL   C11946493   2.112   5.652   3.673 -0.2765 -0.1640  0.3000
  178MOL   C12046494   1.995   5.579   3.728 -0.2058  0.4148  0.0811
  178MOL   C12146495   1.977   5.537   3.853  0.1115 -0.1851 -0.0697
  178MOL   C12246496   1.865   5.439   3.895 -0.2801 -0.2285 -0.5255
  178MOL   C12346497   2.077   5.569   3.967 -0.2976  0.0646  0.6430
  178MOL   H12446498   2.131   5.743   3.730 -0.8687 -0.0228  0.2738
  178MOL   H12546499   2.205   5.595   3.686 -0.6300 -1.2822 -1.8546
  178MOL   H12646500   1.920   5.557   3.654  0.5787  3.5315 -1.7241
  178MOL   H12746501   1.919   5.347   3.916 -2.7097 -1.3924  0.8369
  178MOL   H12846502   1.790   5.408   3.822 -1.9880 -1.9757  1.9025
  178MOL   H12946503   1.812   5.464   3.987  2.2205 -0.2831  0.9571
  178MOL   H13046504   2.167   5.620   3.934 -0.4646 -0.4716 -0.6574
  178MOL   H13146505   2.109   5.483   4.027 -1.4438  0.3006  1.6230
  178MOL   C13246506   2.026   5.674   4.067  0.5928 -0.1062  0.3699
  178MOL   C13346507   1.988   5.804   3.984  0.0975  0.2511  0.2863
  178MOL   C13446508   2.058   5.921   3.952  0.6500  0.7692 -0.3838
  178MOL   C13546509   2.008   6.017   3.847  0.2276  0.1728 -0.2490
  178MOL   C13646510   2.193   5.952   4.014  0.4395  0.0533  0.5514
  178MOL   H13746511   2.089   5.698   4.152  0.5674 -0.8351  0.5940
  178MOL   H13846512   1.935   5.652   4.123 -0.5900  1.8104 -0.7274
  178MOL   H13946513   1.897   5.793   3.925  0.6240  0.3838 -0.5648
  178MOL   H14046514   1.934   5.966   3.785 -0.8805  0.8622  0.4785
  178MOL   H14146515   2.076   6.039   3.765  0.0824 -2.0296 -1.0018
  178MOL   H14246516   1.966   6.112   3.881  1.2927  0.3849  0.4965
  178MOL   H14346517   2.250   5.973   3.923  0.5479 -2.1125  0.0915
  178MOL   H14446518   2.229   5.859   4.058 -0.4574 -0.4362  0.2750
  178MOL   C14546519   2.194   6.065   4.116  0.1854 -0.2152 -0.1072
  178MOL   C14646520   2.297   6.066   4.232  0.1812  0.1652 -0.1677
  178MOL   C14746521   2.276   6.114   4.357  0.3695  0.1357  0.9188
  178MOL   C14846522   2.394   6.123   4.456  0.9041  0.4520  0.2521
  178MOL   C14946523   2.146   6.158   4.406 -0.5319  0.1861  0.0645
  178MOL   H15046524   2.090   6.067   4.150  0.3926 -0.3852  0.5365
  178MOL   H15146525   2.208   6.159   4.063  0.0044 -0.3591 -0.4136
  178MOL   H15246526   2.397   6.041   4.199 -0.6757 -1.5150 -1.6291
  178MOL   H15346527   2.491   6.140   4.407  0.4035 -0.8219 -1.2371
  178MOL   H15446528   2.410   6.037   4.521  2.1063  1.8027  1.7755
  178MOL   H15546529   2.384   6.213   4.516  1.4968 -0.0735  1.1526
  178MOL   H15646530   2.143   6.117   4.507  2.8386  2.0074  0.9622
  178MOL   H15746531   2.070   6.098   4.356 -1.3081  2.3045 -1.3863
  178MOL   C15846532   2.120   6.307   4.388 -0.3674 -0.2231  0.0153
  178MOL   C15946533   1.986   6.342   4.457  0.6241 -0.1463 -0.9257
  178MOL   C16046534   1.886   6.422   4.413 -0.2223  0.4439 -0.4768
  178MOL   C16146535   1.882   6.491   4.278 -0.0619 -0.2515 -0.1631
  178MOL   C16246536   1.759   6.442   4.492 -0.7498 -0.5221 -0.8310
  178MOL   H16346537   2.129   6.345   4.286 -0.1057 -1.5578 -0.4680
  178MOL   H16446538   2.200   6.356   4.444  0.1717 -0.7161 -0.3179
  178MOL   H16546539   1.974   6.298   4.555 -1.9093 -1.5666 -1.8350
  178MOL   H16646540   1.811   6.434   4.219 -0.5929  0.7639 -0.5041
  178MOL   H16746541   1.984   6.485   4.241 -0.1523  0.1535 -0.4737
  178MOL   H16846542   1.858   6.597   4.279  2.3901  0.3502  2.2167
  178MOL   H16946543   1.716   6.538   4.464 -0.5512 -0.6845 -1.6959
  178MOL   H17046544   1.786   6.435   4.598  0.2648  1.2395 -0.9498
  178MOL   C17146545   1.647   6.347   4.454  0.3568  0.1707 -0.3220
  178MOL   C17246546   1.534   6.354   4.558 -0.6774  0.3072 -0.7067
  178MOL   C17346547   1.459   6.248   4.602 -0.4872 -0.0380 -0.8031
  178MOL   C17446548   1.467   6.097   4.569 -0.1700 -0.1967  1.0434
  178MOL   C17546549   1.343   6.285   4.697 -0.3221  0.0406 -0.0709
  178MOL   H17646550   1.687   6.246   4.461 -1.0922 -0.3779  0.1521
  178MOL   H17746551   1.603   6.360   4.355 -2.5423 -0.2446  0.8542
  178MOL   H17846552   1.502   6.452   4.590 -1.3170  0.9231 -3.1505
  178MOL   H17946553   1.480   6.041   4.662  2.2827  0.6337  1.2487
  178MOL   H18046554   1.541   6.057   4.499 -0.9287  0.7498 -0.3124
  178MOL   H18146555   1.368   6.068   4.534  0.3671 -0.3098 -0.4192
  178MOL   H18246556   1.364   6.370   4.761 -0.6562  0.4883 -0.5504
  178MOL   H18346557   1.324   6.194   4.755  1.3323 -1.4629 -1.8091
  178MOL   C18446558   1.209   6.319   4.616  0.2693 -0.0698  0.7463
  178MOL   C18546559   1.112   6.378   4.717  0.1218 -0.0815 -0.4474
  178MOL   C18646560   1.058   6.501   4.725 -0.3487 -0.2107  0.3694
  178MOL   C18746561   0.961   6.541   4.833 -0.0643 -0.2119  0.2201
  178MOL   C18846562   1.088   6.608   4.618  0.3563 -0.1079 -0.4978
  178MOL   H18946563   1.176   6.232   4.559  0.7821  0.3346 -0.1689
  178MOL   H19046564   1.235   6.395   4.542 -1.2655  1.1174  1.3893
  178MOL   H19146565   1.069   6.302   4.780  4.4024 -4.0135 -2.0289
  178MOL   H19246566   0.877   6.595   4.789  2.1741  0.8830 -2.8767
  178MOL   H19346567   1.014   6.612   4.896 -1.1931  1.3510 -0.5600
  178MOL   H19446568   0.912   6.460   4.887 -0.0772 -0.7735 -0.6172
  178MOL   H19546569   0.991   6.630   4.574  0.9622  0.4931 -1.5618
  178MOL   H19646570   1.151   6.573   4.536  1.8445  1.5883 -0.1165
  178MOL   C19746571   1.152   6.739   4.671  0.5505 -0.3979 -0.3058
  178MOL   C19846572   1.164   6.856   4.576 -0.1031  0.1053 -0.4326
  178MOL   C19946573   1.280   6.909   4.532 -0.5830  0.4279  0.3889
  178MOL   C20046574   1.285   7.038   4.459 -0.4138 -0.0729 -0.2181
  178MOL   C20146575   1.418   6.848   4.573 -0.1403 -0.4760 -0.5540
  178MOL   H20246576   1.247   6.706   4.714  0.8703  0.8412 -0.0532
  178MOL   H20346577   1.099   6.780   4.757 -1.0174 -1.5176 -0.7246
  178MOL   H20446578   1.080   6.915   4.542 -1.4298 -0.5923  1.5247
  178MOL   H20546579   1.389   7.066   4.443 -1.0515  2.0668 -0.7180
  178MOL   H20646580   1.237   7.119   4.513  0.7028 -0.0127  0.7164
  178MOL   H20746581   1.226   7.019   4.369  1.4744 -3.6747 -0.7905
  178MOL   H20846582   1.498   6.860   4.499  0.3683  1.4532  0.2688
  178MOL   H20946583   1.420   6.740   4.588  1.1722 -0.3960 -0.1385
  178MOL   C21046584   1.470   6.923   4.700 -0.0355  0.0640 -0.9015
  178MOL   C21146585   1.595   6.880   4.767  0.8600  0.1972 -0.3510
  178MOL   C21246586   1.670   6.946   4.854 -0.6566  0.5112  0.2612
  178MOL   C21346587   1.800   6.896   4.917 -0.5231 -0.4573  0.9936
  178MOL   C21446588   1.637   7.089   4.903 -0.0505  0.2302  0.6283
  178MOL   H21546589   1.382   6.933   4.764 -0.0052 -0.7295 -0.7296
  178MOL   H21646590   1.490   7.027   4.672 -0.5880  0.1587 -0.9471
  178MOL   H21746591   1.624   6.778   4.750 -0.3413 -0.0038 -1.1854
  178MOL   H21846592   1.802   6.896   5.026  1.4807 -1.6327  0.9798
  178MOL   H21946593   1.880   6.949   4.865 -3.1456  2.5505 -0.0449
  178MOL   H22046594   1.822   6.791   4.899 -0.4375 -0.2681 -0.0136
  178MOL   H22146595   1.570   7.139   4.833 -1.8464 -0.3313  1.8933
  178MOL   H22246596   1.724   7.154   4.906  1.1281 -1.3139  0.2566
  178MOL   C22346597   1.584   7.084   5.050 -0.3503  0.1721 -0.5853
  178MOL   C22446598   1.507   7.211   5.088  0.3880 -0.2935 -0.6425
  178MOL   C22546599   1.376   7.226   5.066  0.8643 -0.0017 -0.4424
  178MOL   C22646600   1.316   7.368   5.082 -0.5243  0.6053  0.1008
  178MOL   C22746601   1.285   7.110   5.034 -0.1679  0.0568  0.0094
  178MOL   H22846602   1.664   7.065   5.123 -1.2664 -1.1244  0.1033
  178MOL   H22946603   1.525   6.994   5.069 -0.1325  0.3171  0.8554
  178MOL   H23046604   1.569   7.293   5.121  0.1226 -1.3367  2.6298
  178MOL   H23146605   1.275   7.405   4.988 -0.3329 -0.6582 -0.4889
  178MOL   H23246606   1.390   7.435   5.125  0.9823  0.8305 -2.7111
  178MOL   H23346607   1.239   7.364   5.160  0.5278 -1.4958  1.0547
  178MOL   H23446608   1.339   7.040   4.970  1.1108  1.8206 -0.8882
  178MOL   H23546609   1.208   7.150   4.969 -1.5167 -2.3219  0.0547
  178MOL   C23646610   1.220   7.036   5.148  0.1807 -0.3270  0.0424
  178MOL   C23746611   1.132   6.919   5.108  0.7010  0.1165  0.1383
  178MOL   C23846612   1.096   6.816   5.191  0.0483 -0.4216 -0.6247
  178MOL   C23946613   0.988   6.716   5.147 -0.3933 -0.3834 -0.1404
  178MOL   C24046614   1.153   6.786   5.332 -0.1458 -0.5343 -0.8649
  178MOL   H24146615   1.150   7.104   5.195 -0.2652 -0.7221 -0.0436
  178MOL   H24246616   1.289   7.007   5.228 -0.0919 -1.0110  0.0365
  178MOL   H24346617   1.074   6.929   5.017  2.7929  3.2669 -0.9537
  178MOL   H24446618   0.919   6.706   5.231  1.3155 -0.7106  1.2443
  178MOL   H24546619   1.043   6.625   5.123 -0.5429 -0.0825 -1.6424
  178MOL   H24646620   0.933   6.745   5.058  0.9814 -0.5457 -1.0436
  178MOL   H24746621   1.065   6.760   5.391  1.0016 -0.0922  1.0703
  178MOL   H24846622   1.188   6.885   5.361 -0.4872 -0.3303 -1.1430
  178MOL   C24946623   1.252   6.682   5.322  0.6726 -0.0653 -0.8343
  178MOL   C25046624   1.288   6.634   5.459 -0.3304 -0.0352  0.1205
  178MOL   C25146625   1.388   6.547   5.488 -0.0616  0.4634 -0.1077
  178MOL   C25246626   1.443   6.520   5.625  0.4091  0.1343  0.5264
  178MOL   C25346627   1.472   6.500   5.373 -0.1708 -0.2628  0.1927
  178MOL   H25446628   1.344   6.714   5.273  1.0012  0.9213  0.4095
  178MOL   H25546629   1.217   6.595   5.267  0.8421 -1.5683  1.3633
  178MOL   H25646630   1.259   6.696   5.542  0.0472  0.3814 -0.0482
  178MOL   H25746631   1.472   6.416   5.640 -0.5069 -0.0892  0.8274
  178MOL   H25846632   1.370   6.544   5.703  0.7672  2.5158  0.1631
  178MOL   H25946633   1.534   6.579   5.628  0.8949 -0.6526  2.5997
  178MOL   H26046634   1.444   6.536   5.274  1.9404  2.0888  0.3991
  178MOL   H26146635   1.465   6.391   5.369 -1.0550 -0.2813  1.7897
  178MOL   H26246636   1.579   6.518   5.384 -0.1253 -0.3178 -0.1463
  179MOL     C146637   3.100   3.851   1.071  0.6407  0.3912 -0.6502
  179MOL     C246638   3.130   4.001   1.106  0.0894 -0.5507  0.3750
  179MOL     C346639   3.081   4.107   1.036  0.3443  0.1228  0.0661
  179MOL     C446640   3.113   4.253   1.082  0.4137 -0.2125  0.4919
  179MOL     C546641   3.019   4.102   0.896  0.4520  0.1845 -0.5632
  179MOL     H646642   3.092   3.783   1.156  0.8900  0.4541 -0.5752
  179MOL     H746643   3.014   3.849   1.005  0.3984 -0.8034 -0.3268
  179MOL     H846644   3.183   4.020   1.198 -1.4078  0.0823  1.1211
  179MOL     H946645   3.025   4.285   1.137 -0.8093  2.3610 -2.7708
  179MOL    H1046646   3.141   4.318   0.999 -1.5224 -0.1373 -0.1250
  179MOL    H1146647   3.204   4.263   1.140  1.2449 -3.0420 -0.2464
  179MOL    H1246648   3.050   4.021   0.831  0.1353  1.2537 -2.0770
  179MOL    H1346649   3.052   4.189   0.839 -0.5143  1.7549  1.2068
  179MOL    H1446650   3.180   3.818   1.005  2.1876  2.2336  0.2680
  179MOL    C1546651   2.864   4.105   0.912  0.8903  0.6297  0.0012
  179MOL    C1646652   2.804   4.239   0.953 -0.9462  0.2265 -0.4456
  179MOL    C1746653   2.727   4.267   1.058 -0.1631  1.1760  0.1681
  179MOL    C1846654   2.697   4.413   1.090  0.7648 -0.0090  0.1900
  179MOL    C1946655   2.679   4.165   1.166  0.1420 -0.1892 -0.1799
  179MOL    H2046656   2.835   4.024   0.979 -0.1824 -0.3452 -1.6163
  179MOL    H2146657   2.819   4.078   0.817  1.2542 -1.7778  0.4876
  179MOL    H2246658   2.846   4.307   0.880 -0.1995 -0.7374 -0.9259
  179MOL    H2346659   2.748   4.460   1.174  1.6325  2.9064 -1.9045
  179MOL    H2446660   2.591   4.407   1.117  0.3391  0.5774 -1.3195
  179MOL    H2546661   2.703   4.480   1.005 -1.9005  0.5790  0.4136
  179MOL    H2646662   2.679   4.063   1.126 -0.4560 -1.2125  2.3396
  179MOL    H2746663   2.575   4.190   1.185  0.3105  1.2408 -1.0726
  179MOL    C2846664   2.754   4.175   1.298 -0.2907  0.0865  0.2757
  179MOL    C2946665   2.659   4.148   1.409 -1.0703  0.0856  0.5996
  179MOL    C3046666   2.630   4.233   1.504  0.5110 -0.1780 -0.4558
  179MOL    C3146667   2.527   4.193   1.604  0.2240 -0.4429  0.0402
  179MOL    C3246668   2.683   4.380   1.520  0.0847  0.4811 -0.0581
  179MOL    H3346669   2.802   4.273   1.305 -0.1700  0.0101  0.5132
  179MOL    H3446670   2.839   4.106   1.301  0.7234  1.2807 -0.2289
  179MOL    H3546671   2.621   4.047   1.401  0.8750 -0.7920  1.9995
  179MOL    H3646672   2.545   4.248   1.696  0.7408  0.4314 -0.5670
  179MOL    H3746673   2.529   4.085   1.618 -0.6803 -0.8022 -2.2641
  179MOL    H3846674   2.423   4.215   1.577 -1.1156 -5.2780  0.8555
  179MOL    H3946675   2.787   4.387   1.487 -0.4147  0.7567 -1.5937
  179MOL    H4046676   2.703   4.390   1.627  0.9339  2.2982 -0.3803
  179MOL    C4146677   2.597   4.483   1.458  0.2788  0.8555 -0.2213
  179MOL    C4246678   2.664   4.618   1.454 -0.4665  0.1164 -0.0962
  179MOL    C4346679   2.656   4.724   1.535 -0.4222 -0.0048 -0.1716
  179MOL    C4446680   2.739   4.848   1.516 -0.1900 -0.3539  0.4333
  179MOL    C4546681   2.561   4.737   1.651  0.5547  0.4447 -0.0585
  179MOL    H4646682   2.500   4.475   1.507  0.5448 -1.5070  0.0036
  179MOL    H4746683   2.584   4.445   1.357  0.3558 -0.0738  0.1140
  179MOL    H4846684   2.734   4.614   1.372  0.3520 -1.4990  0.6618
  179MOL    H4946685   2.784   4.872   1.613  0.1208 -3.0796  1.0148
  179MOL    H5046686   2.673   4.929   1.486 -0.4127 -0.2945  1.0724
  179MOL    H5146687   2.819   4.834   1.443 -2.1432 -1.2237 -1.5971
  179MOL    H5246688   2.471   4.675   1.647 -0.9675  2.5899  0.4398
  179MOL    H5346689   2.536   4.842   1.658  1.5876  0.6274  1.0933
  179MOL    C5446690   2.630   4.707   1.782  0.4782 -0.2170 -0.2348
  179MOL    C5546691   2.524   4.715   1.896 -0.1389  0.1146 -0.2553
  179MOL    C5646692   2.519   4.799   2.005  0.1374 -1.0472 -0.5210
  179MOL    C5746693   2.402   4.801   2.101  0.3260 -0.1995  0.1838
  179MOL    C5846694   2.618   4.913   2.024 -0.4989 -0.7335  0.1403
  179MOL    H5946695   2.713   4.776   1.794 -0.1745  0.8022 -1.4840
  179MOL    H6046696   2.676   4.608   1.778 -2.2021 -1.4798 -1.5903
  179MOL    H6146697   2.434   4.657   1.884 -0.1129  0.3936 -1.8561
  179MOL    H6246698   2.323   4.875   2.087 -2.5039 -3.0297  0.5410
  179MOL    H6346699   2.438   4.811   2.203  1.2429  2.3019 -0.3607
  179MOL    H6446700   2.349   4.705   2.098  2.5408 -1.5122  1.5406
  179MOL    H6546701   2.703   4.912   1.955 -1.4968  0.2690 -1.1184
  179MOL    H6646702   2.662   4.905   2.124 -0.0505 -1.7206 -0.1370
  179MOL    C6746703   2.545   5.051   2.009  0.3331 -0.0093 -0.3471
  179MOL    C6846704   2.496   5.088   1.872  0.4398  0.0249 -0.5128
  179MOL    C6946705   2.553   5.169   1.780 -0.6667  0.4580  0.7324
  179MOL    C7046706   2.507   5.180   1.633 -0.0553  1.3736  0.0376
  179MOL    C7146707   2.695   5.229   1.787 -0.2185 -0.1539 -0.0165
  179MOL    H7246708   2.609   5.124   2.059 -0.4697  0.1541  0.4464
  179MOL    H7346709   2.462   5.055   2.079 -0.0489  0.4322 -0.8178
  179MOL    H7446710   2.398   5.049   1.849 -1.0567  3.0493  0.3996
  179MOL    H7546711   2.574   5.127   1.565  0.1739  1.1683  0.4244
  179MOL    H7646712   2.512   5.285   1.604 -3.3160  1.6436  0.2165
  179MOL    H7746713   2.404   5.143   1.632  0.0935  0.9560  0.2232
  179MOL    H7846714   2.744   5.212   1.691 -2.2758 -0.7435 -0.9829
  179MOL    H7946715   2.757   5.169   1.854 -0.7083 -1.0218 -0.3422
  179MOL    C8046716   2.688   5.376   1.822  0.4569 -0.1436 -0.3205
  179MOL    C8146717   2.825   5.435   1.817  0.0834 -0.3787 -1.3224
  179MOL    C8246718   2.876   5.496   1.709  0.5286  0.3545 -1.2014
  179MOL    C8346719   2.792   5.533   1.587  0.7594  0.5278 -0.1857
  179MOL    C8446720   3.022   5.555   1.716  0.3167 -0.7500  0.7864
  179MOL    H8546721   2.659   5.387   1.927  3.1170  0.6718  0.3608
  179MOL    H8646722   2.609   5.423   1.765 -0.8191  0.2378  1.6915
  179MOL    H8746723   2.894   5.417   1.897 -3.5833 -1.1221  1.8213
  179MOL    H8846724   2.738   5.625   1.611 -0.1890 -0.2805  0.8569
  179MOL    H8946725   2.722   5.451   1.570 -1.8991  3.0091 -1.4380
  179MOL    H9046726   2.857   5.546   1.500  0.8280 -0.9783 -0.3693
  179MOL    H9146727   3.072   5.547   1.619 -0.8901  0.2761  0.0591
  179MOL    H9246728   3.073   5.487   1.783  1.1737 -0.6278  0.2672
  179MOL    C9346729   3.047   5.697   1.774 -0.3031 -0.4439  0.4565
  179MOL    C9446730   3.195   5.737   1.760 -0.7843 -0.2097 -0.1818
  179MOL    C9546731   3.285   5.730   1.857 -0.9943 -0.4727 -0.1763
  179MOL    C9646732   3.433   5.746   1.817 -0.2722 -0.5498  0.8450
  179MOL    C9746733   3.254   5.698   1.998 -0.2611 -0.5927 -0.0790
  179MOL    H9846734   2.998   5.708   1.871 -0.4807 -0.4807  0.3710
  179MOL    H9946735   2.991   5.765   1.710  3.6382  1.4854 -1.0939
  179MOL   H10046736   3.231   5.758   1.661  1.5327 -2.1865  0.1938
  179MOL   H10146737   3.464   5.841   1.861 -0.4473 -0.0348 -0.1118
  179MOL   H10246738   3.495   5.662   1.848  1.4753  1.3014  2.5170
  179MOL   H10346739   3.441   5.758   1.709  1.3217  1.8538  1.1837
  179MOL   H10446740   3.311   5.610   2.029  0.1691 -1.0137 -1.9912
  179MOL   H10546741   3.150   5.675   2.022 -0.7808 -1.2256 -2.8056
  179MOL   C10646742   3.277   5.823   2.085 -0.0498 -0.1301  0.1836
  179MOL   C10746743   3.233   5.807   2.224 -0.0184  0.8922 -0.3867
  179MOL   C10846744   3.169   5.896   2.306 -0.1591  0.0614  0.0200
  179MOL   C10946745   3.111   6.027   2.252 -0.7950  0.1412  0.3956
  179MOL   C11046746   3.136   5.869   2.451  0.0590  0.3261 -0.0920
  179MOL   H11146747   3.229   5.908   2.037  0.2983  0.6792  1.2384
  179MOL   H11246748   3.385   5.839   2.093 -0.2570  0.8864  0.9443
  179MOL   H11346749   3.266   5.718   2.276 -0.2621  1.9028  1.5524
  179MOL   H11446750   3.003   6.029   2.239 -1.1479  2.3217  3.3088
  179MOL   H11546751   3.143   6.111   2.313 -0.3439  0.4008 -0.1935
  179MOL   H11646752   3.154   6.058   2.157  1.7580  2.9549  2.3688
  179MOL   H11746753   3.122   5.763   2.471 -1.4202  0.5312  0.0797
  179MOL   H11846754   3.041   5.920   2.467  0.6616  1.1964  0.7865
  179MOL   C11946755   3.235   5.942   2.545 -0.1493  0.5962 -0.3530
  179MOL   C12046756   3.378   5.898   2.530 -0.3829  1.0664  0.5945
  179MOL   C12146757   3.443   5.809   2.593 -0.6711  0.1794 -0.4158
  179MOL   C12246758   3.594   5.785   2.565  0.6878 -0.1845 -0.0197
  179MOL   C12346759   3.380   5.721   2.698  0.2859  0.1002 -0.4321
  179MOL   H12446760   3.197   5.937   2.647  0.8870 -0.7992 -0.0352
  179MOL   H12546761   3.235   6.050   2.527 -0.2733  0.5275 -0.7744
  179MOL   H12646762   3.424   5.953   2.449  0.6794  0.6764  0.9352
  179MOL   H12746763   3.637   5.765   2.663 -1.1423 -2.1053  0.4354
  179MOL   H12846764   3.643   5.871   2.522  0.8405 -0.2878 -0.0494
  179MOL   H12946765   3.605   5.694   2.506 -0.9307  0.2586 -1.0625
  179MOL   H13046766   3.273   5.728   2.678  0.0734  0.7496  0.8866
  179MOL   H13146767   3.406   5.759   2.797  0.1069 -2.1330  0.4852
  179MOL   C13246768   3.418   5.572   2.679  0.0890  0.2256  0.4660
  179MOL   C13346769   3.361   5.488   2.798 -0.2804  0.0155 -0.3267
  179MOL   C13446770   3.433   5.448   2.901  0.6888 -0.8469 -0.6554
  179MOL   C13546771   3.363   5.368   3.015 -0.3396  0.5356  0.2150
  179MOL   C13646772   3.574   5.481   2.936 -0.5355 -0.4266  0.0317
  179MOL   H13746773   3.525   5.554   2.665  0.0706  0.3281  0.1935
  179MOL   H13846774   3.376   5.531   2.587 -1.2362  0.0341  1.1432
  179MOL   H13946775   3.255   5.467   2.793  0.1816 -2.1085 -2.2887
  179MOL   H14046776   3.314   5.286   2.963  2.0538 -0.6171 -0.2341
  179MOL   H14146777   3.287   5.429   3.064  1.7931  1.1285  2.8852
  179MOL   H14246778   3.429   5.331   3.092 -0.4216  0.2273  0.1358
  179MOL   H14346779   3.594   5.540   3.026 -1.1795  1.1956 -0.8788
  179MOL   H14446780   3.612   5.549   2.860 -0.2825  0.0168  0.5464
  179MOL   C14546781   3.676   5.361   2.926  0.1154  0.7784  0.0868
  179MOL   C14646782   3.695   5.326   2.778  0.0364 -0.0724  0.2537
  179MOL   C14746783   3.686   5.207   2.713 -0.3971  1.0389 -0.2235
  179MOL   C14846784   3.733   5.195   2.569  0.5905  0.4470  0.1641
  179MOL   C14946785   3.639   5.077   2.782  0.1897 -0.4653 -0.4068
  179MOL   H15046786   3.632   5.280   2.985  1.9383 -1.4027 -1.4381
  179MOL   H15146787   3.772   5.390   2.969  0.8276 -1.2440 -0.0704
  179MOL   H15246788   3.730   5.409   2.719 -2.5419  1.3374  0.6311
  179MOL   H15346789   3.762   5.290   2.524  1.9597  0.5547  1.2464
  179MOL   H15446790   3.655   5.151   2.506  1.3183 -1.3317  0.4836
  179MOL   H15546791   3.818   5.127   2.575 -0.2485 -0.4992  1.5392
  179MOL   H15646792   3.583   5.023   2.705  0.8349 -2.1761  0.3025
  179MOL   H15746793   3.566   5.095   2.860  1.2692  2.6585 -0.0315
  179MOL   C15846794   3.748   5.012   2.861  0.3263 -0.3280  0.6136
  179MOL   C15946795   3.713   4.873   2.913 -0.9436  1.0103 -0.1578
  179MOL   C16046796   3.740   4.834   3.040 -1.2461  0.4462 -0.4153
  179MOL   C16146797   3.798   4.920   3.154 -0.2682 -0.0698  0.7874
  179MOL   C16246798   3.704   4.701   3.097 -0.3022  0.4817 -0.1964
  179MOL   H16346799   3.766   5.075   2.948 -0.1685  0.6326  0.0317
  179MOL   H16446800   3.839   5.015   2.801 -0.2237  0.5884 -0.1795
  179MOL   H16546801   3.677   4.812   2.831 -2.4458  0.9137  0.5575
  179MOL   H16646802   3.816   4.863   3.245 -1.1159 -0.9188  0.4321
  179MOL   H16746803   3.737   5.004   3.185 -0.3092  0.9372 -1.9002
  179MOL   H16846804   3.892   4.955   3.110 -0.9136 -1.5900 -1.9227
  179MOL   H16946805   3.623   4.700   3.170 -0.4226  0.4887 -0.3285
  179MOL   H17046806   3.798   4.661   3.135  0.9222  1.5939 -1.9403
  179MOL   C17146807   3.647   4.601   2.993  0.2700  0.2706  0.5979
  179MOL   C17246808   3.656   4.455   3.041  0.3390 -0.0524 -0.1968
  179MOL   C17346809   3.560   4.366   3.017  0.0318 -0.7140  0.5575
  179MOL   C17446810   3.426   4.394   2.950 -0.0047  0.4912 -0.6431
  179MOL   C17546811   3.577   4.220   3.056  0.5476 -0.7525  0.2527
  179MOL   H17646812   3.717   4.606   2.909 -0.0994  0.7006  0.3141
  179MOL   H17746813   3.549   4.634   2.960 -0.0584 -0.6194  0.6625
  179MOL   H17846814   3.750   4.427   3.086 -0.0108 -2.4283 -0.8962
  179MOL   H17946815   3.357   4.397   3.035  2.5458 -2.9366  1.6801
  179MOL   H18046816   3.391   4.309   2.892 -1.9883  0.7691  0.0976
  179MOL   H18146817   3.415   4.485   2.891 -1.3135  0.3687 -0.5990
  179MOL   H18246818   3.485   4.181   3.101  0.0812  1.7466  1.5452
  179MOL   H18346819   3.663   4.211   3.122  2.1104 -0.6533 -1.7496
  179MOL   C18446820   3.598   4.119   2.951 -0.4846 -0.0280  0.5908
  179MOL   C18546821   3.628   3.984   3.007  0.3623  0.3303  0.5819
  179MOL   C18646822   3.621   3.869   2.939  0.2218  0.6555  0.3971
  179MOL   C18746823   3.673   3.735   2.988  1.0024  0.1688  0.9558
  179MOL   C18846824   3.592   3.866   2.785  0.1346 -0.0431 -0.4864
  179MOL   H18946825   3.678   4.148   2.883 -2.0070  0.9696 -0.8031
  179MOL   H19046826   3.513   4.103   2.886 -0.9395 -0.0889  1.1912
  179MOL   H19146827   3.669   3.995   3.107  1.2671  3.9982 -0.0940
  179MOL   H19246828   3.658   3.734   3.096  1.8418  2.3576  1.1177
  179MOL   H19346829   3.776   3.718   2.955 -0.0566 -2.4733 -1.2172
  179MOL   H19446830   3.615   3.652   2.947  0.8321  1.1000 -0.7101
  179MOL   H19546831   3.668   3.808   2.734  0.6748  0.8478 -0.7073
  179MOL   H19646832   3.602   3.962   2.734 -1.1205  0.9836  1.1321
  179MOL   C19746833   3.452   3.802   2.755  0.4208  0.1143  0.0634
  179MOL   C19846834   3.444   3.753   2.616 -0.2670 -0.1211  0.4494
  179MOL   C19946835   3.345   3.756   2.527  0.0539  0.1052  0.2913
  179MOL   C20046836   3.375   3.722   2.388 -0.3601  0.1661  0.3404
  179MOL   C20146837   3.204   3.815   2.547 -1.0009  0.1070 -0.2232
  179MOL   H20246838   3.386   3.888   2.763 -1.3631 -1.3582  1.6929
  179MOL   H20346839   3.433   3.716   2.819  2.0161  1.1609  2.0357
  179MOL   H20446840   3.538   3.735   2.566 -1.1177  0.4636 -1.4259
  179MOL   H20546841   3.328   3.624   2.382 -0.9977  0.4909  0.0288
  179MOL   H20646842   3.479   3.721   2.356 -0.7842  1.0247 -1.0723
  179MOL   H20746843   3.315   3.780   2.318 -0.1687 -2.3956 -2.0193
  179MOL   H20846844   3.193   3.896   2.475 -2.3598 -1.3770 -1.7131
  179MOL   H20946845   3.192   3.857   2.647  0.2142 -0.8324  0.3257
  179MOL   C21046846   3.090   3.717   2.530  0.1736  0.3247 -0.0313
  179MOL   C21146847   2.982   3.752   2.432  0.4577 -0.3364  0.0852
  179MOL   C21246848   2.856   3.784   2.457  0.4016  0.0727 -0.1284
  179MOL   C21346849   2.773   3.819   2.338 -0.5426 -0.3673 -0.6022
  179MOL   C21446850   2.780   3.778   2.594 -0.2034 -0.2540 -0.1767
  179MOL   H21546851   3.048   3.694   2.628 -0.8795 -0.2193 -0.5925
  179MOL   H21646852   3.127   3.621   2.492 -0.4190  0.1349 -0.1390
  179MOL   H21746853   3.024   3.754   2.333  0.2922 -0.2502  0.0183
  179MOL   H21846854   2.715   3.907   2.365 -1.1176 -1.2276  1.0554
  179MOL   H21946855   2.704   3.738   2.314 -1.4775 -0.2726  1.6528
  179MOL   H22046856   2.836   3.847   2.253 -1.6534 -3.5867 -2.5735
  179MOL   H22146857   2.826   3.706   2.662  0.6789  0.4735  0.0005
  179MOL   H22246858   2.686   3.737   2.557 -0.0784 -1.4409  0.7829
  179MOL   C22346859   2.762   3.916   2.655  0.2180  0.1864  0.5602
  179MOL   C22446860   2.896   3.966   2.714  0.0022 -0.7815  0.1917
  179MOL   C22546861   2.915   4.005   2.842 -0.2999 -0.0986  0.0359
  179MOL   C22646862   3.049   4.063   2.887  0.1754 -0.1248 -0.0437
  179MOL   C22746863   2.806   4.013   2.950  0.4944 -0.5876 -0.6886
  179MOL   H22846864   2.690   3.932   2.735  0.8571  0.1029  1.1516
  179MOL   H22946865   2.738   3.989   2.577  1.0944 -1.2202 -1.0727
  179MOL   H23046866   2.986   3.969   2.656  0.2478 -0.7455  0.5716
  179MOL   H23146867   3.097   4.021   2.976 -1.4710 -3.3452 -0.5930
  179MOL   H23246868   3.039   4.171   2.885  0.4147 -0.0994  0.1152
  179MOL   H23346869   3.107   4.040   2.797 -0.0697  0.0058 -0.2351
  179MOL   H23446870   2.713   4.047   2.905 -0.2181 -0.7503  0.6651
  179MOL   H23546871   2.825   4.074   3.038 -1.4021  1.5001 -1.6685
  179MOL   C23646872   2.786   3.874   3.013  0.1102 -0.5409 -0.0973
  179MOL   C23746873   2.657   3.871   3.096 -0.3329  0.4605 -0.5000
  179MOL   C23846874   2.566   3.775   3.091 -0.2017  0.2341  0.1605
  179MOL   C23946875   2.443   3.790   3.174  0.1353 -0.4095  0.0075
  179MOL   C24046876   2.584   3.644   3.009  0.4182 -0.6695  0.1504
  179MOL   H24146877   2.874   3.846   3.069  2.2096  0.3216 -2.8475
  179MOL   H24246878   2.778   3.799   2.934  0.1285 -0.6174 -0.0251
  179MOL   H24346879   2.636   3.960   3.154  0.7638  0.0711  0.5182
  179MOL   H24446880   2.382   3.863   3.120  1.6458  0.4097 -0.5975
  179MOL   H24546881   2.473   3.837   3.267  0.2731  0.6387 -0.5594
  179MOL   H24646882   2.372   3.707   3.179  1.2504 -1.2866  1.6334
  179MOL   H24746883   2.667   3.631   2.939  1.0312 -0.6419  0.8613
  179MOL   H24846884   2.495   3.653   2.948  0.7036 -2.1960 -0.5274
  179MOL   C24946885   2.579   3.522   3.101  0.4210  0.0499 -0.1370
  179MOL   C25046886   2.601   3.390   3.023 -0.3106 -0.2498 -0.7228
  179MOL   C25146887   2.650   3.276   3.074 -0.5003 -0.4791 -0.1857
  179MOL   C25246888   2.675   3.161   2.976  0.0422 -0.5524 -0.3666
  179MOL   C25346889   2.693   3.259   3.217  0.8887 -0.5090  1.4502
  179MOL   H25446890   2.480   3.516   3.146  1.3631  1.2390  2.2018
  179MOL   H25546891   2.648   3.530   3.186 -0.9433  2.3865  0.8235
  179MOL   H25646892   2.570   3.397   2.920 -0.0972 -0.7100 -0.8172
  179MOL   H25746893   2.587   3.119   2.928  0.3905 -2.1465  0.3340
  179MOL   H25846894   2.732   3.080   3.022  0.2855 -0.1157  0.0938
  179MOL   H25946895   2.737   3.192   2.892 -1.0389  0.6071 -0.7530
  179MOL   H26046896   2.635   3.323   3.282 -0.5676  1.0899 -1.3193
  179MOL   H26146897   2.797   3.280   3.244  0.3037  2.7039  1.3607
  179MOL   H26246898   2.665   3.157   3.243 -0.4927 -0.3224  0.7167
  180MOL     C146899   2.663   4.409   6.706 -0.0868  0.0176 -0.2073
  180MOL     C246900   2.634   4.550   6.664  0.1625 -0.1798 -0.8653
  180MOL     C346901   2.696   4.628   6.573  0.2159  0.3913  0.5219
  180MOL     C446902   2.643   4.765   6.547 -0.4922 -0.3347  0.2147
  180MOL     C546903   2.819   4.580   6.492  0.2627 -0.0857 -0.3106
  180MOL     H646904   2.707   4.357   6.621  0.1872  0.7166 -0.4977
  180MOL     H746905   2.732   4.406   6.791 -2.0693 -2.3748  1.3921
  180MOL     H846906   2.550   4.594   6.715  1.5579 -0.8120  2.0694
  180MOL     H946907   2.554   4.786   6.606  0.4309 -0.8810  1.8296
  180MOL    H1046908   2.628   4.776   6.439 -2.4317  1.3408  0.6227
  180MOL    H1146909   2.713   4.839   6.586 -0.7708 -0.4177  0.8763
  180MOL    H1246910   2.804   4.615   6.390  0.3771  2.6116  0.5333
  180MOL    H1346911   2.825   4.472   6.487 -0.6796 -0.1126 -0.8108
  180MOL    H1446912   2.571   4.353   6.720 -0.9567  0.8807 -2.2865
  180MOL    C1546913   2.954   4.634   6.529 -0.4507  0.2305  0.2436
  180MOL    C1646914   2.990   4.625   6.680 -0.8041 -1.4036 -0.1290
  180MOL    C1746915   3.060   4.527   6.746  0.3324 -0.3142 -0.4326
  180MOL    C1846916   3.084   4.540   6.899  0.1718 -0.8799 -0.6879
  180MOL    C1946917   3.099   4.395   6.678  0.4453 -0.0243  0.3586
  180MOL    H2046918   2.950   4.729   6.475 -1.2333 -1.4877 -2.8084
  180MOL    H2146919   3.024   4.577   6.468 -2.6681  0.9770 -3.1559
  180MOL    H2246920   2.973   4.714   6.738  0.7638 -1.0373 -0.1994
  180MOL    H2346921   2.989   4.502   6.937  0.5222  0.2688  1.4292
  180MOL    H2446922   3.110   4.640   6.934  1.3156 -0.9570 -1.2704
  180MOL    H2546923   3.171   4.481   6.929  0.1951 -0.6503 -0.2978
  180MOL    H2646924   3.207   4.391   6.692  0.8294  0.5321 -2.2377
  180MOL    H2746925   3.081   4.392   6.571 -1.0384 -0.9455  0.6197
  180MOL    C2846926   3.037   4.267   6.743 -1.4845  0.2928 -0.1014
  180MOL    C2946927   3.067   4.152   6.665  0.2462  1.1165 -0.1197
  180MOL    C3046928   3.172   4.068   6.679  0.5459 -0.4317 -0.2989
  180MOL    C3146929   3.190   3.941   6.588  0.0753  0.8580 -0.0523
  180MOL    C3246930   3.274   4.084   6.790  0.0751  0.5197 -0.1500
  180MOL    H3346931   2.928   4.277   6.746 -1.3901  0.8726  2.1312
  180MOL    H3446932   3.058   4.257   6.849 -0.2896  0.0997 -0.3501
  180MOL    H3546933   2.993   4.138   6.587  0.8508  1.2585 -0.7257
  180MOL    H3646934   3.090   3.903   6.567 -0.0167  1.6475 -1.0963
  180MOL    H3746935   3.249   3.856   6.622 -0.1838  0.1371 -1.3671
  180MOL    H3846936   3.231   3.968   6.491 -1.2188 -1.5174 -1.3136
  180MOL    H3946937   3.295   3.984   6.827  0.0201 -0.2032 -2.0146
  180MOL    H4046938   3.220   4.132   6.872  0.7203 -0.4524  0.8614
  180MOL    C4146939   3.404   4.157   6.752  0.4166  0.2044 -0.2759
  180MOL    C4246940   3.477   4.211   6.874 -0.0371 -0.2215 -0.3644
  180MOL    C4346941   3.567   4.151   6.953 -0.4179 -0.9979 -0.6342
  180MOL    C4446942   3.617   4.226   7.073 -0.6129  0.1843 -1.1211
  180MOL    C4546943   3.610   4.005   6.946 -0.2346  0.2591  0.0230
  180MOL    H4646944   3.380   4.243   6.689  0.8119  1.2799  1.0324
  180MOL    H4746945   3.470   4.090   6.696  1.4023  1.9644 -1.2371
  180MOL    H4846946   3.450   4.310   6.906  1.6593  0.2411 -0.3155
  180MOL    H4946947   3.724   4.227   7.095 -0.6259  0.1951 -1.0596
  180MOL    H5046948   3.577   4.171   7.158 -0.3948 -0.6831 -1.5673
  180MOL    H5146949   3.571   4.324   7.065  0.4385  0.5709 -2.4896
  180MOL    H5246950   3.557   3.954   6.865 -0.4259  1.2374 -0.4711
  180MOL    H5346951   3.588   3.969   7.047  1.1472  1.5257  0.7943
  180MOL    C5446952   3.756   3.990   6.919 -0.2040  0.4430 -0.2523
  180MOL    C5546953   3.792   3.842   6.924 -0.5684  0.0322 -0.1206
  180MOL    C5646954   3.880   3.783   6.842  0.2901 -0.2200  0.0723
  180MOL    C5746955   3.912   3.634   6.857  0.3639  0.0603  0.0155
  180MOL    C5846956   3.966   3.850   6.732  0.1968 -0.4403 -0.5364
  180MOL    H5946957   3.806   4.035   7.005 -0.4558  0.6517 -0.2165
  180MOL    H6046958   3.791   4.039   6.829 -0.8778  0.5885 -0.4322
  180MOL    H6146959   3.738   3.789   7.001 -0.2444  1.8361  1.3731
  180MOL    H6246960   3.869   3.600   6.951 -0.1866 -1.7030 -0.8434
  180MOL    H6346961   4.019   3.620   6.872  0.7186  3.8597  1.6531
  180MOL    H6446962   3.875   3.572   6.775 -0.2434 -1.7932  1.6356
  180MOL    H6546963   4.064   3.803   6.733  1.1187  1.4626  1.4109
  180MOL    H6646964   3.985   3.956   6.744  3.7344 -1.3630  2.9323
  180MOL    C6746965   3.914   3.820   6.597  0.6917 -0.1009  0.8094
  180MOL    C6846966   4.016   3.840   6.485 -0.1410  0.2323 -0.1340
  180MOL    C6946967   4.004   3.896   6.365 -0.1178 -0.0516  0.2456
  180MOL    C7046968   4.122   3.897   6.267 -0.2528 -0.2786  0.4282
  180MOL    C7146969   3.874   3.976   6.317 -0.1152  0.6588  0.5724
  180MOL    H7246970   3.820   3.873   6.579 -0.2321 -0.6175  3.7709
  180MOL    H7346971   3.874   3.720   6.583  0.1134  0.0759  1.1507
  180MOL    H7446972   4.111   3.793   6.505  0.4057  0.5086 -1.9914
  180MOL    H7546973   4.082   3.858   6.173  0.2903 -2.5474  1.1041
  180MOL    H7646974   4.200   3.833   6.307  0.5109  0.3537 -0.0384
  180MOL    H7746975   4.148   4.002   6.252 -2.3675  0.2387  0.2810
  180MOL    H7846976   3.915   4.053   6.252 -1.7336 -0.5231 -1.9391
  180MOL    H7946977   3.837   4.038   6.398  0.6292  2.0074 -0.1132
  180MOL    C8046978   3.766   3.889   6.251 -0.0946  0.6568  0.0906
  180MOL    C8146979   3.663   3.980   6.189  0.9056  0.2667 -0.1734
  180MOL    C8246980   3.544   4.014   6.246  0.1022 -0.2027 -0.7168
  180MOL    C8346981   3.505   3.975   6.388  0.7086  0.0901 -0.6967
  180MOL    C8446982   3.455   4.107   6.170  0.1774  0.5295  0.3459
  180MOL    H8546983   3.722   3.820   6.323 -1.6442  1.3323 -0.1920
  180MOL    H8646984   3.804   3.810   6.185 -3.8758 -0.9511 -0.2580
  180MOL    H8746985   3.687   4.015   6.090 -0.7268 -0.1463 -0.7385
  180MOL    H8846986   3.436   3.890   6.387  0.3300  0.3903  0.0331
  180MOL    H8946987   3.465   4.066   6.431 -0.8039  0.2173 -2.3253
  180MOL    H9046988   3.589   3.943   6.450  1.9950  2.4799 -1.1451
  180MOL    H9146989   3.488   4.118   6.067  2.5293  0.7437  1.0917
  180MOL    H9246990   3.459   4.208   6.212  2.3369  1.1783 -1.3702
  180MOL    C9346991   3.308   4.067   6.180  0.9278  0.2644  0.1928
  180MOL    C9446992   3.215   4.155   6.107  0.3558 -0.4589 -0.0306
  180MOL    C9546993   3.097   4.208   6.144 -0.1176  0.7794 -0.2158
  180MOL    C9646994   3.030   4.316   6.057 -0.1955 -0.0866 -0.7412
  180MOL    C9746995   3.024   4.177   6.274  0.3552 -1.3478  0.3799
  180MOL    H9846996   3.278   4.076   6.284 -0.6676 -0.2140 -0.1997
  180MOL    H9946997   3.284   3.967   6.145 -0.4989  1.0425 -1.1268
  180MOL   H10046998   3.259   4.199   6.018 -0.4972  3.4604  1.3764
  180MOL   H10146999   2.929   4.277   6.044  0.6527 -2.8112  0.3406
  180MOL   H10247000   3.012   4.406   6.116 -1.1550 -1.5273  1.2503
  180MOL   H10347001   3.068   4.352   5.962  1.6676  1.2311  0.4550
  180MOL   H10447002   2.988   4.269   6.321  2.4788 -0.8880  1.1713
  180MOL   H10547003   3.097   4.148   6.349 -1.1964 -2.1672  1.5822
  180MOL   C10647004   2.903   4.078   6.241  0.1105  0.1156 -0.7347
  180MOL   C10747005   2.861   3.995   6.365  0.6633  0.3769  0.2844
  180MOL   C10847006   2.743   4.009   6.430 -0.2194 -0.1381 -0.0184
  180MOL   C10947007   2.628   4.099   6.392  0.5928 -0.1857  1.1192
  180MOL   C11047008   2.709   3.917   6.548  0.1563  0.1057  0.2959
  180MOL   H11147009   2.927   4.016   6.155 -0.7078 -2.2619  0.7326
  180MOL   H11247010   2.816   4.134   6.207 -0.2968 -0.5777 -0.8300
  180MOL   H11347011   2.933   3.922   6.399  0.1271  0.0851  0.8130
  180MOL   H11447012   2.540   4.041   6.417  0.4757  0.2926  1.8208
  180MOL   H11547013   2.633   4.197   6.440  0.2834 -0.2609  1.3069
  180MOL   H11647014   2.620   4.128   6.287 -0.5412 -2.3442  0.5850
  180MOL   H11747015   2.776   3.831   6.545  0.8821  0.7105 -1.0981
  180MOL   H11847016   2.612   3.868   6.538  0.7634 -1.1609  0.4577
  180MOL   C11947017   2.715   3.984   6.679  0.4384  0.8773 -0.3232
  180MOL   C12047018   2.580   4.039   6.716  0.2481 -0.1112  0.2738
  180MOL   C12147019   2.488   3.977   6.795 -0.2486  0.4741 -0.6139
  180MOL   C12247020   2.360   4.049   6.841  0.7407 -0.0207  0.2936
  180MOL   C12347021   2.507   3.835   6.851 -1.1726  0.7714 -0.4059
  180MOL   H12447022   2.792   4.061   6.676  0.7210  0.6160  0.1025
  180MOL   H12547023   2.748   3.912   6.755  1.1743 -0.2091 -1.6485
  180MOL   H12647024   2.564   4.140   6.679  2.5463  1.0208  2.1869
  180MOL   H12747025   2.351   4.147   6.793  0.1824 -0.3525 -0.2794
  180MOL   H12847026   2.368   4.060   6.949 -0.0012  0.7356  0.2796
  180MOL   H12947027   2.272   3.994   6.808  0.8561 -1.1483  1.8001
  180MOL   H13047028   2.453   3.853   6.944  0.1674  1.5777  0.2260
  180MOL   H13147029   2.608   3.808   6.880 -1.9698 -1.1380  0.6713
  180MOL   C13247030   2.444   3.726   6.764 -0.3369  0.2419  0.1993
  180MOL   C13347031   2.440   3.598   6.835  0.3153  0.2985  0.0730
  180MOL   C13447032   2.491   3.477   6.797  0.1191 -0.5018  0.0868
  180MOL   C13547033   2.471   3.356   6.882 -0.0104 -0.4632 -0.2922
  180MOL   C13647034   2.578   3.457   6.674 -0.0293 -0.4719 -0.5619
  180MOL   H13747035   2.510   3.717   6.677  0.3179 -0.7380  0.7884
  180MOL   H13847036   2.346   3.755   6.726 -1.3109 -1.5844  1.2518
  180MOL   H13947037   2.387   3.600   6.929  0.2768 -1.5158  0.1125
  180MOL   H14047038   2.382   3.375   6.941 -0.9713 -0.0847 -1.8324
  180MOL   H14147039   2.551   3.335   6.953  1.2279 -0.1763 -1.5768
  180MOL   H14247040   2.458   3.268   6.819 -1.4639  0.5856 -1.5098
  180MOL   H14347041   2.545   3.526   6.597 -1.9060 -0.2620  0.4128
  180MOL   H14447042   2.570   3.354   6.638  0.9776 -0.9285  0.4706
  180MOL   C14547043   2.731   3.469   6.713  0.1307 -0.5430  0.4059
  180MOL   C14647044   2.779   3.598   6.774  0.4826  0.1290 -0.0052
  180MOL   C14747045   2.902   3.656   6.762  0.0076 -0.4004  0.5037
  180MOL   C14847046   2.939   3.772   6.860 -0.2304 -0.2057 -0.0664
  180MOL   C14947047   3.017   3.609   6.679  0.3918 -0.2875 -0.1931
  180MOL   H15047048   2.782   3.444   6.619 -0.7257  0.8924 -0.4532
  180MOL   H15147049   2.749   3.388   6.784  0.2297 -2.0788 -1.3282
  180MOL   H15247050   2.717   3.640   6.851  2.0865 -0.1613  1.4666
  180MOL   H15347051   2.858   3.805   6.925  0.0682 -1.1200  0.7770
  180MOL   H15447052   2.977   3.861   6.809  0.0157 -0.7205 -0.7861
  180MOL   H15547053   3.017   3.740   6.928  0.3429 -1.0741 -1.1179
  180MOL   H15647054   3.037   3.688   6.606 -2.5356 -0.2602 -1.0676
  180MOL   H15747055   2.994   3.517   6.624  0.0046  0.3338 -1.0777
  180MOL   C15847056   3.136   3.583   6.769  0.1843  0.1343  0.2970
  180MOL   C15947057   3.255   3.521   6.688  0.6585 -0.1447 -0.5833
  180MOL   C16047058   3.377   3.561   6.684 -0.6491  0.4659  0.2991
  180MOL   C16147059   3.434   3.678   6.766  0.1181 -0.4378 -0.0313
  180MOL   C16247060   3.482   3.495   6.596  0.2717  0.0766  0.4612
  180MOL   H16347061   3.112   3.518   6.854 -2.4234 -0.6871 -1.0134
  180MOL   H16447062   3.173   3.683   6.792  1.6716 -0.9144  2.6514
  180MOL   H16547063   3.223   3.431   6.638 -0.7127  0.7104 -1.2671
  180MOL   H16647064   3.526   3.649   6.817 -0.2216  1.6496  1.8686
  180MOL   H16747065   3.362   3.712   6.841  0.3148  0.3299 -0.1874
  180MOL   H16847066   3.440   3.752   6.686 -1.4064 -0.2854 -0.0344
  180MOL   H16947067   3.444   3.420   6.527  1.0630  1.1849 -1.2074
  180MOL   H17047068   3.547   3.439   6.663 -0.6570 -1.6972 -0.0818
  180MOL   C17147069   3.574   3.593   6.511 -0.7752  0.3528 -0.5454
  180MOL   C17247070   3.652   3.509   6.412  0.2109  0.1906  0.3520
  180MOL   C17347071   3.635   3.506   6.275  0.2051  0.3823 -0.9103
  180MOL   C17447072   3.511   3.559   6.205 -0.2112 -0.0580 -0.3028
  180MOL   C17547073   3.729   3.424   6.184 -0.2659 -0.6522 -0.0575
  180MOL   H17647074   3.640   3.639   6.585  1.6822 -1.9267 -1.2233
  180MOL   H17747075   3.497   3.655   6.465  1.0233  2.5052 -0.7086
  180MOL   H17847076   3.734   3.450   6.450  0.9121 -0.5204 -2.1326
  180MOL   H17947077   3.538   3.649   6.149 -0.1532  0.0143 -0.1568
  180MOL   H18047078   3.421   3.570   6.265  0.2687  0.9069  0.2514
  180MOL   H18147079   3.482   3.485   6.130 -1.9259  0.8436 -0.5574
  180MOL   H18247080   3.683   3.335   6.142 -0.4306  0.2135 -1.7756
  180MOL   H18347081   3.806   3.375   6.244  0.0872 -2.8590 -2.2538
  180MOL   C18447082   3.800   3.507   6.077 -0.2143 -0.4710  0.1772
  180MOL   C18547083   3.873   3.409   5.985  0.2728  0.0758  0.1550
  180MOL   C18647084   4.004   3.381   5.972 -0.2705 -0.2373 -0.0719
  180MOL   C18747085   4.036   3.257   5.887 -0.2261  0.6881  0.5398
  180MOL   C18847086   4.120   3.467   6.018 -0.7274  0.0337  0.2401
  180MOL   H18947087   3.881   3.560   6.128  0.5643 -1.5422  0.0777
  180MOL   H19047088   3.733   3.560   6.010 -0.7381  0.5929  1.5216
  180MOL   H19147089   3.800   3.344   5.940  1.0707  0.2242 -1.4308
  180MOL   H19247090   4.059   3.289   5.785  0.5617 -1.4326  0.0266
  180MOL   H19347091   3.949   3.193   5.879  0.1649  0.0315  1.4611
  180MOL   H19447092   4.112   3.194   5.933 -1.5349  0.0659  1.8559
  180MOL   H19547093   4.112   3.572   5.991 -0.0992  0.5732  2.0813
  180MOL   H19647094   4.213   3.429   5.974 -0.2769  1.2134  0.1468
  180MOL   C19747095   4.134   3.434   6.171  0.6999  0.8645 -0.4275
  180MOL   C19847096   4.268   3.375   6.198  0.4459 -0.5819  0.0050
  180MOL   C19947097   4.348   3.382   6.309 -0.4163 -0.4904 -0.1573
  180MOL   C20047098   4.479   3.303   6.317 -0.3968  0.5922 -0.5483
  180MOL   C20147099   4.294   3.439   6.438  0.0407 -1.2415 -0.5290
  180MOL   H20247100   4.055   3.366   6.202 -0.4831  2.0667 -0.7510
  180MOL   H20347101   4.118   3.527   6.225  1.2619  1.2027 -0.8376
  180MOL   H20447102   4.315   3.320   6.119 -1.8184  0.6549 -2.2796
  180MOL   H20547103   4.500   3.308   6.424 -1.4458  0.1885 -0.3143
  180MOL   H20647104   4.562   3.339   6.256  1.7944 -0.6132  1.6183
  180MOL   H20747105   4.475   3.195   6.300 -0.4022  0.3732  0.7908
  180MOL   H20847106   4.310   3.366   6.517  1.0734 -0.3770  0.0808
  180MOL   H20947107   4.186   3.451   6.433 -0.0631 -2.2872 -0.8367
  180MOL   C21047108   4.366   3.571   6.475  0.8516  0.5098 -0.2815
  180MOL   C21147109   4.330   3.619   6.611  0.4207 -0.5762 -0.5622
  180MOL   C21247110   4.363   3.736   6.671  0.1716 -0.9954  0.4715
  180MOL   C21347111   4.320   3.760   6.818  0.2232  0.1662 -0.5422
  180MOL   C21447112   4.440   3.850   6.592  0.1438 -0.2715 -0.1006
  180MOL   H21547113   4.331   3.644   6.402  2.1989  1.3599 -0.0875
  180MOL   H21647114   4.474   3.573   6.458  1.0328 -2.5234  0.1606
  180MOL   H21747115   4.280   3.547   6.675  1.9670  0.6430  2.0667
  180MOL   H21847116   4.257   3.847   6.828  1.1118  1.0527 -2.3934
  180MOL   H21947117   4.402   3.777   6.888  0.6461 -1.5877 -0.5816
  180MOL   H22047118   4.263   3.676   6.859  1.2560  0.3851  1.3758
  180MOL   H22147119   4.484   3.811   6.500  2.4970  0.4580  0.6612
  180MOL   H22247120   4.535   3.873   6.642 -0.8825 -0.1188  1.8260
  180MOL   C22347121   4.351   3.979   6.564  0.1587  0.3629  0.4999
  180MOL   C22447122   4.439   4.102   6.554  0.2661 -0.4521 -0.6783
  180MOL   C22547123   4.410   4.222   6.607  0.4652 -0.4429  0.3116
  180MOL   C22647124   4.490   4.336   6.553  0.3043 -0.1434  0.6445
  180MOL   C22747125   4.289   4.255   6.685  0.2524  0.0565  0.0040
  180MOL   H22847126   4.289   3.987   6.653 -0.7717 -2.8879  0.2074
  180MOL   H22947127   4.291   3.957   6.476 -1.6244 -1.6803  2.1878
  180MOL   H23047128   4.515   4.096   6.477  0.3222  0.1020 -0.6671
  180MOL   H23147129   4.553   4.373   6.634  0.2069 -0.6233  0.9463
  180MOL   H23247130   4.421   4.412   6.517 -2.0095 -1.0594  2.9395
  180MOL   H23347131   4.553   4.309   6.469 -1.8172  0.5995 -1.2323
  180MOL   H23447132   4.303   4.351   6.734  2.0926 -0.8390  1.2952
  180MOL   H23547133   4.261   4.177   6.755 -0.8785 -0.7175 -1.2712
  180MOL   C23647134   4.173   4.261   6.585  0.0866  0.2013  0.1844
  180MOL   C23747135   4.029   4.241   6.630  0.0883  0.6568  0.1076
  180MOL   C23847136   3.918   4.309   6.590  0.5095  0.3614  0.4470
  180MOL   C23947137   3.780   4.278   6.653 -0.2954  0.4452 -0.1028
  180MOL   C24047138   3.910   4.424   6.494 -0.1535 -0.5794 -0.4947
  180MOL   H24147139   4.189   4.183   6.510  1.7272  0.2581  0.4746
  180MOL   H24247140   4.191   4.349   6.523  0.5563  0.5062  0.7591
  180MOL   H24347141   4.035   4.158   6.699 -1.4483  1.1699  0.8820
  180MOL   H24447142   3.725   4.206   6.594  0.5449 -0.3655  0.0880
  180MOL   H24547143   3.723   4.370   6.670 -0.8090  0.4378 -1.7083
  180MOL   H24647144   3.787   4.232   6.752 -1.7071 -0.4838 -0.4225
  180MOL   H24747145   3.830   4.401   6.424 -1.1971 -0.0909  0.5229
  180MOL   H24847146   3.985   4.410   6.417 -0.5829 -2.2874 -0.6206
  180MOL   C24947147   3.907   4.565   6.555 -0.0028  0.5691 -0.3602
  180MOL   C25047148   3.910   4.681   6.453 -0.0733 -0.2946 -0.1195
  180MOL   C25147149   3.833   4.795   6.453  0.2829  0.3016  0.1092
  180MOL   C25247150   3.846   4.904   6.351 -0.4126  0.4289  0.6036
  180MOL   C25347151   3.722   4.825   6.561 -0.2455 -0.2807 -0.5246
  180MOL   H25447152   3.988   4.577   6.627  0.0149 -0.4974 -0.1904
  180MOL   H25547153   3.825   4.565   6.626  0.5756  1.7518  0.3158
  180MOL   H25647154   3.971   4.663   6.366 -0.4902 -0.7404 -0.3167
  180MOL   H25747155   3.867   5.001   6.394 -1.3227  0.3591  1.2069
  180MOL   H25847156   3.749   4.903   6.303 -0.4273  0.6870  0.6288
  180MOL   H25947157   3.914   4.883   6.268 -1.0174  1.3761 -0.1327
  180MOL   H26047158   3.624   4.809   6.515  0.6556 -1.5335 -2.0531
  180MOL   H26147159   3.721   4.927   6.600  0.0347  0.2774 -1.9365
  180MOL   H26247160   3.731   4.755   6.643 -0.1827  0.0744 -0.2282
  181MOL     C147161   7.296   1.080   5.566 -0.1066  1.3110  0.1991
  181MOL     C247162   7.409   1.153   5.512 -0.6921 -0.0980 -0.0127
  181MOL     C347163   7.490   1.131   5.409  0.4126 -0.9663  0.5915
  181MOL     C447164   7.601   1.224   5.373  0.1763 -0.1933  0.1097
  181MOL     C547165   7.482   1.003   5.330 -0.6945  0.0346 -1.0282
  181MOL     H647166   7.217   1.095   5.492 -0.7134 -0.2571  0.5213
  181MOL     H747167   7.303   0.972   5.565 -1.9649  1.1790 -0.4551
  181MOL     H847168   7.420   1.239   5.576 -0.5459 -1.0646  1.2754
  181MOL     H947169   7.603   1.321   5.423  1.0841  0.5312 -1.2987
  181MOL    H1047170   7.580   1.247   5.268  1.8776 -2.3755 -0.7411
  181MOL    H1147171   7.702   1.190   5.391  0.4576  1.1601  1.0895
  181MOL    H1247172   7.435   0.921   5.384  0.8254 -0.5864 -0.6315
  181MOL    H1347173   7.578   0.954   5.312 -1.2496 -1.3118 -0.4111
  181MOL    H1447174   7.253   1.111   5.661  0.0294  1.3451  0.2504
  181MOL    C1547175   7.396   1.030   5.207  0.4324  0.7771  0.1335
  181MOL    C1647176   7.381   0.900   5.113 -0.3540 -0.1771 -0.3493
  181MOL    C1747177   7.289   0.801   5.120  1.2979  0.0978  0.3827
  181MOL    C1847178   7.278   0.695   5.013 -0.2110  0.0349  0.8287
  181MOL    C1947179   7.179   0.805   5.228  0.1377  0.4256 -0.1236
  181MOL    H2047180   7.431   1.110   5.142 -0.7642  0.6086 -0.7441
  181MOL    H2147181   7.296   1.061   5.237  0.7424  0.3461  1.6796
  181MOL    H2247182   7.451   0.901   5.031 -1.5598 -0.5110 -1.3954
  181MOL    H2347183   7.233   0.603   5.050  1.1481 -0.5905  0.9474
  181MOL    H2447184   7.376   0.682   4.967 -0.7899  1.7541 -0.9755
  181MOL    H2547185   7.209   0.743   4.944  0.9679 -0.0386 -0.4225
  181MOL    H2647186   7.075   0.797   5.194 -0.3241 -0.3070  1.3975
  181MOL    H2747187   7.180   0.904   5.275  0.2840  1.8152 -2.9536
  181MOL    C2847188   7.202   0.695   5.339 -0.5622  0.1109  0.8417
  181MOL    C2947189   7.115   0.729   5.459 -0.6705 -0.8571  0.1050
  181MOL    C3047190   7.131   0.696   5.589 -0.8907 -0.3525 -0.1580
  181MOL    C3147191   7.058   0.764   5.702 -0.8458 -0.3279  0.2627
  181MOL    C3247192   7.236   0.603   5.636 -0.0711 -0.1773 -0.2248
  181MOL    H3347193   7.302   0.710   5.377 -0.2421 -1.0794  0.4924
  181MOL    H3447194   7.197   0.590   5.310  1.1284  0.8928 -2.6223
  181MOL    H3547195   7.033   0.797   5.442 -0.2438 -0.0707  1.1519
  181MOL    H3647196   6.969   0.820   5.672 -0.7782  0.8096  2.1414
  181MOL    H3747197   7.138   0.821   5.749  0.6701 -1.3456 -1.0109
  181MOL    H3847198   7.030   0.693   5.780  1.5489 -1.0646  0.4873
  181MOL    H3947199   7.273   0.537   5.557  1.3079 -2.1895  2.0040
  181MOL    H4047200   7.208   0.538   5.719  2.1671  2.5529  2.7899
  181MOL    C4147201   7.357   0.682   5.683  0.1114  0.0835  0.5037
  181MOL    C4247202   7.471   0.587   5.720  1.0461  0.1190  0.5367
  181MOL    C4347203   7.586   0.627   5.768  0.4488 -0.5519  0.2571
  181MOL    C4447204   7.683   0.528   5.836  0.0686 -0.2015  0.0899
  181MOL    C4547205   7.628   0.777   5.787 -0.2139  0.6243  0.1660
  181MOL    H4647206   7.336   0.749   5.766  1.9420  0.8622  0.3623
  181MOL    H4747207   7.378   0.744   5.595  2.0905 -0.8889  0.2690
  181MOL    H4847208   7.446   0.482   5.717  0.4888  0.2360  1.0034
  181MOL    H4947209   7.690   0.430   5.791  1.2468 -0.4050  0.7086
  181MOL    H5047210   7.683   0.507   5.943 -0.5743  1.3947  0.4342
  181MOL    H5147211   7.787   0.559   5.826  0.5564 -2.0079 -0.5852
  181MOL    H5247212   7.647   0.794   5.893 -2.4952 -0.5559  0.7901
  181MOL    H5347213   7.542   0.837   5.759 -0.8133 -0.5105 -0.4980
  181MOL    C5447214   7.747   0.823   5.692  0.7480 -0.4719  0.2811
  181MOL    C5547215   7.760   0.970   5.702 -0.4263  0.0913  0.0462
  181MOL    C5647216   7.866   1.042   5.658  0.3904  0.0716  1.0081
  181MOL    C5747217   7.862   1.195   5.671  0.4267 -0.1432  0.3264
  181MOL    C5847218   0.107   0.979   5.587 -0.5710  0.4700  0.0887
  181MOL    H5947219   7.733   0.803   5.585  2.5121 -0.3334  0.0181
  181MOL    H6047220   7.842   0.782   5.725  1.5499  1.7534  0.8042
  181MOL    H6147221   7.690   1.021   5.766  1.0518  1.0693  0.9202
  181MOL    H6247222   0.078   1.236   5.705 -0.6575  0.8171  2.3115
  181MOL    H6347223   7.794   1.220   5.753  2.6620  2.2940  1.5117
  181MOL    H6447224   7.832   1.245   5.579 -2.7806  1.6590  2.2623
  181MOL    H6547225   0.125   1.022   5.489  2.5836  1.3503  0.9918
  181MOL    H6647226   0.082   0.874   5.569 -0.6748  0.3891  0.6685
  181MOL    C6747227   0.223   0.968   5.687  0.3301 -0.1431  0.3367
  181MOL    C6847228   0.334   0.877   5.624  0.5641 -0.1943  0.0094
  181MOL    C6947229   0.461   0.914   5.604  0.6201 -0.8186 -0.3726
  181MOL    C7047230   0.560   0.809   5.543  0.0101 -0.1008  0.1598
  181MOL    C7147231   0.523   1.050   5.640 -0.4511  0.9423  0.0220
  181MOL    H7247232   0.169   0.928   5.773 -1.5531  1.7010  0.0370
  181MOL    H7347233   0.262   1.066   5.715 -0.1309 -0.1008  0.8376
  181MOL    H7447234   0.305   0.779   5.588 -1.2433 -0.0168  0.9319
  181MOL    H7547235   0.501   0.728   5.499  0.0380  0.7648 -1.5355
  181MOL    H7647236   0.637   0.770   5.609 -1.0068 -2.5555 -0.0360
  181MOL    H7747237   0.616   0.859   5.464  0.2881 -1.8027 -0.7501
  181MOL    H7847238   0.453   1.131   5.623  0.2758  1.0161 -3.1040
  181MOL    H7947239   0.607   1.068   5.572 -1.0766  0.1395 -0.9817
  181MOL    C8047240   0.591   1.053   5.775  0.3032  0.3616 -0.3759
  181MOL    C8147241   0.498   1.060   5.894 -0.2500 -0.4695 -0.2639
  181MOL    C8247242   0.481   1.160   5.985  0.1714  0.4994  0.0399
  181MOL    C8347243   0.555   1.291   5.990  0.0826  1.0559  0.5383
  181MOL    C8447244   0.381   1.147   6.097  0.1506  0.4035 -0.8307
  181MOL    H8547245   0.648   1.146   5.770 -1.8025  1.5912 -3.1001
  181MOL    H8647246   0.655   0.967   5.794 -2.7675 -1.9555 -0.1026
  181MOL    H8747247   0.448   0.966   5.914 -1.6234 -0.6039 -3.9627
  181MOL    H8847248   0.601   1.333   5.901  0.4063 -1.3114 -0.4625
  181MOL    H8947249   0.636   1.279   6.062 -0.6316 -0.2566  1.1468
  181MOL    H9047250   0.492   1.371   6.028 -1.5418  0.1777 -0.2346
  181MOL    H9147251   0.304   1.079   6.062  0.1585 -1.7237  2.9403
  181MOL    H9247252   0.320   1.236   6.107  0.8895  0.8720 -0.4435
  181MOL    C9347253   0.445   1.104   6.234  0.2040 -0.2054 -0.0677
  181MOL    C9447254   0.347   1.082   6.339  0.3002  0.3210  0.2418
  181MOL    C9547255   0.342   1.138   6.460  0.3204 -0.5331  1.3987
  181MOL    C9647256   0.216   1.161   6.526 -0.1473  0.3308 -0.2231
  181MOL    C9747257   0.457   1.200   6.531  0.0523  0.5242 -0.2435
  181MOL    H9847258   0.519   1.180   6.259 -1.0207  0.9802  0.0087
  181MOL    H9947259   0.499   1.009   6.227  2.2539  0.9689 -0.5901
  181MOL   H10047260   0.256   1.043   6.295 -0.0905  3.4073 -1.8477
  181MOL   H10147261   0.215   1.135   6.631 -0.6849 -0.3423 -0.3906
  181MOL   H10247262   0.181   1.265   6.519  1.8053  1.0328  0.2552
  181MOL   H10347263   0.141   1.091   6.488 -0.3464  1.1661 -1.4170
  181MOL   H10447264   0.546   1.147   6.497 -0.1738 -0.0820  0.1080
  181MOL   H10547265   0.456   1.174   6.637  0.0847  0.0814 -0.3523
  181MOL   C10647266   0.455   1.356   6.519  0.1934 -0.9695  0.1044
  181MOL   C10747267   0.593   1.411   6.565 -0.9344 -0.4466  0.3241
  181MOL   C10847268   0.687   1.471   6.491 -0.2390 -0.2668 -0.0773
  181MOL   C10947269   0.660   1.494   6.339  0.2705  0.2077  0.2266
  181MOL   C11047270   0.815   1.533   6.553  0.0361 -0.6802  0.4572
  181MOL   H11147271   0.374   1.400   6.577  1.3527  2.7618 -0.8952
  181MOL   H11247272   0.433   1.369   6.413 -0.5449  0.4552  0.4156
  181MOL   H11347273   0.607   1.402   6.672 -3.8829  1.1250  0.8945
  181MOL   H11447274   0.584   1.570   6.322  1.3880  1.2389 -0.1912
  181MOL   H11547275   0.757   1.519   6.297  0.5570  1.2953  1.4886
  181MOL   H11647276   0.633   1.395   6.303  0.6748  0.1952 -0.0402
  181MOL   H11747277   0.900   1.468   6.532 -0.5217 -0.6832 -1.9450
  181MOL   H11847278   0.810   1.527   6.662 -0.0434  0.9317  0.5404
  181MOL   C11947279   0.849   1.681   6.514 -0.3722 -1.0816 -0.2666
  181MOL   C12047280   0.973   1.743   6.576  0.4285  0.2823  0.3256
  181MOL   C12147281   1.069   1.811   6.515  0.3142 -0.3010  0.3854
  181MOL   C12247282   1.187   1.864   6.594 -0.1746  0.0450  0.3183
  181MOL   C12347283   1.061   1.857   6.369  0.5740  0.4214  0.7945
  181MOL   H12447284   0.771   1.752   6.542  1.3550  0.8385 -0.2161
  181MOL   H12547285   0.862   1.684   6.406  0.8957 -0.5930 -0.1094
  181MOL   H12647286   0.982   1.731   6.682  1.2194  3.0254  0.6070
  181MOL   H12747287   1.274   1.808   6.559 -1.9329 -2.4710 -0.1540
  181MOL   H12847288   1.172   1.843   6.700  0.8898  0.1751  0.4940
  181MOL   H12947289   1.192   1.970   6.569 -1.7488  0.5209  1.8911
  181MOL   H13047290   1.081   1.963   6.353  2.0854 -0.1225 -1.0980
  181MOL   H13147291   0.956   1.852   6.338  0.7531  1.2953  0.0178
  181MOL   C13247292   1.144   1.788   6.261  0.9423  0.6068 -0.1622
  181MOL   C13347293   1.111   1.829   6.112 -0.4364 -0.1480 -1.0325
  181MOL   C13447294   1.061   1.748   6.016  0.6331 -0.6805  0.4223
  181MOL   C13547295   1.041   1.806   5.876 -0.2542  0.0544 -0.1491
  181MOL   C13647296   1.001   1.614   6.047 -0.3878 -0.2750  0.0027
  181MOL   H13747297   1.132   1.680   6.272 -0.6653  0.6831 -1.0310
  181MOL   H13847298   1.251   1.802   6.278  0.3602  1.0734  3.4110
  181MOL   H13947299   1.139   1.932   6.096  0.3555 -0.2832 -0.5654
  181MOL   H14047300   1.087   1.755   5.791  0.2254 -0.5356  0.4673
  181MOL   H14147301   1.093   1.900   5.858 -0.5825  0.2366 -0.1576
  181MOL   H14247302   0.939   1.824   5.842 -1.4649 -1.0799  2.7227
  181MOL   H14347303   0.912   1.617   5.984  1.2207  0.4117 -2.2984
  181MOL   H14447304   0.965   1.613   6.150 -0.1746 -0.6717  0.0771
  181MOL   C14547305   1.090   1.496   6.009  0.1084  0.5045  0.5240
  181MOL   C14647306   1.007   1.371   6.021  0.4175  0.2841  0.2733
  181MOL   C14747307   1.030   1.264   6.101  0.3449  1.1973  0.0588
  181MOL   C14847308   0.932   1.143   6.093 -0.4417 -0.2890  0.5929
  181MOL   C14947309   1.141   1.256   6.204  0.2247 -0.0391 -0.5165
  181MOL   H15047310   1.179   1.501   6.071  1.5744  0.6736 -1.5442
  181MOL   H15147311   1.113   1.502   5.903  0.2601 -0.0247  0.5275
  181MOL   H15247312   0.931   1.354   5.946  0.9995 -0.0171 -0.2559
  181MOL   H15347313   0.875   1.137   6.185 -2.0338 -1.2953 -0.4480
  181MOL   H15447314   0.982   1.048   6.076  0.1310 -0.1563  1.5011
  181MOL   H15547315   0.863   1.169   6.013  0.0349  0.2395  0.3427
  181MOL   H15647316   1.232   1.298   6.163  0.5204 -0.6263 -0.4680
  181MOL   H15747317   1.149   1.148   6.215 -3.6554 -0.3726 -0.2424
  181MOL   C15847318   1.113   1.314   6.342  0.8325  0.1841  0.2103
  181MOL   C15947319   1.235   1.285   6.432 -0.1061 -0.3139  0.0173
  181MOL   C16047320   1.284   1.370   6.527 -0.0828 -0.8755  0.9191
  181MOL   C16147321   1.225   1.511   6.547  0.3288 -0.1039 -0.4683
  181MOL   C16247322   1.406   1.328   6.610  0.5313 -0.4582  1.1781
  181MOL   H16347323   1.032   1.249   6.376  0.3306 -0.9035 -2.9704
  181MOL   H16447324   1.072   1.415   6.346 -0.6702 -0.3714 -1.1327
  181MOL   H16547325   1.280   1.187   6.422  2.2749  0.7482  0.0431
  181MOL   H16647326   1.263   1.580   6.472  1.1645 -0.2124 -0.1530
  181MOL   H16747327   1.262   1.559   6.638  0.0612 -2.7825  1.0920
  181MOL   H16847328   1.118   1.498   6.563  0.7585 -0.7807  2.0487
  181MOL   H16947329   1.480   1.407   6.600  0.1813 -0.2577  0.0987
  181MOL   H17047330   1.449   1.236   6.572 -1.6878 -0.7735 -0.6273
  181MOL   C17147331   1.367   1.310   6.758  0.1535  0.1193 -0.6277
  181MOL   C17247332   1.484   1.262   6.842 -1.0759 -0.4671 -0.1632
  181MOL   C17347333   1.480   1.159   6.928  0.2976  0.2990 -0.3430
  181MOL   C17447334   1.357   1.071   6.940  0.0465 -0.0039 -0.0716
  181MOL   C17547335   1.597   1.124   7.014 -0.8676 -0.1922 -0.5035
  181MOL   H17647336   1.292   1.231   6.752  0.7675 -0.3196 -3.1301
  181MOL   H17747337   1.321   1.402   6.792  1.8922  0.3428  1.2285
  181MOL   H17847338   1.579   1.314   6.841  0.4776 -3.1489  1.4924
  181MOL   H17947339   1.340   1.013   6.849 -0.1102  0.8689 -0.6131
  181MOL   H18047340   1.267   1.131   6.955  0.9040  0.8368  1.8573
  181MOL   H18147341   1.371   1.006   7.026  1.9361  1.6882  0.9437
  181MOL   H18247342   1.678   1.185   6.973 -1.5247  0.0455 -1.4743
  181MOL   H18347343   1.617   1.018   7.001 -0.2814 -0.2605  0.8999
  181MOL   C18447344   1.577   1.141   7.164  0.3340 -0.2326  0.5300
  181MOL   C18547345   1.672   1.046   7.237 -0.0908 -0.4349 -0.1156
  181MOL   C18647346   1.713   1.046   7.367 -0.4618 -0.1116 -0.6020
  181MOL   C18747347   1.811   0.936   7.417  0.3066 -0.9919 -0.0038
  181MOL   C18847348   1.656   1.148   7.472  0.1798  0.4604 -0.0902
  181MOL   H18947349   1.481   1.110   7.206  0.5808 -0.0810  1.2122
  181MOL   H19047350   1.584   1.241   7.205  0.3533  0.3866 -0.9678
  181MOL   H19147351   1.710   0.968   7.173 -0.1951  1.0229 -1.9933
  181MOL   H19247352   1.764   0.838   7.426  0.9143 -1.3623 -0.8142
  181MOL   H19347353   1.866   0.952   7.509 -0.4276  0.5907  0.1740
  181MOL   H19447354   1.882   0.940   7.334  0.8462  2.8423  0.5483
  181MOL   H19547355   1.624   1.237   7.417 -3.1326  0.3081  1.5206
  181MOL   H19647356   1.739   1.179   7.536  1.2025 -0.3380 -1.0044
  181MOL   C19747357   1.558   1.097   7.576 -0.5116 -0.1365 -1.3649
  181MOL   C19847358   1.503   1.211   7.664  0.1469  0.4557 -0.0372
  181MOL   C19947359   1.381   1.264   7.658 -0.2699 -0.1912  0.9073
  181MOL   C20047360   1.349   1.383   7.742 -0.0740 -0.1798 -0.0515
  181MOL   C20147361   1.273   1.214   7.570  0.2756  0.3003  0.0389
  181MOL   H20247362   1.601   1.013   7.630 -2.5409 -0.4392 -0.1659
  181MOL   H20347363   1.474   1.063   7.514 -2.5410  0.5298  0.9623
  181MOL   H20447364   1.567   1.256   7.739 -3.0142  0.6660  2.6347
  181MOL   H20547365   1.426   1.416   7.811  1.1990 -2.9789 -0.0558
  181MOL   H20647366   1.264   1.371   7.809  0.4191 -0.3387  0.5472
  181MOL   H20747367   1.329   1.464   7.672 -2.2100 -1.8086 -1.3940
  181MOL   H20847368   1.263   1.105   7.562 -0.9474  0.5285 -1.9086
  181MOL   H20947369   1.281   1.245   7.466 -2.7728 -1.6581 -0.8641
  181MOL   C21047370   1.127   1.270   7.596  0.5603 -0.3812  0.3849
  181MOL   C21147371   1.027   1.198   7.507  0.9150  0.6005  0.2672
  181MOL   C21247372   0.926   1.121   7.544  0.8606  0.3287 -0.0088
  181MOL   C21347373   0.861   1.037   7.430  0.5915  0.5177  0.4240
  181MOL   C21447374   0.879   1.104   7.683 -0.0192  0.0374  0.3588
  181MOL   H21547375   1.120   1.378   7.580 -0.6545 -0.8812 -2.8431
  181MOL   H21647376   1.102   1.262   7.702 -0.4048 -0.2170  0.1687
  181MOL   H21747377   1.060   1.191   7.404 -0.1553 -0.3604 -0.0139
  181MOL   H21847378   0.906   1.069   7.336  0.6835  1.2317  0.7043
  181MOL   H21947379   0.752   1.030   7.433  0.6498 -0.0456  1.9599
  181MOL   H22047380   0.885   0.934   7.455  0.6573  1.0983  2.9365
  181MOL   H22147381   0.774   1.077   7.692 -0.2937  1.5904  2.2699
  181MOL   H22247382   0.893   1.193   7.746 -1.7333 -0.6701  1.7744
  181MOL   C22347383   0.968   1.002   7.753 -0.5351  0.2321  0.5054
  181MOL   C22447384   0.939   0.991   0.021  0.3025 -0.4714 -0.5888
  181MOL   C22547385   1.034   0.968   0.115  0.7927  0.4632 -0.4035
  181MOL   C22647386   0.987   0.964   0.263 -0.0137 -0.0850  0.4644
  181MOL   C22747387   1.180   0.944   0.089  0.0553 -0.9366 -0.1860
  181MOL   H22847388   1.072   1.024   7.728 -0.2680 -0.8404  0.6488
  181MOL   H22947389   0.941   0.907   7.706 -1.8726  0.5333  0.6501
  181MOL   H23047390   0.835   1.004   0.048  0.5933  1.0016 -0.1252
  181MOL   H23147391   1.062   1.019   0.321 -0.0754  0.9546 -0.4417
  181MOL   H23247392   0.988   0.866   0.312  0.0403 -0.0633  0.5062
  181MOL   H23347393   0.889   1.005   0.284 -0.5124 -0.8638 -0.3079
  181MOL   H23447394   1.189   0.907   7.866 -0.5788  0.6008 -0.8118
  181MOL   H23547395   1.219   0.867   0.156 -0.7502 -1.5678 -0.4399
  181MOL   C23647396   1.259   1.077   0.100  0.1479 -0.6080  0.4164
  181MOL   C23747397   1.405   1.072   0.066  0.0965 -0.1194  0.3467
  181MOL   C23847398   1.501   1.157   0.113  0.1224 -0.2196  0.2899
  181MOL   C23947399   1.645   1.126   0.085 -0.6370 -0.4573  0.4297
  181MOL   C24047400   1.471   1.280   0.194  0.1801 -0.8178  0.1992
  181MOL   H24147401   1.256   1.096   0.207  1.5562 -1.1635  0.5574
  181MOL   H24247402   1.199   1.156   0.054 -3.6022 -2.7674  1.3657
  181MOL   H24347403   1.434   0.994   7.877 -2.9590  0.2980 -1.5487
  181MOL   H24447404   1.679   1.042   0.146  1.1336  0.2214  0.4026
  181MOL   H24547405   1.709   1.212   0.104  3.4193 -3.4114  0.6963
  181MOL   H24647406   1.651   1.100   7.858  1.2924  0.2655  0.3294
  181MOL   H24747407   1.365   1.303   0.207  0.6684  0.4978  2.0812
  181MOL   H24847408   1.505   1.364   0.133  0.1945 -1.1944 -0.3097
  181MOL   C24947409   1.526   1.276   0.330 -0.6384 -0.4399 -0.1868
  181MOL   C25047410   1.486   1.401   0.418 -0.2162 -0.4110  0.4556
  181MOL   C25147411   1.555   1.508   0.471 -0.1205  0.1079 -0.1919
  181MOL   C25247412   1.481   1.604   0.572  0.2073 -0.0247  0.3680
  181MOL   C25347413   1.701   1.540   0.451 -0.3016  0.6031  0.7252
  181MOL   H25447414   1.634   1.266   0.321 -0.3991  1.2649  0.5605
  181MOL   H25547415   1.486   1.191   0.385 -2.5972  1.1605  0.9371
  181MOL   H25647416   1.379   1.406   0.431 -0.0181  1.7536  1.3658
  181MOL   H25747417   1.557   1.653   0.634  0.3354  1.2742 -0.8006
  181MOL   H25847418   1.435   1.551   0.656  0.8714 -0.5395  0.4088
  181MOL   H25947419   1.416   1.678   0.525 -1.1157 -1.5988 -0.2983
  181MOL   H26047420   1.733   1.474   0.370  0.9303 -0.3768  1.9973
  181MOL   H26147421   1.765   1.504   0.531  1.0175  2.4396  0.5280
  181MOL   H26247422   1.726   1.644   0.429 -0.1992  0.2302 -1.0262
  182MOL     C147423   3.240   7.237   1.116 -0.3153  0.2475  0.5230
  182MOL     C247424   3.255   7.095   1.059 -0.5334  0.4003  0.5958
  182MOL     C347425   3.310   7.069   0.939  0.0911 -0.8241 -0.3798
  182MOL     C447426   3.330   6.923   0.895 -0.0207  0.7435 -0.3063
  182MOL     C547427   3.360   7.167   0.842  0.1397 -0.2533  0.1918
  182MOL     H647428   3.221   7.224   1.223 -1.2622 -1.5858  0.1450
  182MOL     H747429   3.329   7.298   1.102  0.4492 -1.4960 -2.4511
  182MOL     H847430   3.210   7.011   1.109 -1.5900  1.0816  0.8030
  182MOL     H947431   3.431   6.904   0.858  0.3303 -0.6300  1.3007
  182MOL    H1047432   3.257   6.895   0.819  0.0191 -2.6414  0.8469
  182MOL    H1147433   3.294   6.862   0.977  1.0608  0.6480  0.0991
  182MOL    H1247434   3.326   7.269   0.858  0.1524 -0.2056 -0.0827
  182MOL    H1347435   3.319   7.144   0.743  0.2039 -0.8794  0.3047
  182MOL    H1447436   3.157   7.288   1.066 -0.4567  0.5339  1.0488
  182MOL    C1547437   3.519   7.172   0.840  0.3378  1.0651 -0.3564
  182MOL    C1647438   3.561   7.281   0.741  0.3576  0.6994  0.3400
  182MOL    C1747439   3.647   7.272   0.641  0.0676 -0.1365 -0.1680
  182MOL    C1847440   3.692   7.394   0.556  0.3988 -0.7175 -0.5119
  182MOL    C1947441   3.725   7.144   0.613  0.5057 -0.1773  0.6764
  182MOL    H2047442   3.570   7.081   0.806  0.4396  0.6701  0.8488
  182MOL    H2147443   3.566   7.202   0.933 -0.7805  0.8600  0.2820
  182MOL    H2247444   3.500   7.371   0.739  0.4982  0.7954 -3.4511
  182MOL    H2347445   3.643   7.485   0.591  1.2725  0.1372 -1.4905
  182MOL    H2447446   3.677   7.383   0.448 -1.9410  0.2843 -0.3253
  182MOL    H2547447   3.800   7.399   0.572 -0.0179  0.4671  2.1667
  182MOL    H2647448   3.742   7.144   0.505 -0.4802 -2.3656  0.5125
  182MOL    H2747449   3.672   7.051   0.628 -1.6246  0.6186 -1.5647
  182MOL    C2847450   3.854   7.136   0.702 -0.0920 -0.7213  0.4482
  182MOL    C2947451   3.928   7.009   0.671  0.0002  0.0784  0.2582
  182MOL    C3047452   3.941   6.909   0.762  0.0172 -0.1668 -0.6315
  182MOL    C3147453   4.000   6.771   0.724 -0.0983  0.0643 -0.8839
  182MOL    C3247454   3.913   6.926   0.914  0.5722  0.2469 -0.3812
  182MOL    H3347455   3.827   7.138   0.807  2.4273 -2.9857  1.1952
  182MOL    H3447456   3.927   7.215   0.683 -1.9591  0.6901 -1.1485
  182MOL    H3547457   3.952   6.990   0.568  0.5023  0.4896  0.2958
  182MOL    H3647458   4.020   6.754   0.618  1.5583  1.0520 -0.7384
  182MOL    H3747459   3.928   6.694   0.755 -3.3541  2.0044 -3.2785
  182MOL    H3847460   4.099   6.766   0.769  0.5370  2.7104 -1.9027
  182MOL    H3947461   3.938   7.029   0.941 -1.0189  0.5047  0.1857
  182MOL    H4047462   3.983   6.860   0.963  0.2408  0.1261 -0.0680
  182MOL    C4147463   3.770   6.896   0.955 -1.1833 -0.1996  0.4414
  182MOL    C4247464   3.753   6.875   1.107 -0.4574  0.0920  0.6263
  182MOL    C4347465   3.764   6.763   1.181  0.2509 -0.0328 -0.0623
  182MOL    C4447466   3.731   6.769   1.330 -0.1619  0.2395  0.6956
  182MOL    C4547467   3.808   6.625   1.128  0.4738 -0.2713 -0.0496
  182MOL    H4647468   3.733   6.806   0.904 -0.9611 -1.6185  2.7299
  182MOL    H4747469   3.697   6.968   0.919 -1.3899 -1.4609 -1.7834
  182MOL    H4847470   3.711   6.964   1.150 -1.2732  0.2126 -0.4039
  182MOL    H4947471   3.822   6.756   1.389 -0.8543 -0.5933  1.6062
  182MOL    H5047472   3.665   6.689   1.364 -0.2592  1.0030  2.3143
  182MOL    H5147473   3.676   6.858   1.358 -1.7479 -0.2498 -0.7687
  182MOL    H5247474   3.786   6.609   1.023  2.8640 -0.0328 -0.6129
  182MOL    H5347475   3.743   6.546   1.166 -1.1150  0.8472 -0.3836
  182MOL    C5447476   3.956   6.607   1.147 -0.0732 -0.2950  0.0156
  182MOL    C5547477   4.002   6.482   1.065  0.2744  0.9500 -0.2694
  182MOL    C5647478   4.108   6.408   1.081 -0.2348 -0.0629 -0.3136
  182MOL    C5747479   4.152   6.304   0.979  0.2286  0.1131  0.3054
  182MOL    C5847480   4.195   6.430   1.204 -0.0341 -0.0979  0.6637
  182MOL    H5947481   3.982   6.601   1.252 -2.8304  0.9368  0.8145
  182MOL    H6047482   4.012   6.691   1.104 -1.0387 -0.4262 -1.5544
  182MOL    H6147483   3.959   6.470   0.967  3.9828  2.8246 -2.2327
  182MOL    H6247484   4.237   6.351   0.928 -0.8898 -1.8321 -3.5689
  182MOL    H6347485   4.076   6.278   0.906 -1.3852 -0.2291  2.0684
  182MOL    H6447486   4.175   6.211   1.032 -1.2670  0.2182  1.1610
  182MOL    H6547487   4.250   6.337   1.215 -0.7064 -0.5436  0.3330
  182MOL    H6647488   4.123   6.433   1.286 -0.2440 -0.7413  0.5063
  182MOL    C6747489   4.286   6.559   1.197  0.0035  0.8476 -0.3618
  182MOL    C6847490   4.380   6.540   1.082 -0.7175  0.2473  0.7087
  182MOL    C6947491   4.395   6.617   0.972  0.5431 -0.2935  0.0059
  182MOL    C7047492   4.489   6.574   0.862  0.2745 -0.5659  0.1735
  182MOL    C7147493   4.310   6.744   0.950  0.6357 -0.2815  0.9965
  182MOL    H7247494   4.355   6.568   1.281  1.1362 -2.5052 -0.8564
  182MOL    H7347495   4.221   6.646   1.186 -0.8395  0.3202  0.4890
  182MOL    H7447496   4.443   6.453   1.091  1.0816  1.3772 -0.5691
  182MOL    H7547497   4.560   6.656   0.845  1.0012 -1.4253 -1.1080
  182MOL    H7647498   4.433   6.578   0.768  0.3141  1.0419  0.1995
  182MOL    H7747499   4.541   6.479   0.877  1.5718  0.2837  1.0974
  182MOL    H7847500   4.210   6.733   0.991  0.5444 -0.6370  0.6841
  182MOL    H7947501   4.293   6.766   0.844 -0.9428  0.3472  1.3733
  182MOL    C8047502   4.392   6.859   1.001 -0.2034  0.1379 -0.6540
  182MOL    C8147503   4.308   6.980   1.048 -0.0720  0.1240 -0.1788
  182MOL    C8247504   4.264   7.081   0.972  0.0215  0.1704  0.3562
  182MOL    C8347505   4.291   7.093   0.828  0.0998 -0.0045  0.1134
  182MOL    C8447506   4.192   7.204   1.029 -0.4027  0.2855 -0.0992
  182MOL    H8547507   4.470   6.888   0.930  2.4343 -0.6391  1.8244
  182MOL    H8647508   4.445   6.828   1.091 -0.6359  1.5513  0.1112
  182MOL    H8747509   4.278   6.979   1.152 -0.9180 -1.4789 -0.4329
  182MOL    H8847510   4.204   7.132   0.775  1.1075 -0.1308 -1.6481
  182MOL    H8947511   4.325   7.005   0.774  0.3756  1.1542 -1.6327
  182MOL    H9047512   4.369   7.168   0.818 -0.8887  0.7080 -2.7558
  182MOL    H9147513   4.181   7.182   1.135  2.3133  0.7923  0.3140
  182MOL    H9247514   4.093   7.204   0.984  0.5457  0.0231 -2.2464
  182MOL    C9347515   4.271   7.335   1.004 -0.3249  0.0126 -0.4852
  182MOL    C9447516   4.194   7.449   1.052 -0.4667 -0.1214  0.0090
  182MOL    C9547517   4.208   7.526   1.160  0.1056 -0.0192 -1.1026
  182MOL    C9647518   4.119   7.657   1.170 -0.2606 -0.3302 -0.2651
  182MOL    C9747519   4.322   7.508   1.259  0.8087 -0.0992 -0.3448
  182MOL    H9847520   4.288   7.358   0.899  0.3880 -0.3004 -0.4364
  182MOL    H9947521   4.368   7.347   1.052 -1.0673  2.1549  0.5606
  182MOL   H10047522   4.123   7.488   0.981 -1.5335 -2.3893 -0.2355
  182MOL   H10147523   4.069   7.679   1.075  2.0315 -0.6756 -1.5972
  182MOL   H10247524   4.044   7.645   1.248 -0.6139  1.8537 -0.2382
  182MOL   H10347525   4.167   7.747   1.207 -0.3973 -0.7464  0.9276
  182MOL   H10447526   4.359   7.406   1.249 -0.8961 -0.7761  0.1183
  182MOL   H10547527   4.279   7.515   1.359 -1.5539 -0.8166 -1.2653
  182MOL   C10647528   4.436   7.612   1.242  0.4553 -0.0607 -0.1677
  182MOL   C10747529   4.491   7.627   1.102 -0.3433  0.2216  0.4988
  182MOL   C10847530   4.545   7.732   1.043 -0.2871 -0.5874 -0.4096
  182MOL   C10947531   4.574   7.864   1.119 -0.0863 -0.4231  0.3559
  182MOL   C11047532   4.594   7.723   0.898 -0.1454  0.7122  0.0617
  182MOL   H11147533   4.515   7.588   1.313  1.1311  1.5465 -0.3528
  182MOL   H11247534   4.398   7.711   1.267  2.0171  0.7990 -1.0825
  182MOL   H11347535   4.481   7.535   1.046  1.3263  1.5879 -2.1422
  182MOL   H11447536   4.495   0.010   1.190 -0.5057 -1.0130  0.0927
  182MOL   H11547537   4.670   7.846   1.166  0.9035 -1.0214 -1.8564
  182MOL   H11647538   4.588   0.069   1.051  1.0635 -1.3278 -0.5234
  182MOL   H11747539   4.620   7.622   0.866  1.6538  1.0866  0.2812
  182MOL   H11847540   4.685   7.780   0.880 -0.4531  1.2342  0.1355
  182MOL   C11947541   4.497   7.777   0.798 -0.7264 -0.4710 -0.5219
  182MOL   C12047542   4.376   7.687   0.767 -0.3912 -0.4733  0.4101
  182MOL   C12147543   4.338   7.629   0.650 -0.3305  0.1078 -0.1302
  182MOL   C12247544   4.228   7.528   0.644 -0.2220  0.2012  0.1255
  182MOL   C12347545   4.407   7.645   0.513  0.2940 -0.6893  0.2331
  182MOL   H12447546   4.553   7.798   0.707 -0.4461  0.6266 -0.1092
  182MOL   H12547547   4.459   7.875   0.829 -0.2104 -0.6561  0.6949
  182MOL   H12647548   4.315   7.642   0.844 -3.9646 -0.4772 -2.2786
  182MOL   H12747549   4.275   7.441   0.597  0.0323  0.5338 -0.2398
  182MOL   H12847550   4.146   7.567   0.584 -0.6562 -0.8234  0.0398
  182MOL   H12947551   4.187   7.502   0.742 -0.9441  0.6301 -0.0570
  182MOL   H13047552   4.416   7.753   0.496  1.3125 -0.6412  1.0430
  182MOL   H13147553   4.341   7.620   0.430 -1.1350 -4.4123  2.3814
  182MOL   C13247554   4.538   7.563   0.502 -0.9589 -0.2933 -0.2979
  182MOL   C13347555   4.539   7.477   0.384 -0.3787  0.5533  0.2246
  182MOL   C13447556   4.591   7.356   0.382 -0.5855  0.1165  0.1900
  182MOL   C13547557   4.586   7.272   0.254  0.1887 -0.5021  0.8867
  182MOL   C13647558   4.661   7.287   0.502  0.2165 -0.1956  0.1311
  182MOL   H13747559   4.553   7.500   0.590 -2.3252 -1.5567 -0.9492
  182MOL   H13847560   4.623   7.631   0.497 -0.5856 -0.6521  0.9219
  182MOL   H13947561   4.492   7.517   0.295 -1.9353 -1.4971  0.1019
  182MOL   H14047562   4.686   7.257   0.214 -0.5859  0.0560 -1.2993
  182MOL   H14147563   4.518   7.308   0.177 -0.9204  0.9078  2.4733
  182MOL   H14247564   4.547   7.174   0.281  0.8848 -1.6189 -1.9498
  182MOL   H14347565   4.701   7.365   0.568  0.7712 -0.3035 -0.0733
  182MOL   H14447566   4.738   7.221   0.463  0.4862  1.2220 -1.8514
  182MOL   C14547567   4.565   7.196   0.572 -0.0062  0.3013  0.8401
  182MOL   C14647568   4.639   7.111   0.673 -0.0024  0.3810 -0.0597
  182MOL   C14747569   4.658   6.979   0.679  0.1965  0.2056  0.6596
  182MOL   C14847570   4.747   6.918   0.783 -0.0264  0.1512  0.3228
  182MOL   C14947571   4.602   6.883   0.577  0.7328  0.3815 -0.3035
  182MOL   H15047572   4.502   7.137   0.505 -0.1664  3.0424 -1.5055
  182MOL   H15147573   4.491   7.256   0.624  1.8146  2.3164  1.1856
  182MOL   H15247574   4.692   7.165   0.750 -1.1577  1.5729 -0.0765
  182MOL   H15347575   4.706   6.841   0.849  1.7663 -0.5959  0.5904
  182MOL   H15447576   4.798   6.988   0.849  1.0603 -1.3786  1.1655
  182MOL   H15547577   4.826   6.869   0.725 -0.4218  1.3328 -1.2344
  182MOL   H15647578   4.502   6.917   0.548 -0.2240 -0.8869  1.4121
  182MOL   H15747579   4.581   6.789   0.628  1.1704  1.2118  1.4348
  182MOL   C15847580   4.691   6.862   0.454  0.7369 -0.3766  0.2292
  182MOL   C15947581   4.626   6.768   0.353  0.1175 -0.4408 -0.1317
  182MOL   C16047582   4.679   6.730   0.233  0.0968 -0.4392 -0.7831
  182MOL   C16147583   4.813   6.789   0.186 -0.3167 -0.6810 -0.7096
  182MOL   C16247584   4.613   6.631   0.141  0.7242  0.0348 -0.0186
  182MOL   H16347585   4.787   6.818   0.478 -0.4762 -2.1330  2.0411
  182MOL   H16447586   4.703   6.961   0.410 -3.1222 -0.3443 -0.9649
  182MOL   H16547587   4.530   6.724   0.374  0.8225 -2.1468 -0.4045
  182MOL   H16647588   4.805   6.836   0.087 -1.4341  0.3309 -0.1603
  182MOL   H16747589   4.894   6.718   0.172  0.5099  0.0382  0.3031
  182MOL   H16847590   4.860   6.860   0.254  0.2300  0.8602 -2.6282
  182MOL   H16947591   4.584   6.680   0.048 -3.5499  1.2266  1.8045
  182MOL   H17047592   4.526   6.583   0.186  1.8832 -1.2008  0.9326
  182MOL   C17147593   4.710   6.514   0.098  0.2987  0.3578 -0.1910
  182MOL   C17247594   4.631   6.402   0.024 -0.0214  0.5968  0.3012
  182MOL   C17347595   4.625   6.268   0.053  0.0739 -0.4664  0.3682
  182MOL   C17447596   4.712   6.207   0.156 -0.5636 -0.6424  0.8133
  182MOL   C17547597   4.529   6.188   7.844  0.5454 -0.1193  0.3145
  182MOL   H17647598   4.764   6.483   0.187  0.8178  1.9227  0.0469
  182MOL   H17747599   4.783   6.561   0.033 -0.2568 -0.4342 -1.4014
  182MOL   H17847600   4.570   6.435   7.820 -0.7164  0.2946  0.6834
  182MOL   H17947601   4.744   6.104   0.140 -0.8632 -0.5995 -0.0482
  182MOL   H18047602   4.655   6.192   0.248  0.3361  0.1624  1.5111
  182MOL   H18147603   4.802   6.263   0.181 -0.9344 -0.2031  1.1574
  182MOL   H18247604   4.463   6.261   7.798  0.9429 -0.5732 -0.9833
  182MOL   H18347605   4.468   6.129   0.033  1.6587 -0.0658  1.3782
  182MOL   C18447606   4.588   6.087   7.739 -0.1792 -0.7068 -0.0114
  182MOL   C18547607   4.484   6.005   7.667 -0.3571  0.0331  0.0886
  182MOL   C18647608   4.439   5.877   7.697 -0.2290  0.4054 -0.0124
  182MOL   C18747609   4.324   5.813   7.618 -0.0795 -0.0082  0.0151
  182MOL   C18847610   4.482   5.798   7.822  0.2455 -0.6323 -0.1880
  182MOL   H18947611   4.664   6.033   7.796 -0.7991 -1.3986  0.1695
  182MOL   H19047612   4.650   6.140   7.667 -0.1758  1.3369  1.4448
  182MOL   H19147613   4.448   6.058   7.580 -0.9511 -1.0084 -0.3054
  182MOL   H19247614   4.238   5.769   7.670  0.5564 -2.5957 -1.0554
  182MOL   H19347615   4.364   5.737   7.552  1.2572  1.0077 -0.3552
  182MOL   H19447616   4.278   5.888   7.553  2.9813  1.6805 -0.2772
  182MOL   H19547617   4.395   5.758   7.874  0.1949 -0.3170 -0.0242
  182MOL   H19647618   4.532   5.874   0.004  0.3935 -0.5393 -0.4251
  182MOL   C19747619   4.577   5.681   7.790  0.1442  0.5962 -0.1174
  182MOL   C19847620   4.612   5.610   0.044 -0.4511 -0.2347  0.0987
  182MOL   C19947621   4.582   5.484   0.090  0.3555  0.2798 -0.6977
  182MOL   C20047622   4.610   5.437   0.230 -0.2559 -0.1004 -0.2518
  182MOL   C20147623   4.530   5.374   0.001  0.3909  0.2364  0.3132
  182MOL   H20247624   4.670   5.721   7.750  0.3871  1.8213  1.6181
  182MOL   H20347625   4.543   5.606   7.720  3.2145 -2.5225  1.6055
  182MOL   H20447626   4.664   5.675   0.113 -0.8840  1.5338 -1.2052
  182MOL   H20547627   4.515   5.407   0.273 -0.4775 -1.3855 -1.5777
  182MOL   H20647628   4.634   5.529   0.283  1.4345 -1.5361  1.5897
  182MOL   H20747629   4.691   5.367   0.250 -0.2723  0.2149  0.9602
  182MOL   H20847630   4.467   5.418   7.802 -0.9771  1.1013  1.8872
  182MOL   H20947631   4.449   5.319   0.050  0.5078 -1.5338 -1.3887
  182MOL   C21047632   4.632   5.269   7.835 -0.1392 -0.3853  0.6252
  182MOL   C21147633   4.570   5.146   7.782  0.2019  0.2491  0.5593
  182MOL   C21247634   4.638   5.037   7.744 -0.1618  0.0585 -0.6020
  182MOL   C21347635   4.552   4.923   7.691 -0.2957 -0.2456  0.2300
  182MOL   C21447636   4.791   5.029   7.742 -0.5407  0.0064  0.3520
  182MOL   H21547637   4.676   5.234   0.049  1.6665  1.6497  0.5582
  182MOL   H21647638   4.698   5.323   7.767 -0.3790 -0.8439  0.0301
  182MOL   H21747639   4.463   5.136   7.789  0.1474 -1.1247 -1.7655
  182MOL   H21847640   4.547   4.838   7.759 -0.0284 -0.6110 -0.2070
  182MOL   H21947641   4.577   4.886   7.591 -0.4129 -0.6834  0.3615
  182MOL   H22047642   4.446   4.947   7.687  0.0627  1.6850  1.5187
  182MOL   H22147643   4.838   4.967   7.818  0.1827 -1.0463 -0.9397
  182MOL   H22247644   4.817   5.130   7.773  1.0914 -0.8402  1.8741
  182MOL   C22347645   4.850   5.015   7.604  0.6845  1.0862 -0.3926
  182MOL   C22447646   4.998   5.027   7.609 -0.0073  0.1451 -0.3775
  182MOL   C22547647   5.084   5.055   7.509  0.1147  0.1703 -0.2498
  182MOL   C22647648   5.235   5.069   7.529 -0.2633 -0.0639 -0.6686
  182MOL   C22747649   5.033   5.089   7.371  0.1784 -0.5081  0.0966
  182MOL   H22847650   4.807   5.087   7.535  0.8669  2.6675  1.1054
  182MOL   H22947651   4.824   4.918   7.562 -0.1204  1.8935 -1.7996
  182MOL   H23047652   5.036   4.997   7.706 -0.3149  2.7054  0.5676
  182MOL   H23147653   5.261   5.054   7.634  2.6392  3.5810 -0.8015
  182MOL   H23247654   5.275   5.169   7.515  0.0150  0.0627  0.8907
  182MOL   H23347655   5.279   4.994   7.463  1.3264 -2.3864  2.8524
  182MOL   H23447656   5.046   5.197   7.362  1.1007 -0.5504  0.8492
  182MOL   H23547657   4.927   5.065   7.359  0.1412  0.0662 -0.8585
  182MOL   C23647658   5.106   5.022   7.254 -0.4975 -0.0215 -0.2786
  182MOL   C23747659   5.081   4.875   7.264  0.1226 -0.2481  0.0843
  182MOL   C23847660   5.158   4.767   7.236 -0.5766 -0.5352 -0.0714
  182MOL   C23947661   5.092   4.632   7.237  0.3978 -0.7008 -0.1127
  182MOL   C24047662   5.301   4.778   7.199  0.3066  0.3161 -0.7348
  182MOL   H24147663   5.213   5.042   7.255 -0.8495  2.2146 -3.0550
  182MOL   H24247664   5.073   5.054   7.155  1.0358 -0.8968 -1.0936
  182MOL   H24347665   4.977   4.856   7.285  0.0252  1.9844  1.8345
  182MOL   H24447666   5.165   4.557   7.267 -0.7972 -3.9783 -4.6564
  182MOL   H24547667   5.048   4.604   7.140  2.7135  1.6209 -1.8837
  182MOL   H24647668   5.018   4.610   7.314  0.0767  1.0291  0.0772
  182MOL   H24747669   5.359   4.717   7.268  0.0426 -0.7156 -1.4200
  182MOL   H24847670   5.348   4.875   7.215 -0.5062  0.7829 -1.1216
  182MOL   C24947671   5.321   4.726   7.060  0.1228 -0.4318  0.4170
  182MOL   C25047672   5.463   4.664   7.047 -0.3943 -0.2959 -0.1969
  182MOL   C25147673   5.570   4.716   6.988  0.6762  0.1642  0.5294
  182MOL   C25247674   5.699   4.632   6.979  0.6312  0.3268  0.5289
  182MOL   C25347675   5.588   4.852   6.929 -0.5325 -0.7647  0.2254
  182MOL   H25447676   5.305   4.797   6.978 -0.6560 -0.8340  0.2137
  182MOL   H25547677   5.250   4.649   7.032 -1.0326 -0.0453  2.2086
  182MOL   H25647678   5.472   4.561   7.079  1.0531 -0.1720 -0.1670
  182MOL   H25747679   5.729   4.617   6.875 -0.2881 -0.7432  0.4039
  182MOL   H25847680   5.683   4.532   7.020  0.2318  0.2173  0.1186
  182MOL   H25947681   5.769   4.689   7.039 -1.4568  1.5784  1.8040
  182MOL   H26047682   5.677   4.893   6.976  0.4776 -1.5140 -0.9991
  182MOL   H26147683   5.494   4.902   6.952 -0.2123 -0.5589  1.1268
  182MOL   H26247684   5.614   4.837   6.824  0.5785 -1.1946  0.5509
  183MOL     C147685   4.342   2.142   4.208  0.7237  0.4384 -0.1276
  183MOL     C247686   4.369   2.215   4.076 -0.3993 -0.3829  0.2825
  183MOL     C347687   4.475   2.290   4.042 -0.4746 -0.5768  0.3297
  183MOL     C447688   4.472   2.377   3.920  0.6066  0.2718 -0.7053
  183MOL     C547689   4.613   2.277   4.108  0.3582  0.0256  0.4513
  183MOL     H647690   4.360   2.034   4.204 -1.1639  0.1474 -1.0055
  183MOL     H747691   4.396   2.181   4.295  0.5938 -0.4521  0.3632
  183MOL     H847692   4.281   2.235   4.018  0.1883 -0.9677 -0.8252
  183MOL     H947693   4.374   2.387   3.873 -1.0648 -3.7870  1.6415
  183MOL    H1047694   4.542   2.333   3.848  1.0713  1.0916 -0.7579
  183MOL    H1147695   4.522   2.473   3.934 -0.5025  0.5259  1.5737
  183MOL    H1247696   4.692   2.259   4.035  0.3915  1.4000  0.1261
  183MOL    H1347697   4.616   2.195   4.179 -3.2638  0.5988  1.3808
  183MOL    H1447698   4.238   2.159   4.235 -0.0785 -2.9483 -0.8127
  183MOL    C1547699   4.648   2.397   4.189 -0.9217 -0.8723 -0.6486
  183MOL    C1647700   4.782   2.400   4.279  0.2392 -0.2859 -0.2106
  183MOL    C1747701   4.796   2.384   4.412  0.9869 -0.2470 -0.6700
  183MOL    C1847702   4.934   2.367   4.483 -0.5123  0.7261 -0.3791
  183MOL    C1947703   4.672   2.372   4.512 -0.0730  0.0143 -0.8133
  183MOL    H2047704   4.558   2.413   4.249 -0.2199 -0.2177  0.2477
  183MOL    H2147705   4.654   2.483   4.122 -0.2248 -0.6827 -0.3515
  183MOL    H2247706   4.875   2.404   4.223  0.1436 -1.0920 -0.4310
  183MOL    H2347707   4.928   2.287   4.557 -0.5338  0.7223 -0.3853
  183MOL    H2447708   4.964   2.461   4.529  0.2502  0.8769 -1.1807
  183MOL    H2547709   5.009   2.332   4.412 -0.4574  2.4850 -1.2131
  183MOL    H2647710   4.574   2.400   4.473 -0.6995 -0.3800  0.4495
  183MOL    H2747711   4.686   2.432   4.602  0.4639 -0.8083 -0.3462
  183MOL    C2847712   4.640   2.225   4.543 -0.0794 -0.2119  0.0894
  183MOL    C2947713   4.522   2.199   4.635  0.1561 -0.5491 -0.0937
  183MOL    C3047714   4.535   2.144   4.759  0.1211 -0.3543  0.2364
  183MOL    C3147715   4.409   2.099   4.827 -0.1114 -0.4268  0.4404
  183MOL    C3247716   4.663   2.118   4.840 -0.2232 -0.0538  0.3590
  183MOL    H3347717   4.726   2.169   4.579 -0.3582 -0.1754  0.8355
  183MOL    H3447718   4.613   2.178   4.449  0.2148 -0.9455  0.3659
  183MOL    H3547719   4.425   2.207   4.589  0.6543  0.4488 -0.9777
  183MOL    H3647720   4.335   2.175   4.801  1.2680  1.9574  3.2108
  183MOL    H3747721   4.409   2.093   4.935 -0.2608  1.0480  0.5266
  183MOL    H3847722   4.373   2.010   4.774 -1.0586  1.0275 -1.4361
  183MOL    H3947723   4.632   2.154   4.937 -0.1121  1.1975 -0.0593
  183MOL    H4047724   4.731   2.194   4.802 -0.2593  0.1136  0.6286
  183MOL    C4147725   4.705   1.967   4.832  0.7291  0.5935  0.6699
  183MOL    C4247726   4.776   1.907   4.947 -0.1017 -0.1116  0.4569
  183MOL    C4347727   4.806   1.774   4.964  0.1691 -0.3873  0.7603
  183MOL    C4447728   4.885   1.723   5.071 -0.2970 -0.6135 -0.4728
  183MOL    C4547729   4.753   1.657   4.874  0.2317  0.1377 -0.5493
  183MOL    H4647730   4.773   1.961   4.746  1.0707 -1.5697  1.0550
  183MOL    H4747731   4.623   1.907   4.794 -0.1868  2.5252 -0.4326
  183MOL    H4847732   4.812   1.977   5.022 -4.4394  0.7210  1.9453
  183MOL    H4947733   4.831   1.665   5.146  0.9192 -0.4656  0.5206
  183MOL    H5047734   4.945   1.803   5.114  0.1682 -1.6816  0.8733
  183MOL    H5147735   4.959   1.654   5.033  1.3839  1.2592 -0.6701
  183MOL    H5247736   4.660   1.676   4.820 -2.0408 -1.4919  2.5932
  183MOL    H5347737   4.734   1.570   4.937  0.5247  0.4477 -0.0234
  183MOL    C5447738   4.857   1.630   4.765  0.3493 -0.6056  0.4654
  183MOL    C5547739   4.870   1.477   4.741 -0.6640 -0.3506 -0.2305
  183MOL    C5647740   4.984   1.405   4.761  0.5446 -0.1609 -0.0910
  183MOL    C5747741   4.991   1.257   4.714  0.3039 -0.7087 -0.0358
  183MOL    C5847742   5.117   1.459   4.817 -0.2574 -0.3946  0.9872
  183MOL    H5947743   4.952   1.680   4.784  1.2147 -0.9803 -2.5293
  183MOL    H6047744   4.838   1.683   4.671  1.5062  0.3012  0.7282
  183MOL    H6147745   4.782   1.422   4.711  0.1578 -1.5888 -0.4147
  183MOL    H6247746   4.885   1.242   4.692  0.1314  0.5157 -0.0714
  183MOL    H6347747   5.048   1.197   4.785 -0.3961  0.1706  1.2962
  183MOL    H6447748   5.049   1.252   4.622 -0.2602  1.7490 -0.5634
  183MOL    H6547749   5.133   1.393   4.902 -0.5190  1.5667  2.6021
  183MOL    H6647750   5.112   1.560   4.858 -1.5736  0.6543 -1.6223
  183MOL    C6747751   5.243   1.471   4.720  0.0671  0.6873 -0.3724
  183MOL    C6847752   5.368   1.495   4.795 -0.3244 -0.6335 -0.7073
  183MOL    C6947753   5.443   1.401   4.858 -0.0443 -0.4713  0.2210
  183MOL    C7047754   5.577   1.433   4.919 -0.6292  0.3964 -0.0246
  183MOL    C7147755   5.399   1.259   4.876 -0.1438  0.3490  0.5057
  183MOL    H7247756   5.230   1.547   4.643  0.5138  2.8462  1.6107
  183MOL    H7347757   5.258   1.380   4.662 -1.7692 -1.5123  2.4730
  183MOL    H7447758   5.394   1.600   4.799  0.5415 -0.9096  1.9684
  183MOL    H7547759   5.658   1.383   4.866 -0.0538  1.4089 -0.1271
  183MOL    H7647760   5.577   1.410   5.025  0.3156 -0.0407 -0.1180
  183MOL    H7747761   5.602   1.539   4.922  0.4968  0.2047 -1.6722
  183MOL    H7847762   5.299   1.248   4.832  0.2955 -0.8054 -0.2255
  183MOL    H7947763   5.391   1.236   4.982 -0.1224  2.3400  0.9635
  183MOL    C8047764   5.480   1.149   4.811  0.6352 -0.2765 -0.1754
  183MOL    C8147765   5.409   1.014   4.824  0.6364 -0.5119  0.2047
  183MOL    C8247766   5.453   0.894   4.853  0.4836 -0.1927 -0.0605
  183MOL    C8347767   5.601   0.867   4.890  0.1072  0.1811  0.0008
  183MOL    C8447768   5.363   0.775   4.868  0.2688 -0.0159  0.1241
  183MOL    H8547769   5.576   1.142   4.862  0.4795 -1.3230 -0.0184
  183MOL    H8647770   5.502   1.168   4.706 -1.2791  1.2475 -0.3379
  183MOL    H8747771   5.304   1.031   4.807  1.1066  2.2434 -0.2871
  183MOL    H8847772   5.673   0.934   4.844  1.7508 -0.3344  1.7824
  183MOL    H8947773   5.632   0.767   4.858  0.5552  0.0523  0.8413
  183MOL    H9047774   5.619   0.892   4.994  1.0347 -1.6972  0.3170
  183MOL    H9147775   5.260   0.809   4.879  0.2993  0.0708  0.1331
  183MOL    H9247776   5.391   0.718   4.956 -0.9713 -1.2350 -0.2462
  183MOL    C9347777   5.369   0.679   4.751  0.0780 -0.0282 -0.7175
  183MOL    C9447778   5.267   0.570   4.766  0.3800  0.3281 -0.5817
  183MOL    C9547779   5.248   0.470   4.687 -0.0388  0.5422 -0.0685
  183MOL    C9647780   5.135   0.376   4.716 -0.1382 -0.4164 -0.1558
  183MOL    C9747781   5.338   0.440   4.570  0.2130 -0.1292  1.3418
  183MOL    H9847782   5.468   0.632   4.746  0.1244 -0.0511  0.2560
  183MOL    H9947783   5.358   0.735   4.658 -1.8765 -1.3079 -1.2797
  183MOL   H10047784   5.210   0.577   4.858 -0.2425  0.0384 -0.9406
  183MOL   H10147785   5.178   0.280   4.744  0.9117  0.3132  0.7754
  183MOL   H10247786   5.074   0.404   4.803  0.7876 -2.3517  1.1518
  183MOL   H10347787   5.062   0.378   4.635 -0.5034 -0.2993  0.1750
  183MOL   H10447788   5.379   0.343   4.596 -1.2673 -0.5456  2.1249
  183MOL   H10547789   5.424   0.506   4.557  0.4326 -0.5928  0.4380
  183MOL   C10647790   5.268   0.416   4.431  0.0096  0.1826 -0.0690
  183MOL   C10747791   5.155   0.519   4.412  0.3165 -0.7397  0.4020
  183MOL   C10847792   5.027   0.487   4.393 -0.0762 -0.6174  0.2957
  183MOL   C10947793   4.964   0.346   4.385  0.1443  0.0708 -0.4076
  183MOL   C11047794   4.924   0.596   4.372  0.6068 -0.2361 -0.0528
  183MOL   H11147795   5.247   0.312   4.404  0.4844 -0.0970  0.6233
  183MOL   H11247796   5.345   0.441   4.358 -1.2242 -1.7766 -2.1055
  183MOL   H11347797   5.174   0.626   4.414  0.4284 -0.7598  0.4088
  183MOL   H11447798   4.922   0.318   4.482 -1.1772  0.5668 -0.8289
  183MOL   H11547799   4.889   0.346   4.306 -1.0172 -0.2095  0.6702
  183MOL   H11647800   5.044   0.276   4.362 -0.0252  0.1705 -1.2882
  183MOL   H11747801   4.862   0.579   4.284 -0.3603  2.2634  0.1058
  183MOL   H11847802   4.964   0.694   4.347  1.5832 -0.4790  0.5334
  183MOL   C11947803   4.835   0.615   4.509  0.0763 -0.3779  0.0882
  183MOL   C12047804   4.775   0.759   4.515 -0.0987  0.2680 -0.2878
  183MOL   C12147805   4.650   0.796   4.529 -0.3752  0.2198 -0.0452
  183MOL   C12247806   4.621   0.946   4.533 -0.5132  0.2544  0.1266
  183MOL   C12347807   4.530   0.702   4.558 -1.0114 -0.5060  0.2639
  183MOL   H12447808   4.903   0.615   4.594 -0.3204 -1.5130  0.4065
  183MOL   H12547809   4.759   0.539   4.522  0.8422 -0.9567  1.3002
  183MOL   H12647810   4.853   0.832   4.496 -1.1563  1.2478 -0.8852
  183MOL   H12747811   4.554   0.982   4.454  1.2822  0.6192 -1.2520
  183MOL   H12847812   4.708   1.011   4.537 -0.3546 -0.0151  1.1665
  183MOL   H12947813   4.561   0.974   4.620 -1.8650 -0.1823 -0.6446
  183MOL   H13047814   4.469   0.743   4.638 -0.5249  2.1088 -0.6500
  183MOL   H13147815   4.569   0.610   4.600 -1.3039 -0.7874 -0.0779
  183MOL   C13247816   4.445   0.685   4.426 -0.0283  0.0778 -0.0927
  183MOL   C13347817   4.336   0.579   4.451 -0.0205 -0.0666  0.3614
  183MOL   C13447818   4.218   0.563   4.385 -0.7017  0.2138 -0.2886
  183MOL   C13547819   4.125   0.451   4.420 -0.3514 -0.1168  0.1117
  183MOL   C13647820   4.166   0.658   4.276 -0.4954 -0.1371 -0.5624
  183MOL   H13747821   4.511   0.641   4.351 -1.2954 -0.0557 -1.1495
  183MOL   H13847822   4.405   0.777   4.383 -0.0831 -0.5166 -1.3447
  183MOL   H13947823   4.365   0.505   4.524 -1.7979 -0.8100  0.3497
  183MOL   H14047824   4.064   0.490   4.501  2.0503  2.6692  0.6599
  183MOL   H14147825   4.174   0.359   4.452 -1.4582 -0.8259 -0.2210
  183MOL   H14247826   4.064   0.428   4.333  3.5596  0.6172 -2.9586
  183MOL   H14347827   4.215   0.754   4.293 -1.3738  0.2597 -0.2144
  183MOL   H14447828   4.061   0.679   4.296 -0.2238  2.1541 -1.3708
  183MOL   C14547829   4.197   0.601   4.137  0.6443  0.1818 -0.5506
  183MOL   C14647830   4.175   0.702   4.029 -0.6870  0.1479  0.1778
  183MOL   C14747831   4.260   0.792   3.976  0.5875  0.9386 -0.4773
  183MOL   C14847832   4.209   0.909   3.894  0.0745  0.0816 -0.7620
  183MOL   C14947833   4.410   0.796   3.987  0.6826 -1.1298 -0.0152
  183MOL   H15047834   4.148   0.506   4.115  2.2258 -1.0315  1.0845
  183MOL   H15147835   4.301   0.569   4.126  0.3417  0.0934 -3.7941
  183MOL   H15247836   4.071   0.726   4.009 -0.7377 -0.8840 -0.8475
  183MOL   H15347837   4.250   1.003   3.933  1.9914 -1.2804  0.6084
  183MOL   H15447838   4.102   0.924   3.902  0.2369  0.1566  1.9768
  183MOL   H15547839   4.240   0.906   3.790 -2.1772  0.6922 -1.4669
  183MOL   H15647840   4.453   0.818   3.890 -1.0642  1.1912 -0.3316
  183MOL   H15747841   4.444   0.695   4.008 -1.2793 -1.7698  0.2007
  183MOL   C15847842   4.454   0.895   4.099 -0.1273 -0.0467  0.2490
  183MOL   C15947843   4.610   0.892   4.101  0.3453  0.2112  0.0551
  183MOL   C16047844   4.706   0.988   4.087  0.0633  0.1370  0.5158
  183MOL   C16147845   4.678   1.126   4.032 -0.5258  0.3563 -0.3955
  183MOL   C16247846   4.849   0.949   4.102 -0.0798 -0.0586  0.4485
  183MOL   H16347847   4.406   0.890   4.196 -3.7312  1.7424 -1.3450
  183MOL   H16447848   4.427   0.995   4.067  2.0023  0.1519 -1.0817
  183MOL   H16547849   4.635   0.792   4.134 -0.6574  0.0841  0.4396
  183MOL   H16647850   4.689   1.194   4.116  0.0131 -1.8714  1.3691
  183MOL   H16747851   4.580   1.138   3.985 -1.2873  0.4950  1.2044
  183MOL   H16847852   4.749   1.161   3.957  0.5344  1.2749  1.0284
  183MOL   H16947853   4.900   0.994   4.016 -1.0776  1.3421  0.5571
  183MOL   H17047854   4.872   0.843   4.103 -2.2452 -0.5838 -1.3764
  183MOL   C17147855   4.909   1.008   4.229  0.0153 -0.1317 -0.1822
  183MOL   C17247856   5.057   0.970   4.245 -0.2782  0.3882  0.4080
  183MOL   C17347857   5.127   0.957   4.365 -0.6630  0.3475 -0.5452
  183MOL   C17447858   5.068   1.000   4.501  0.1945  0.1883 -0.3320
  183MOL   C17547859   5.270   0.902   4.368 -0.2012 -0.2673 -0.1996
  183MOL   H17647860   4.843   0.974   4.310 -0.5869  3.4110  0.8899
  183MOL   H17747861   4.894   1.116   4.233 -0.2715 -0.0786 -2.4060
  183MOL   H17847862   5.103   0.935   4.154  1.5060  1.6110  0.8299
  183MOL   H17947863   5.149   1.059   4.545 -0.6917  1.6421 -0.6308
  183MOL   H18047864   5.065   0.919   4.574  0.3869  2.9467  2.8666
  183MOL   H18147865   4.972   1.051   4.504  1.3469  2.5741 -1.8769
  183MOL   H18247866   5.278   0.795   4.347  0.7199 -0.5383  1.4683
  183MOL   H18347867   5.311   0.902   4.469  0.4877 -0.8263 -0.4776
  183MOL   C18447868   5.369   0.985   4.280  0.3177  0.0914  0.5503
  183MOL   C18547869   5.374   1.134   4.326 -0.0800 -0.1586 -0.1555
  183MOL   C18647870   5.477   1.195   4.388  0.3656 -0.0267  0.1692
  183MOL   C18747871   5.471   1.340   4.432  0.4179  0.3061  0.6256
  183MOL   C18847872   5.613   1.126   4.423 -0.4804 -0.3353  0.2451
  183MOL   H18947873   5.344   0.993   4.174  0.3273 -1.7236  0.4101
  183MOL   H19047874   5.467   0.939   4.287  1.6916  2.6072 -1.0332
  183MOL   H19147875   5.282   1.188   4.308 -0.0626 -0.2306 -0.4579
  183MOL   H19247876   5.367   1.371   4.425 -1.1405 -4.2037  1.8938
  183MOL   H19347877   5.536   1.392   4.361 -0.3363  1.0659  0.4948
  183MOL   H19447878   5.498   1.347   4.537 -0.7033  2.0936  0.7984
  183MOL   H19547879   5.626   1.045   4.351 -0.0048  0.3281 -0.4271
  183MOL   H19647880   5.609   1.087   4.524  0.2456 -1.4076 -0.1378
  183MOL   C19747881   5.732   1.223   4.419  0.1797 -0.1546 -0.4462
  183MOL   C19847882   5.865   1.156   4.456  0.7882  0.3786 -0.5269
  183MOL   C19947883   5.949   1.177   4.559  0.1780 -0.5067  0.1039
  183MOL   C20047884   6.064   1.080   4.586 -0.0878 -0.0494 -0.1093
  183MOL   C20147885   5.927   1.277   4.679  1.1190 -0.1329 -0.3230
  183MOL   H20247886   5.719   1.312   4.480 -0.8601  1.3307 -2.7730
  183MOL   H20347887   5.746   1.263   4.319  2.4976 -0.8494 -0.4413
  183MOL   H20447888   5.895   1.074   4.392  0.5054  0.0395 -0.2217
  183MOL   H20547889   6.050   1.020   4.676  1.4521 -0.2660  0.0004
  183MOL   H20647890   6.163   1.123   4.593 -0.5228  1.3389 -2.0877
  183MOL   H20747891   6.065   1.009   4.503 -1.8668 -0.6223  0.3174
  183MOL   H20847892   5.935   1.241   4.782  1.5370  0.8487  0.0005
  183MOL   H20947893   5.825   1.315   4.680  0.8033 -0.9653  1.0062
  183MOL   C21047894   6.010   1.399   4.673  0.5406  0.1119  0.4145
  183MOL   C21147895   5.951   1.508   4.763  0.5741  0.0771  0.0594
  183MOL   C21247896   5.920   1.631   4.714 -0.3837 -0.1088  0.2938
  183MOL   C21347897   5.861   1.740   4.807  0.8013  0.1846 -0.1936
  183MOL   C21447898   5.937   1.675   4.568 -0.0070 -0.5852 -0.1415
  183MOL   H21547899   6.014   1.426   4.568  1.2193 -0.1859  0.3664
  183MOL   H21647900   6.108   1.370   4.710 -0.1082 -1.8841  0.6235
  183MOL   H21747901   5.951   1.490   4.869  0.6296 -0.4742 -0.0356
  183MOL   H21847902   5.926   1.827   4.811 -0.7479  1.3387  0.7884
  183MOL   H21947903   5.861   1.710   4.912 -4.5141 -2.0752 -0.6475
  183MOL   H22047904   5.759   1.773   4.784  0.4646 -0.4349  0.3746
  183MOL   H22147905   6.026   1.632   4.523 -0.0167 -1.2324  0.4395
  183MOL   H22247906   5.951   1.783   4.557  1.7718 -0.9457 -1.5448
  183MOL   C22347907   5.824   1.633   4.474  0.6361 -0.0809 -0.3854
  183MOL   C22447908   5.800   1.719   4.353  0.2221  0.6818  0.0485
  183MOL   C22547909   5.712   1.820   4.336 -0.2006  0.1478 -0.1522
  183MOL   C22647910   5.698   1.911   4.211  0.1572  0.6650 -0.5322
  183MOL   C22747911   5.620   1.866   4.448  0.1493 -0.2280 -0.3525
  183MOL   H22847912   5.737   1.626   4.539 -0.4730 -0.1641 -1.8720
  183MOL   H22947913   5.840   1.531   4.440 -0.4176 -1.2040  2.2877
  183MOL   H23047914   5.877   1.706   4.278  0.9273 -0.4088  0.9607
  183MOL   H23147915   5.741   2.010   4.227  1.5433  0.2022 -1.2166
  183MOL   H23247916   5.594   1.924   4.184  0.3789 -0.0838 -1.7774
  183MOL   H23347917   5.745   1.859   4.127  2.0043  2.1290 -0.4434
  183MOL   H23447918   5.623   1.972   4.472 -0.3589 -0.5466  1.1279
  183MOL   H23547919   5.638   1.829   4.549 -0.3526  1.0434  0.2107
  183MOL   C23647920   5.464   1.841   4.421  0.2623  0.6121 -0.2314
  183MOL   C23747921   5.382   1.917   4.521  0.4538  0.3843  0.0712
  183MOL   C23847922   5.265   1.987   4.502 -0.7634  0.5919 -0.0037
  183MOL   C23947923   5.198   2.054   4.621  0.4257  0.8158  0.3936
  183MOL   C24047924   5.212   2.010   4.361  0.6816  0.0247 -0.4420
  183MOL   H24147925   5.433   1.737   4.424 -0.1369  0.7646  1.1368
  183MOL   H24247926   5.441   1.881   4.322 -1.5968  3.4824  1.2770
  183MOL   H24347927   5.426   1.908   4.619  0.0073 -1.9225  0.0908
  183MOL   H24447928   5.113   1.992   4.649  0.5549  0.0377 -0.8848
  183MOL   H24547929   5.153   2.151   4.604 -2.2951  0.3954  4.4447
  183MOL   H24647930   5.263   2.062   4.708  0.0634  1.5277  0.5984
  183MOL   H24747931   5.289   2.030   4.285  0.1553  0.6999 -0.8066
  183MOL   H24847932   5.173   2.111   4.371 -1.2127 -0.3040 -3.5783
  183MOL   C24947933   5.114   1.905   4.319  0.0300  0.4764 -0.2631
  183MOL   C25047934   4.968   1.918   4.372  0.4953  0.3686 -1.2245
  183MOL   C25147935   4.857   1.920   4.295 -0.1096  0.7023  0.3131
  183MOL   C25247936   4.710   1.942   4.342  0.0828  0.4239 -0.1771
  183MOL   C25347937   4.866   1.920   4.141 -0.7444 -0.2259  0.2664
  183MOL   H25447938   5.138   1.806   4.359 -0.9836  0.4534  0.3061
  183MOL   H25547939   5.120   1.882   4.213 -5.2532  0.6608 -0.7523
  183MOL   H25647940   4.960   1.924   4.479 -3.2949  0.4762 -1.4489
  183MOL   H25747941   4.648   1.854   4.326 -1.1269  1.4337 -1.1225
  183MOL   H25847942   4.658   2.027   4.297  3.0468  2.3667 -0.0743
  183MOL   H25947943   4.711   1.950   4.451  0.8561  1.6203 -0.2634
  183MOL   H26047944   4.945   1.990   4.113 -0.3141 -1.4207 -1.5710
  183MOL   H26147945   4.782   1.967   4.091  1.0439  2.0233 -0.7478
  183MOL   H26247946   4.874   1.816   4.111 -3.0199  0.4054 -2.7588
  184MOL     C147947   5.772   2.351   6.372  0.2163 -0.1268  0.1065
  184MOL     C247948   5.906   2.290   6.412 -0.2428  0.9191 -0.1836
  184MOL     C347949   5.948   2.247   6.532  0.5539 -0.3803  0.4865
  184MOL     C447950   6.090   2.186   6.541  0.2173  0.0022 -0.2096
  184MOL     C547951   5.868   2.267   6.662 -0.3311  0.0366 -0.4432
  184MOL     H647952   5.757   2.308   6.273 -0.0511 -0.8570  0.4588
  184MOL     H747953   5.683   2.319   6.426  0.5716 -1.5357 -0.1143
  184MOL     H847954   5.968   2.276   6.325  1.2447  0.2617  0.9486
  184MOL     H947955   6.100   2.096   6.601 -2.2783 -0.2491 -0.1172
  184MOL    H1047956   6.162   2.258   6.580 -1.1253  0.9303  0.6293
  184MOL    H1147957   6.112   2.168   6.436 -0.1594 -0.7241 -0.1666
  184MOL    H1247958   5.840   2.167   6.693  1.1608  0.1872  1.4692
  184MOL    H1347959   5.773   2.319   6.645 -0.7183 -0.1077  1.2477
  184MOL    H1447960   5.791   2.458   6.360  1.8543 -0.1511  2.1900
  184MOL    C1547961   5.959   2.332   6.776  0.4286  0.0102  0.5569
  184MOL    C1647962   5.886   2.393   6.893 -0.0532 -1.1999 -0.2552
  184MOL    C1747963   5.931   2.497   6.969  0.3267  0.1247 -0.5208
  184MOL    C1847964   5.842   2.570   7.066  0.8375  0.3099 -0.1339
  184MOL    C1947965   6.071   2.565   6.952 -0.1841 -0.4874  0.4013
  184MOL    H2047966   6.015   2.408   6.721 -1.2064  0.5175 -0.4551
  184MOL    H2147967   6.022   2.255   6.821 -0.9059  1.4016  5.0565
  184MOL    H2247968   5.786   2.356   6.911 -1.3900  0.0906 -4.3768
  184MOL    H2347969   5.824   2.675   7.043  0.5389  0.8816  2.5958
  184MOL    H2447970   5.903   2.570   7.156  0.2672  2.6962  0.3023
  184MOL    H2547971   5.755   2.508   7.087  2.9163 -2.4620  0.6302
  184MOL    H2647972   6.076   2.672   6.969  1.7749 -0.1210 -2.1347
  184MOL    H2747973   6.103   2.538   6.851 -0.0848  0.9203  0.0494
  184MOL    C2847974   6.173   2.515   7.058  0.4455  0.2924 -0.5472
  184MOL    C2947975   6.221   2.375   7.027 -0.1895 -0.0849  0.2110
  184MOL    C3047976   6.346   2.326   7.016  0.0686  0.1082  0.1351
  184MOL    C3147977   6.365   2.173   6.989  0.4435 -0.5168 -0.7777
  184MOL    C3247978   6.470   2.409   7.019  0.8125 -0.2249 -0.6621
  184MOL    H3347979   6.142   2.528   7.162  0.1227 -0.6651 -0.5168
  184MOL    H3447980   6.259   2.580   7.047 -0.1118  0.9442 -1.0223
  184MOL    H3547981   6.139   2.305   7.022  0.3565 -0.7368  0.3049
  184MOL    H3647982   6.438   2.134   7.060  0.4411 -0.5846 -0.8131
  184MOL    H3747983   6.401   2.142   6.891  1.1636  1.3289 -1.1238
  184MOL    H3847984   6.275   2.115   7.007  0.1821  0.7923  2.4373
  184MOL    H3947985   6.549   2.351   7.067  0.5955  1.0808  1.3286
  184MOL    H4047986   6.455   2.490   7.089 -0.7513 -1.0127 -0.0532
  184MOL    C4147987   6.510   2.444   6.881 -0.2126 -0.3543 -0.3772
  184MOL    C4247988   6.634   2.531   6.868 -0.4445  0.2928 -0.4612
  184MOL    C4347989   6.641   2.666   6.845  0.5063  0.1472 -0.5413
  184MOL    C4447990   6.768   2.734   6.823 -0.0034 -0.3653  0.5580
  184MOL    C4547991   6.518   2.754   6.853  0.2112 -0.3341  0.7069
  184MOL    H4647992   6.429   2.504   6.841 -0.7666  0.8505  2.4450
  184MOL    H4747993   6.515   2.355   6.818  0.5304 -1.1537  0.7966
  184MOL    H4847994   6.728   2.478   6.869 -0.4551  0.3075  1.4063
  184MOL    H4947995   6.769   2.793   6.731 -3.1491 -1.5015 -0.2537
  184MOL    H5047996   6.851   2.667   6.799 -0.9576 -1.0089 -0.9747
  184MOL    H5147997   6.795   2.800   6.906  1.0961 -0.1510  0.0410
  184MOL    H5247998   6.554   2.838   6.911  0.2052 -1.4316  2.3576
  184MOL    H5347999   6.435   2.717   6.914 -0.0838 -1.8012 -0.5405
  184MOL    C5448000   6.465   2.803   6.713 -0.2084  0.3704  0.0313
  184MOL    C5548001   6.325   2.876   6.723 -0.0662  0.0048 -0.0177
  184MOL    C5648002   6.295   3.008   6.702 -0.0934 -0.1932 -0.9311
  184MOL    C5748003   6.152   3.055   6.720 -0.0076 -0.2421  0.6089
  184MOL    C5848004   6.400   3.119   6.652 -0.5473 -0.0224  0.5391
  184MOL    H5948005   6.461   2.724   6.638 -0.2808  0.6242 -0.2304
  184MOL    H6048006   6.541   2.871   6.676  1.2724 -1.4984 -0.4660
  184MOL    H6148007   6.242   2.811   6.745 -0.7795  1.3304  1.3063
  184MOL    H6248008   6.145   3.132   6.796  1.5130 -0.0561  0.5720
  184MOL    H6348009   6.082   2.973   6.737  0.1859 -0.2618  1.3257
  184MOL    H6448010   6.117   3.092   6.624  3.2852  1.9920  0.1742
  184MOL    H6548011   6.345   3.172   6.574  1.0100  0.3377 -0.3196
  184MOL    H6648012   6.480   3.074   6.593 -1.3854  1.8234 -2.1149
  184MOL    C6748013   6.448   3.208   6.765  0.4177  0.4649 -0.6213
  184MOL    C6848014   6.563   3.300   6.721  0.0351  0.3736 -0.4232
  184MOL    C6948015   6.693   3.268   6.714  0.7505 -0.4833  0.2084
  184MOL    C7048016   6.794   3.373   6.661  0.4828  0.5613 -0.0722
  184MOL    C7148017   6.733   3.130   6.754  0.1244 -0.5926  0.5341
  184MOL    H7248018   6.476   3.151   6.853 -1.2935  1.2232  0.4288
  184MOL    H7348019   6.374   3.283   6.791 -0.2835  0.4666 -2.5264
  184MOL    H7448020   6.533   3.396   6.682 -0.2206  1.1200  1.5960
  184MOL    H7548021   6.798   3.348   6.555 -0.0423  0.6343 -0.1104
  184MOL    H7648022   6.893   3.367   6.707  0.5462 -1.1115 -0.3758
  184MOL    H7748023   6.755   3.474   6.659 -0.6963  0.1201  0.0944
  184MOL    H7848024   6.648   3.064   6.745  0.3638 -0.6524 -1.4941
  184MOL    H7948025   6.774   3.138   6.855  1.4285  0.7387 -0.0737
  184MOL    C8048026   6.840   3.064   6.664  0.0079 -0.0889  0.0036
  184MOL    C8148027   6.784   3.028   6.527 -0.4080 -0.2994 -0.2343
  184MOL    C8248028   6.841   3.047   6.408  0.1702  0.2229  0.1507
  184MOL    C8348029   6.982   3.084   6.386  0.1596 -1.0248 -0.9847
  184MOL    C8448030   6.758   3.019   6.278  0.6670  0.0849 -0.0350
  184MOL    H8548031   6.872   2.974   6.718  0.8035  0.6272  0.7464
  184MOL    H8648032   6.939   3.108   6.652  0.2498 -0.8878 -1.0126
  184MOL    H8748033   6.686   2.982   6.526 -0.1366 -0.9006  0.1495
  184MOL    H8848034   7.033   3.123   6.474 -2.4260  1.9211 -0.6974
  184MOL    H8948035   6.978   3.161   6.308 -1.1035 -0.4662 -0.3876
  184MOL    H9048036   7.037   3.000   6.343  0.8904 -0.7917 -0.5144
  184MOL    H9148037   6.770   3.092   6.198  1.3234  0.3849  0.3403
  184MOL    H9248038   6.654   3.032   6.309 -0.3397 -3.8638 -1.4038
  184MOL    C9348039   6.787   2.877   6.234  0.3044  0.5192 -0.1620
  184MOL    C9448040   6.709   2.839   6.103  0.6954 -0.3299  0.4331
  184MOL    C9548041   6.576   2.825   6.091 -0.3796 -0.3109 -0.4189
  184MOL    C9648042   6.523   2.804   5.951  0.1334  0.4451  0.1984
  184MOL    C9748043   6.476   2.830   6.208  0.4408  0.5834  0.1577
  184MOL    H9848044   6.784   2.807   6.317 -0.2182 -1.5774 -1.8743
  184MOL    H9948045   6.894   2.875   6.215  0.8928  3.2604  2.5473
  184MOL   H10048046   6.757   2.844   6.006  1.5806 -2.5526  0.7125
  184MOL   H10148047   6.573   2.865   5.875  1.4522 -2.9972 -1.8309
  184MOL   H10248048   6.530   2.702   5.912 -2.0492  0.1307  0.5862
  184MOL   H10348049   6.418   2.824   5.932 -1.0915 -3.0413  2.7773
  184MOL   H10448050   6.414   2.920   6.199  1.8168  1.4822 -0.4016
  184MOL   H10548051   6.528   2.849   6.302  1.3036  0.6865 -0.3467
  184MOL   C10648052   6.395   2.705   6.217  0.2072 -0.6864 -0.1060
  184MOL   C10748053   6.309   2.701   6.345  0.7474 -0.7321  0.3638
  184MOL   C10848054   6.247   2.598   6.394  0.1594 -0.2673  0.0298
  184MOL   C10948055   6.259   2.463   6.325  0.4204 -0.6387  0.3122
  184MOL   C11048056   6.172   2.600   6.527 -0.2335  0.2484 -0.0078
  184MOL   H11148057   6.465   2.621   6.220  0.3978 -0.4588  2.3121
  184MOL   H11248058   6.337   2.714   6.125  2.0632  1.0178 -1.1643
  184MOL   H11348059   6.295   2.791   6.403  0.0527 -1.7513  1.8069
  184MOL   H11448060   6.276   2.460   6.217 -1.3556 -0.7721  0.0098
  184MOL   H11548061   6.328   2.393   6.371  2.0822  0.0692 -1.0562
  184MOL   H11648062   6.166   2.407   6.331 -0.3675  0.3763 -1.6387
  184MOL   H11748063   6.202   2.690   6.579  0.5306  0.1918 -0.3388
  184MOL   H11848064   6.190   2.506   6.580 -0.7394 -1.0102 -1.9810
  184MOL   C11948065   6.013   2.622   6.510  0.0780 -0.0338  0.2246
  184MOL   C12048066   5.971   2.769   6.480  0.5349  0.2686 -0.0458
  184MOL   C12148067   5.875   2.842   6.539 -0.4514 -0.3852 -0.0103
  184MOL   C12248068   5.841   2.978   6.475 -1.5827  0.4951 -0.3251
  184MOL   C12348069   5.790   2.803   6.658 -0.2680  0.1452  0.7088
  184MOL   H12448070   5.948   2.588   6.590 -0.2082 -1.0607 -0.4333
  184MOL   H12548071   5.974   2.577   6.418 -3.8360  3.4556  0.0677
  184MOL   H12648072   6.013   2.810   6.390 -2.3872 -0.1450 -1.6382
  184MOL   H12748073   5.898   2.996   6.383 -1.3908 -2.2578 -0.7980
  184MOL   H12848074   5.873   3.054   6.546 -0.3547  0.1677 -0.5226
  184MOL   H12948075   5.734   2.983   6.453 -1.1670  1.3035 -2.3120
  184MOL   H13048076   5.759   2.894   6.709 -1.8250 -0.1193  0.2483
  184MOL   H13148077   5.854   2.742   6.722  1.7900  1.3828 -0.1116
  184MOL   C13248078   5.667   2.722   6.618 -0.7192  0.3515 -0.0985
  184MOL   C13348079   5.615   2.634   6.732 -0.4469  0.0242 -0.6775
  184MOL   C13448080   5.484   2.596   6.759 -0.3562  0.5983  0.0780
  184MOL   C13548081   5.458   2.515   6.879 -0.1214  0.0309  0.1150
  184MOL   C13648082   5.365   2.635   6.678 -0.2321 -0.0557  0.7819
  184MOL   H13748083   5.688   2.647   6.542 -2.5804 -0.7022  0.3967
  184MOL   H13848084   5.594   2.792   6.579  0.5652  0.9981 -1.4200
  184MOL   H13948085   5.698   2.603   6.793 -1.1183  0.4910  0.5021
  184MOL   H14048086   5.538   2.449   6.911  0.4951  0.0794 -1.2804
  184MOL   H14148087   5.374   2.450   6.855  0.1537 -1.3246  2.6253
  184MOL   H14248088   5.426   2.573   6.966  0.5720  3.0205 -1.5475
  184MOL   H14348089   5.338   2.549   6.617  1.2329 -0.2231  0.3536
  184MOL   H14448090   5.396   2.708   6.603  0.2190 -0.8075  0.2257
  184MOL   C14548091   5.247   2.705   6.748 -0.5256 -0.5997 -0.5488
  184MOL   C14648092   5.131   2.735   6.655  0.0141  0.1873  0.2053
  184MOL   C14748093   5.000   2.737   6.676 -0.4946 -0.1407 -0.2882
  184MOL   C14848094   4.898   2.769   6.564 -0.8870 -0.1040 -0.4252
  184MOL   C14948095   4.943   2.684   6.802  0.4005  0.6903  0.1897
  184MOL   H15048096   5.295   2.792   6.793  1.0411 -3.2197  3.0364
  184MOL   H15148097   5.214   2.651   6.836 -1.3231 -0.6994 -0.9064
  184MOL   H15248098   5.149   2.769   6.554  0.8255  3.7738  1.5056
  184MOL   H15348099   4.815   2.835   6.589 -2.6594 -2.4287  0.0812
  184MOL   H15448100   4.857   2.689   6.502 -2.0601 -1.2426  1.7445
  184MOL   H15548101   4.943   2.828   6.485  3.6727 -0.8136  1.4894
  184MOL   H15648102   5.015   2.625   6.859 -1.0466 -0.1181  1.2122
  184MOL   H15748103   4.862   2.615   6.778  1.2737  0.0663 -1.0139
  184MOL   C15848104   4.881   2.795   6.893 -0.1710  0.5396 -0.2655
  184MOL   C15948105   4.848   2.752   7.038 -0.4523  0.1015  0.1334
  184MOL   C16048106   4.721   2.735   7.083 -0.3877  0.5112 -0.3418
  184MOL   C16148107   4.595   2.748   6.998 -0.3417 -0.0636 -0.3227
  184MOL   C16248108   4.683   2.714   7.233 -0.5332 -0.7330  0.3626
  184MOL   H16348109   4.785   2.811   6.842  0.9066  1.7296 -1.9981
  184MOL   H16448110   4.931   2.892   6.892 -0.8423  0.8921 -0.9898
  184MOL   H16548111   4.931   2.753   7.107 -0.9120 -2.0018  0.7647
  184MOL   H16648112   4.548   2.846   6.996  2.2675  1.2241 -2.0086
  184MOL   H16748113   4.521   2.672   7.023 -2.8393  2.6742  0.8895
  184MOL   H16848114   4.609   2.722   6.893 -0.6384 -0.5949 -0.2299
  184MOL   H16948115   4.626   2.800   7.269  0.2603 -0.6469  1.4328
  184MOL   H17048116   4.781   2.727   7.279  0.7004 -1.4922 -1.9514
  184MOL   C17148117   4.623   2.575   7.268 -0.2321 -0.5055 -0.1782
  184MOL   C17248118   4.603   2.570   7.418  0.2224  0.2936  0.1123
  184MOL   C17348119   4.518   2.489   7.484 -0.5323 -0.8297 -0.0939
  184MOL   C17448120   4.426   2.389   7.420  0.5006 -0.3908  0.0431
  184MOL   C17548121   4.512   2.488   7.645 -1.0958  0.6078  0.5852
  184MOL   H17648122   4.687   2.489   7.246 -0.9003 -1.1262  0.3012
  184MOL   H17748123   4.533   2.560   7.208  0.3118 -0.0741 -1.1277
  184MOL   H17848124   4.665   2.637   7.476  1.2161 -0.7474  0.2653
  184MOL   H17948125   4.428   2.397   7.311 -2.0748  0.9591  0.0632
  184MOL   H18048126   4.324   2.408   7.453  0.9232 -0.3761  1.3716
  184MOL   H18148127   4.465   2.290   7.445  0.8951 -0.4080 -0.6321
  184MOL   H18248128   4.610   2.513   7.684 -0.5567  1.9623 -1.5697
  184MOL   H18348129   4.491   2.390   7.687 -0.2455  0.4700  0.6902
  184MOL   C18448130   4.420   2.587   7.703  0.0403 -0.2891 -0.6093
  184MOL   C18548131   4.435   2.611   7.848 -0.1531  0.6712 -0.4311
  184MOL   C18648132   4.340   2.644   0.061 -0.4308  0.7153 -0.5939
  184MOL   C18748133   4.379   2.684   0.202  0.1312  0.4351  0.6373
  184MOL   C18848134   4.186   2.647   0.033  0.6732  0.7201  0.0986
  184MOL   H18948135   4.318   2.548   7.698 -1.0929  2.6005 -1.5023
  184MOL   H19048136   4.427   2.676   7.640 -0.3889 -0.9847 -1.6544
  184MOL   H19148137   4.532   2.620   0.015 -0.3232 -0.7483  0.2395
  184MOL   H19248138   4.327   2.620   0.273 -0.8521  0.5120  0.0013
  184MOL   H19348139   4.366   2.789   0.226  1.8177  0.8826 -0.2749
  184MOL   H19448140   4.486   2.665   0.216 -0.3555 -2.5571  0.6550
  184MOL   H19548141   4.141   2.633   0.131 -0.0257  2.3479  0.0351
  184MOL   H19648142   4.155   2.563   7.850  1.3295 -0.2442  1.0648
  184MOL   C19748143   4.128   2.783   7.849 -0.2816 -0.5854 -0.3855
  184MOL   C19848144   4.126   2.892   0.069  0.6331 -0.0045 -0.3821
  184MOL   C19948145   4.165   3.018   0.044 -0.0450 -0.2946 -1.1299
  184MOL   C20048146   4.167   3.130   0.144  1.1382  0.2343 -0.5896
  184MOL   C20148147   4.220   3.064   7.795  0.2530  0.0820 -0.7234
  184MOL   H20248148   4.024   2.778   7.816 -0.8322  1.3013  0.9677
  184MOL   H20348149   4.182   2.803   7.757  0.8413 -3.2135 -0.3520
  184MOL   H20448150   4.102   2.869   0.172  0.5729  0.7116 -0.2356
  184MOL   H20548151   4.138   3.096   0.243  1.5584  0.3828 -0.4138
  184MOL   H20648152   4.111   3.214   0.102  0.5829 -0.1128 -0.5443
  184MOL   H20748153   4.272   3.159   0.152  1.3171 -0.7675  0.9657
  184MOL   H20848154   4.198   3.169   7.774 -1.2923 -0.2264 -0.6484
  184MOL   H20948155   4.164   3.009   7.719 -1.3795  1.5220 -0.5984
  184MOL   C21048156   4.374   3.046   7.786 -0.6426  0.1949 -0.0689
  184MOL   C21148157   4.436   3.133   7.675 -0.6572 -0.2063  0.9153
  184MOL   C21248158   4.470   3.103   7.546  0.0844 -1.0377 -0.2119
  184MOL   C21348159   4.557   3.196   7.471 -0.0462  0.4235 -0.8671
  184MOL   C21448160   4.437   2.962   7.487  0.0781  0.2366  0.2610
  184MOL   H21548161   4.384   2.938   7.772  1.3786  0.2198  0.9978
  184MOL   H21648162   4.420   3.077   0.000  2.1827 -0.0488 -1.3515
  184MOL   H21748163   4.468   3.230   7.709  2.6477 -1.2945  1.0762
  184MOL   H21848164   4.495   3.237   7.390 -2.5569 -2.3744 -0.4868
  184MOL   H21948165   4.645   3.146   7.431 -0.1211  0.9065 -1.6511
  184MOL   H22048166   4.597   3.277   7.532  0.1894 -1.4953  1.6147
  184MOL   H22148167   4.412   2.894   7.568 -1.5177  0.1988 -0.2587
  184MOL   H22248168   4.523   2.916   7.438 -0.8493  0.4897 -1.6654
  184MOL   C22348169   4.320   2.971   7.392 -0.0462  0.4441 -0.1506
  184MOL   C22448170   4.260   2.835   7.352  0.0684 -0.1065  0.0412
  184MOL   C22548171   4.243   2.803   7.221 -0.3034 -0.6015 -0.6374
  184MOL   C22648172   4.164   2.683   7.188 -0.2650 -0.1551  0.6807
  184MOL   C22748173   4.286   2.890   7.105 -0.4709 -0.1089 -0.0328
  184MOL   H22848174   4.367   3.027   7.311  2.6857  0.5446  1.4346
  184MOL   H22948175   4.247   3.037   7.441 -2.2237 -0.2231 -2.3733
  184MOL   H23048176   4.222   2.780   7.437 -1.4666 -1.7208 -1.6482
  184MOL   H23148177   4.240   2.621   7.141 -0.2073 -0.1874  0.8204
  184MOL   H23248178   4.077   2.713   7.129  0.0686  0.0961  0.3101
  184MOL   H23348179   4.122   2.639   7.278  1.4953 -1.8167  0.7185
  184MOL   H23448180   4.324   2.822   7.029  1.8809  0.8139  0.2707
  184MOL   H23548181   4.366   2.963   7.118 -1.1975  1.5914 -4.3800
  184MOL   C23648182   4.171   2.968   7.037 -0.8523  0.2975 -0.2840
  184MOL   C23748183   4.223   3.077   6.942  0.0706  0.9885 -0.5934
  184MOL   C23848184   4.192   3.210   6.948 -0.2504 -0.4748  0.2336
  184MOL   C23948185   4.256   3.309   6.844  0.2552  0.7227 -0.1131
  184MOL   C24048186   4.116   3.278   7.059 -0.0937 -0.5105 -0.0554
  184MOL   H24148187   4.099   3.005   7.110 -1.7515  0.7542 -1.3924
  184MOL   H24248188   4.113   2.905   6.970  0.1235  0.2096 -1.0701
  184MOL   H24348189   4.294   3.044   6.869 -0.1620 -0.1286 -0.3170
  184MOL   H24448190   4.202   3.401   6.823  2.3614  1.7447 -1.2832
  184MOL   H24548191   4.280   3.244   6.760 -0.9573 -2.7888  2.1539
  184MOL   H24648192   4.348   3.349   6.888 -0.6513  0.1060  2.4245
  184MOL   H24748193   4.177   3.366   7.080 -2.6725  1.9542 -2.5094
  184MOL   H24848194   4.117   3.212   7.146  4.1252 -0.4864  0.0116
  184MOL   C24948195   3.974   3.324   7.019  0.6134  0.4715 -0.2168
  184MOL   C25048196   3.900   3.394   7.137  0.4138  0.3576 -0.2343
  184MOL   C25148197   3.767   3.420   7.128  1.1836 -0.0668 -0.9455
  184MOL   C25248198   3.690   3.520   7.216 -0.2061 -0.3599 -0.7360
  184MOL   C25348199   3.673   3.366   7.023 -0.1588  0.0125 -0.4956
  184MOL   H25448200   3.907   3.240   6.998 -0.1229  1.3898 -1.6377
  184MOL   H25548201   3.975   3.382   6.927  0.5287  0.7575 -0.0393
  184MOL   H25648202   3.954   3.437   7.220 -1.3015 -1.3081  1.7910
  184MOL   H25748203   3.755   3.560   7.294  0.3328  1.6985 -2.2052
  184MOL   H25848204   3.609   3.465   7.265  0.3705 -0.9699 -0.4577
  184MOL   H25948205   3.639   3.600   7.163  1.0695  1.6150  0.9398
  184MOL   H26048206   3.726   3.332   6.934 -1.3863 -2.0465 -0.4773
  184MOL   H26148207   3.601   3.436   6.982 -0.0771  1.6019  1.9967
  184MOL   H26248208   3.613   3.284   7.062 -0.6179  0.6919  0.2429
  185MOL     C148209   3.823   4.888   5.365 -0.2459  0.1331  0.4205
  185MOL     C248210   3.762   5.013   5.308 -0.1841  0.1360 -0.6060
  185MOL     C348211   3.789   5.070   5.193 -0.6779  0.5976 -0.0885
  185MOL     C448212   3.723   5.196   5.152 -0.0116  0.3963  0.1326
  185MOL     C548213   3.893   5.025   5.088 -0.2268  0.4303  0.2352
  185MOL     H648214   3.753   4.810   5.395 -0.6692  0.9015  1.4704
  185MOL     H748215   3.890   4.838   5.295  0.4343  0.3567  0.9092
  185MOL     H848216   3.686   5.057   5.371  0.0431  0.3834 -0.5031
  185MOL     H948217   3.674   5.160   5.061  1.4338  1.8369 -1.2677
  185MOL    H1048218   3.781   5.280   5.114  1.1618 -1.4405 -2.2683
  185MOL    H1148219   3.650   5.232   5.224 -1.2728  1.1462 -1.4807
  185MOL    H1248220   3.925   4.923   5.113 -0.3606  0.5082  0.7231
  185MOL    H1348221   3.982   5.087   5.085 -0.4503  0.7453  0.1227
  185MOL    H1448222   3.884   4.921   5.450 -0.2528  1.1401  0.0516
  185MOL    C1548223   3.838   5.009   4.948  0.2753 -0.5087 -0.4410
  185MOL    C1648224   3.935   4.940   4.862 -0.2490 -0.9983 -0.1634
  185MOL    C1748225   3.999   4.980   4.749  0.7316 -0.7414 -0.5723
  185MOL    C1848226   4.084   4.882   4.677 -0.5811 -0.6200  0.1572
  185MOL    C1948227   3.985   5.116   4.677 -0.2241  0.1220  0.5049
  185MOL    H2048228   3.822   5.113   4.920  0.3144  0.0205  1.4156
  185MOL    H2148229   3.737   4.968   4.945 -0.2815  0.9327 -1.8264
  185MOL    H2248230   3.959   4.839   4.893 -1.8816 -1.9458 -1.8504
  185MOL    H2348231   4.086   4.791   4.736  2.7884 -0.8742 -0.2282
  185MOL    H2448232   4.186   4.917   4.662 -0.3723 -0.8009  1.1172
  185MOL    H2548233   4.040   4.863   4.579  0.4765  0.8324 -0.6278
  185MOL    H2648234   3.909   5.180   4.722 -0.7448 -0.3694  0.3356
  185MOL    H2748235   3.967   5.108   4.570 -0.2219 -1.5020  0.6028
  185MOL    C2848236   4.112   5.202   4.686 -0.3559  0.0251 -0.1362
  185MOL    C2948237   4.158   5.207   4.828  0.0260 -0.9881  0.1519
  185MOL    C3048238   4.286   5.212   4.869  0.6854 -0.5796 -0.6297
  185MOL    C3148239   4.315   5.225   5.018 -0.1323  0.6224  0.4714
  185MOL    C3248240   4.413   5.207   4.781 -0.5472  0.6510 -0.4411
  185MOL    H3348241   4.091   5.297   4.637 -0.7911 -0.0893 -0.1738
  185MOL    H3448242   4.181   5.148   4.621  1.1839  1.0223  0.6555
  185MOL    H3548243   4.079   5.210   4.902  0.9817  0.3235  1.1562
  185MOL    H3648244   4.236   5.247   5.090 -1.0909 -0.1702 -0.3325
  185MOL    H3748245   4.399   5.294   5.026  0.1363  0.2375  0.9912
  185MOL    H3848246   4.352   5.129   5.055 -1.0181 -1.2545 -3.3269
  185MOL    H3948247   4.448   5.310   4.791  0.4887  0.3794 -1.2241
  185MOL    H4048248   4.390   5.198   4.675 -1.6302  0.0303 -0.1670
  185MOL    C4148249   4.519   5.105   4.826  0.2978  0.6692 -0.1714
  185MOL    C4248250   4.630   5.080   4.723  0.3901  0.0790 -0.5117
  185MOL    C4348251   4.661   4.966   4.657 -0.1170 -0.0116  0.4269
  185MOL    C4448252   4.781   4.981   4.563  0.1214  0.3627  0.5870
  185MOL    C4548253   4.593   4.829   4.649 -0.6435  0.1375 -0.1254
  185MOL    H4648254   4.466   5.013   4.850  2.8559 -1.0438 -0.9927
  185MOL    H4748255   4.557   5.138   4.923 -2.1550  2.3464  0.2759
  185MOL    H4848256   4.685   5.171   4.701 -0.7141  0.6439 -0.9777
  185MOL    H4948257   4.853   4.900   4.578 -1.3614 -1.3643 -1.3982
  185MOL    H5048258   4.848   5.067   4.571  3.1015 -1.5514 -2.3528
  185MOL    H5148259   4.749   4.976   4.459  1.8712 -0.0784  0.0570
  185MOL    H5248260   4.600   4.806   4.543 -0.4265 -0.0689 -0.0678
  185MOL    H5348261   4.491   4.843   4.687 -0.3738  1.0950  0.2825
  185MOL    C5448262   4.651   4.706   4.732  0.6433 -0.0987 -0.1159
  185MOL    C5548263   4.576   4.585   4.686 -0.3891 -0.4994 -0.3660
  185MOL    C5648264   4.621   4.456   4.681 -0.3362  0.2356 -0.3456
  185MOL    C5748265   4.542   4.340   4.641  0.4176  0.4281  0.2370
  185MOL    C5848266   4.772   4.413   4.693 -0.1057  0.4935 -0.0168
  185MOL    H5948267   4.630   4.728   4.837  0.8669 -0.0120 -0.0896
  185MOL    H6048268   4.759   4.700   4.725  0.6241 -0.2606 -0.2632
  185MOL    H6148269   4.469   4.599   4.678 -0.7255 -2.0387  1.1539
  185MOL    H6248270   4.555   4.257   4.711  0.7760  0.0939 -0.2181
  185MOL    H6348271   4.570   4.309   4.540 -0.9633  1.4350 -0.4761
  185MOL    H6448272   4.437   4.369   4.649 -0.2347 -0.8574 -2.8041
  185MOL    H6548273   4.832   4.503   4.680 -1.8205  1.3988 -1.9442
  185MOL    H6648274   4.788   4.345   4.610  2.8201  1.4678 -0.3349
  185MOL    C6748275   4.791   4.352   4.830 -0.7803  0.0557  0.2485
  185MOL    C6848276   4.936   4.339   4.877  0.0669 -0.2428 -0.1475
  185MOL    C6948277   5.008   4.234   4.908  0.0408  0.3543  0.3582
  185MOL    C7048278   5.152   4.247   4.955 -0.5043  0.6630  0.0493
  185MOL    C7148279   4.946   4.092   4.898  0.2700  0.2418  0.0067
  185MOL    H7248280   4.738   4.256   4.829  1.3937 -1.1786 -0.8753
  185MOL    H7348281   4.739   4.406   4.909 -1.4242  0.5496 -0.4983
  185MOL    H7448282   4.979   4.436   4.896 -0.3396 -0.6894  3.4102
  185MOL    H7548283   5.154   4.214   5.059 -0.6152 -0.0442 -0.1686
  185MOL    H7648284   5.192   4.348   4.956  0.5657  0.2361  1.4190
  185MOL    H7748285   5.230   4.207   4.891  0.4859  0.2243  1.5075
  185MOL    H7848286   5.028   4.028   4.864 -2.0222 -2.1763 -1.1766
  185MOL    H7948287   4.876   4.091   4.814 -0.5022 -0.2332  0.6462
  185MOL    C8048288   4.876   4.037   5.022 -0.4085  0.5552 -0.2842
  185MOL    C8148289   4.811   3.899   5.005 -0.8068 -0.2403  0.1103
  185MOL    C8248290   4.873   3.782   5.037 -0.2960 -0.1810  0.1647
  185MOL    C8348291   5.022   3.776   5.077  0.5844  0.2603  0.1043
  185MOL    C8448292   4.798   3.652   5.048  0.3957  0.2017 -0.7370
  185MOL    H8548293   4.801   4.111   5.047 -1.8224 -1.2160  0.8918
  185MOL    H8648294   4.937   4.033   5.113 -0.1682 -0.5921 -0.4849
  185MOL    H8748295   4.706   3.901   4.979 -0.8240  0.7383  0.2251
  185MOL    H8848296   5.077   3.690   5.041 -0.4824 -0.4372  0.1281
  185MOL    H8948297   5.042   3.788   5.184 -0.0952  0.1638  0.2419
  185MOL    H9048298   5.073   3.866   5.042  0.7438  0.2697  0.3541
  185MOL    H9148299   4.836   3.580   4.976  1.0585  1.3912 -1.5917
  185MOL    H9248300   4.694   3.680   5.030 -0.0937 -1.3497 -0.3674
  185MOL    C9348301   4.804   3.594   5.193 -0.2834  0.3912  0.5995
  185MOL    C9448302   4.756   3.449   5.207 -0.2217  0.3575 -0.3136
  185MOL    C9548303   4.649   3.402   5.274 -0.0766 -0.4479 -0.6428
  185MOL    C9648304   4.622   3.257   5.284 -0.6951  0.5654  0.0920
  185MOL    C9748305   4.562   3.495   5.366 -0.3886  0.0893 -0.0158
  185MOL    H9848306   4.753   3.660   5.263 -1.8354  0.1799 -0.2941
  185MOL    H9948307   4.908   3.607   5.221 -0.0212 -0.8265  0.2314
  185MOL   H10048308   4.823   3.379   5.160 -1.0883 -1.2760  0.8243
  185MOL   H10148309   4.663   3.219   5.377  0.7977  0.4300 -0.6183
  185MOL   H10248310   4.515   3.237   5.270 -0.3400  0.0350 -2.1200
  185MOL   H10348311   4.668   3.207   5.199  0.8861  1.8772  0.1655
  185MOL   H10448312   4.621   3.584   5.385  1.7096 -0.9830 -1.2732
  185MOL   H10548313   4.538   3.445   5.460  0.5767 -0.1943  0.0880
  185MOL   C10648314   4.432   3.531   5.296  0.4658 -0.3415 -0.1854
  185MOL   C10748315   4.453   3.636   5.186  0.3751  0.6102 -0.2196
  185MOL   C10848316   4.400   3.638   5.060  0.0007  0.0433  0.0880
  185MOL   C10948317   4.338   3.513   5.014 -0.4212  0.1588 -0.3260
  185MOL   C11048318   4.419   3.752   4.968  0.0041 -0.1133  0.1085
  185MOL   H11148319   4.372   3.582   5.371 -0.5162 -2.4920  0.5207
  185MOL   H11248320   4.386   3.443   5.251  0.8126  0.7957 -2.8774
  185MOL   H11348321   4.509   3.720   5.223  1.8731 -1.0406  1.3768
  185MOL   H11448322   4.237   3.485   5.044 -0.4800  0.8529  0.1164
  185MOL   H11548323   4.334   3.514   4.905 -1.7972  0.7849 -0.2879
  185MOL   H11648324   4.399   3.429   5.045  0.3873 -0.2139 -2.7771
  185MOL   H11748325   4.443   3.725   4.865 -1.7824  0.6072 -0.5107
  185MOL   H11848326   4.503   3.819   4.991 -1.1617  1.6021 -0.5229
  185MOL   C11948327   4.295   3.831   4.956  0.1165  0.5672  0.4231
  185MOL   C12048328   4.317   3.948   4.868  0.2390 -0.9947  0.1373
  185MOL   C12148329   4.229   4.041   4.833  0.4904  0.1539 -0.0573
  185MOL   C12248330   4.250   4.138   4.718 -0.4901  0.1044  0.1642
  185MOL   C12348331   4.095   4.056   4.907 -0.2875 -0.0155  0.3842
  185MOL   H12448332   4.258   3.869   5.052  1.2717  0.8760  0.7514
  185MOL   H12548333   4.221   3.770   4.905 -1.9337  2.1882  1.3480
  185MOL   H12648334   4.417   3.948   4.827  0.5993  0.5538  0.9874
  185MOL   H12748335   4.328   4.116   4.645  0.2867  0.0678  0.9931
  185MOL   H12848336   4.274   4.243   4.737 -0.1274 -0.4023  2.6333
  185MOL   H12948337   4.157   4.137   4.661  0.5396  0.0779 -1.5283
  185MOL   H13048338   4.070   4.159   4.933 -1.9295  0.6247 -3.3264
  185MOL   H13148339   4.097   4.008   5.005 -2.2289  1.3108  1.0980
  185MOL   C13248340   3.985   4.008   4.821  0.3089 -0.1363 -0.0764
  185MOL   C13348341   3.854   3.983   4.889 -0.1895  0.2208  0.1860
  185MOL   C13448342   3.732   4.017   4.845 -0.1781  0.3753 -0.0400
  185MOL   C13548343   3.608   3.983   4.920 -0.0857 -0.3717 -0.1733
  185MOL   C13648344   3.703   4.087   4.715 -0.8541  0.1616  0.1943
  185MOL   H13748345   4.012   3.906   4.793 -0.5088  0.1746 -2.0599
  185MOL   H13848346   3.965   4.060   4.727  2.5261 -0.4090 -0.7248
  185MOL   H13948347   3.879   3.926   4.978  3.0140  0.5449 -0.4442
  185MOL   H14048348   3.533   3.932   4.859 -0.7327  0.4151 -0.0489
  185MOL   H14148349   3.552   4.072   4.948  0.6912  0.3003 -0.7536
  185MOL   H14248350   3.611   3.927   5.013 -3.6425 -0.0613  0.2158
  185MOL   H14348351   3.781   4.159   4.692 -0.5926 -0.2919 -0.3276
  185MOL   H14448352   3.619   4.157   4.725 -1.1570 -0.2673  0.6973
  185MOL   C14548353   3.681   3.989   4.605 -0.1372 -0.0784 -0.4416
  185MOL   C14648354   3.642   4.043   4.472 -0.1516 -0.1378 -0.3429
  185MOL   C14748355   3.664   3.992   4.352 -0.2760 -0.0134 -0.1599
  185MOL   C14848356   3.622   4.063   4.228 -0.7381 -0.3387 -0.6949
  185MOL   C14948357   3.753   3.865   4.335 -0.4153 -0.6075  0.6116
  185MOL   H15048358   3.604   3.919   4.637  0.4982 -0.5523  0.0754
  185MOL   H15148359   3.775   3.934   4.601 -2.4454 -4.1319 -1.2921
  185MOL   H15248360   3.581   4.132   4.470 -0.9196 -0.6209  0.7461
  185MOL   H15348361   3.689   4.144   4.202  0.3073 -0.0963  2.6023
  185MOL   H15448362   3.527   4.110   4.252  0.3554  1.0062  1.1312
  185MOL   H15548363   3.614   3.994   4.143  0.3789 -1.7521  0.3117
  185MOL   H15648364   3.758   3.806   4.426 -1.1243  1.1437  1.8122
  185MOL   H15748365   3.856   3.892   4.314 -1.0425 -0.7430 -2.9100
  185MOL   C15848366   3.702   3.766   4.218  0.2380 -0.7075 -0.5049
  185MOL   C15948367   3.561   3.724   4.242  0.9320  0.0104 -0.0178
  185MOL   C16048368   3.462   3.703   4.151 -0.2902 -0.2499  0.3745
  185MOL   C16148369   3.478   3.731   4.006  0.1180  0.0281  0.0397
  185MOL   C16248370   3.318   3.674   4.188 -0.2689 -0.2298 -0.6267
  185MOL   H16348371   3.776   3.686   4.218  2.8552  1.6433 -1.4528
  185MOL   H16448372   3.721   3.809   4.120  0.1451 -0.2430 -0.3197
  185MOL   H16548373   3.530   3.690   4.340 -1.6433 -0.3612 -0.9091
  185MOL   H16648374   3.439   3.830   3.985  0.3226  0.2397  0.6640
  185MOL   H16748375   3.415   3.655   3.958  2.1334 -0.5863 -1.7031
  185MOL   H16848376   3.582   3.726   3.975  0.1007 -3.4010  0.2889
  185MOL   H16948377   3.320   3.640   4.292 -0.7960  1.8170  0.0816
  185MOL   H17048378   3.273   3.592   4.131 -0.8811 -0.3846  0.0710
  185MOL   C17148379   3.233   3.804   4.163  0.4976  0.1382  0.3762
  185MOL   C17248380   3.265   3.917   4.266  0.6770 -0.4305 -0.3929
  185MOL   C17348381   3.197   3.953   4.381 -0.1757  0.6857  0.2387
  185MOL   C17448382   3.080   3.876   4.437  0.9564 -0.1383 -0.5891
  185MOL   C17548383   3.257   4.058   4.477 -0.0324  0.2466 -0.1070
  185MOL   H17648384   3.127   3.778   4.175  0.5842  0.3793  1.7596
  185MOL   H17748385   3.233   3.841   4.061  0.3862  1.6449  0.8978
  185MOL   H17848386   3.357   3.969   4.243  0.9483 -0.7361 -0.0101
  185MOL   H17948387   3.044   3.801   4.366 -0.8761 -1.5054  1.7130
  185MOL   H18048388   3.000   3.942   4.471  1.2629  0.3300 -0.7665
  185MOL   H18148389   3.116   3.817   4.521  0.9449  1.3241  0.4612
  185MOL   H18248390   3.226   4.162   4.469  0.1712  0.5607  2.6609
  185MOL   H18348391   3.361   4.072   4.448  0.5355 -1.0540  1.1987
  185MOL   C18448392   3.257   4.026   4.630 -0.3271  0.4956  0.2229
  185MOL   C18548393   3.338   4.124   4.708 -0.1992 -0.4381  0.1060
  185MOL   C18648394   3.311   4.254   4.738  0.2135 -0.5524  0.1743
  185MOL   C18748395   3.405   4.329   4.832  0.4413 -0.1839 -0.5476
  185MOL   C18848396   3.192   4.333   4.678 -0.3934  0.7296 -0.3500
  185MOL   H18948397   3.297   3.925   4.645  1.1135  0.6796 -2.0858
  185MOL   H19048398   3.156   4.022   4.669  0.2321  0.8417  1.7515
  185MOL   H19148399   3.422   4.074   4.753  0.0036 -0.3905 -0.2222
  185MOL   H19248400   3.489   4.379   4.784 -1.5777  1.9992 -1.9461
  185MOL   H19348401   3.452   4.269   4.909 -0.0037 -0.7237 -0.6988
  185MOL   H19448402   3.344   4.406   4.879 -0.2036  0.0848 -1.8015
  185MOL   H19548403   3.126   4.348   4.763 -1.5950 -1.4606 -0.8593
  185MOL   H19648404   3.130   4.284   4.603  2.1446 -3.4241  0.0770
  185MOL   C19748405   3.242   4.458   4.611 -0.6365  0.0057 -0.4259
  185MOL   C19848406   3.135   4.556   4.564 -0.2270  0.9517 -0.4659
  185MOL   C19948407   3.103   4.585   4.432 -0.0208 -0.0913 -0.0566
  185MOL   C20048408   2.974   4.652   4.405 -0.2160 -0.4992 -0.1690
  185MOL   C20148409   3.181   4.541   4.302 -0.4049 -0.9130  0.8647
  185MOL   H20248410   3.306   4.440   4.524 -0.6583 -1.1551 -0.2180
  185MOL   H20348411   3.298   4.525   4.676 -0.6970  1.1275 -1.5174
  185MOL   H20448412   3.081   4.612   4.638 -2.4459 -1.3307 -0.2979
  185MOL   H20548413   2.896   4.589   4.360 -1.6153  0.0772  1.3876
  185MOL   H20648414   2.995   4.725   4.327 -2.6789 -1.1330 -1.4865
  185MOL   H20748415   2.923   4.703   4.486 -2.1425 -0.7885 -1.1531
  185MOL   H20848416   3.285   4.566   4.324 -0.2633 -0.1237 -0.6726
  185MOL   H20948417   3.161   4.613   4.223 -0.7256  1.1645  2.7790
  185MOL   C21048418   3.167   4.392   4.266  0.2751  0.4936 -0.0299
  185MOL   C21148419   3.265   4.331   4.167 -0.6929  0.1544  0.8690
  185MOL   C21248420   3.243   4.272   4.045  0.1405  0.6577 -0.6959
  185MOL   C21348421   3.346   4.202   3.964  0.8024 -0.4257  0.1351
  185MOL   C21448422   3.103   4.256   3.981 -0.7300 -0.6003  0.1780
  185MOL   H21548423   3.068   4.382   4.221  0.6533  0.6486 -0.9229
  185MOL   H21648424   3.164   4.325   4.351 -1.6612  0.9360  0.2747
  185MOL   H21748425   3.364   4.321   4.208  1.5312  1.5282 -3.8120
  185MOL   H21848426   3.331   4.094   3.970  2.9235 -0.8833 -2.0010
  185MOL   H21948427   3.445   4.228   4.001  0.9459  4.3111 -3.2181
  185MOL   H22048428   3.343   4.233   3.860  0.3082 -0.5352  0.1144
  185MOL   H22148429   3.034   4.216   4.056 -0.0438  0.0258  1.1541
  185MOL   H22248430   3.107   4.177   3.906 -2.3596 -3.8949  3.3958
  185MOL   C22348431   3.068   4.389   3.924  0.2690 -0.3355 -0.4498
  185MOL   C22448432   2.924   4.382   3.874 -0.3112 -0.0980 -0.1646
  185MOL   C22548433   2.871   4.423   3.762 -0.2873 -0.5633  0.1647
  185MOL   C22648434   2.729   4.394   3.718  0.6516  0.2421  1.0093
  185MOL   C22748435   2.946   4.500   3.660 -0.0386 -0.2986  1.1906
  185MOL   H22848436   3.137   4.417   3.844  0.4139  1.2890  0.2272
  185MOL   H22948437   3.083   4.467   3.999  1.0637 -0.9257  0.0030
  185MOL   H23048438   2.866   4.331   3.950  1.6092 -0.0570  1.3791
  185MOL   H23148439   2.674   4.488   3.728 -1.3135 -0.7172 -0.3862
  185MOL   H23248440   2.688   4.309   3.774  1.0285 -1.8306 -1.7805
  185MOL   H23348441   2.739   4.356   3.617 -0.5721 -2.1171  1.7316
  185MOL   H23448442   3.035   4.552   3.697  1.6848 -0.5059 -2.4730
  185MOL   H23548443   2.878   4.577   3.625  2.1877  0.3511 -1.8643
  185MOL   C23648444   2.987   4.417   3.539 -0.9577 -0.0579  0.2237
  185MOL   C23748445   3.073   4.495   3.447  0.4820  0.2304  0.2592
  185MOL   C23848446   3.178   4.471   3.366 -0.1950  0.0273 -0.0086
  185MOL   C23948447   3.230   4.584   3.284 -0.4162  0.4837 -0.5353
  185MOL   C24048448   3.227   4.331   3.333 -0.0558 -0.9203  0.2729
  185MOL   H24148449   2.900   4.381   3.484 -0.9263 -1.7344  1.2375
  185MOL   H24248450   3.046   4.334   3.578  0.2242  1.1339  1.0164
  185MOL   H24348451   3.038   4.597   3.440  1.1368  0.6114  2.3467
  185MOL   H24448452   3.201   4.575   3.179 -0.4567  2.1047 -0.6832
  185MOL   H24548453   3.338   4.595   3.282 -0.2502 -1.0541 -0.6191
  185MOL   H24648454   3.192   4.682   3.313  0.4713  1.2947 -2.0401
  185MOL   H24748455   3.266   4.277   3.419  0.2820 -0.2406  0.5432
  185MOL   H24848456   3.317   4.331   3.271 -0.2302 -0.2989  0.0168
  185MOL   C24948457   3.121   4.249   3.257 -0.4911 -0.3347 -0.8981
  185MOL   C25048458   3.185   4.113   3.216  0.7764  0.0272 -0.1905
  185MOL   C25148459   3.130   3.990   3.242 -0.2135 -0.4224  1.2426
  185MOL   C25248460   3.215   3.867   3.210 -0.0760 -0.5815 -0.4716
  185MOL   C25348461   3.000   3.970   3.312 -0.3604  0.0560 -0.1136
  185MOL   H25448462   3.079   4.299   3.169 -1.7288  3.5462  1.7672
  185MOL   H25548463   3.034   4.230   3.320  0.1272  1.3625  0.5225
  185MOL   H25648464   3.279   4.127   3.163  0.1793  0.7985 -1.0624
  185MOL   H25748465   3.176   3.807   3.128  0.4680  0.9390 -1.8589
  185MOL   H25848466   3.233   3.805   3.298  0.2014  1.4415  0.9404
  185MOL   H25948467   3.314   3.895   3.175 -0.9200 -0.1323 -2.5862
  185MOL   H26048468   3.027   3.935   3.412  0.4514  3.0466  0.7568
  185MOL   H26148469   2.931   3.896   3.269 -0.3180 -0.6789  1.0484
  185MOL   H26248470   2.937   4.058   3.325 -0.0444  0.4870 -1.4329
  186MOL     C148471   1.325   0.425   5.338 -0.3166  0.3949  0.1885
  186MOL     C248472   1.465   0.385   5.300  0.1481 -0.3273 -0.1648
  186MOL     C348473   1.580   0.431   5.349  1.3451 -0.1298  0.0375
  186MOL     C448474   1.712   0.369   5.309  0.1667  0.3449  0.1898
  186MOL     C548475   1.587   0.538   5.462 -0.5054  0.0556  0.1146
  186MOL     H648476   1.266   0.470   5.258  0.8165  0.4151 -0.6551
  186MOL     H748477   1.268   0.338   5.373 -1.0352  0.2137 -1.3999
  186MOL     H848478   1.461   0.300   5.234 -0.5006 -1.9531  1.8941
  186MOL     H948479   1.778   0.455   5.320 -2.3765  2.1573  1.6869
  186MOL    H1048480   1.708   0.334   5.206 -0.1934  1.1374 -0.0634
  186MOL    H1148481   1.751   0.293   5.376  0.2420  1.7141  1.7249
  186MOL    H1248482   1.493   0.587   5.488 -1.3385 -1.8108  0.6900
  186MOL    H1348483   1.655   0.617   5.430 -2.3843  0.8012 -2.2377
  186MOL    H1448484   1.333   0.508   5.408 -1.0341  0.6963 -0.0887
  186MOL    C1548485   1.655   0.482   5.591 -0.4816  0.1319  0.7616
  186MOL    C1648486   1.686   0.597   5.690  0.3994 -0.2547 -0.2132
  186MOL    C1748487   1.809   0.619   5.745  0.1979 -0.5754  0.3001
  186MOL    C1848488   1.832   0.725   5.853  0.6550 -0.1415 -0.0793
  186MOL    C1948489   1.936   0.546   5.709  0.5579 -0.1928  0.5754
  186MOL    H2048490   1.748   0.438   5.555  0.5508  1.9181  1.1700
  186MOL    H2148491   1.594   0.407   5.640  1.1080 -3.1004 -2.0129
  186MOL    H2248492   1.599   0.654   5.719  0.4238 -0.5266  0.3971
  186MOL    H2348493   1.742   0.786   5.859 -0.7276 -1.9159 -1.9982
  186MOL    H2448494   1.916   0.787   5.818  0.8042 -0.7960 -0.8956
  186MOL    H2548495   1.851   0.674   5.947  1.1617 -1.5405 -0.9283
  186MOL    H2648496   1.918   0.439   5.706 -1.2232  0.1088 -0.4508
  186MOL    H2748497   1.996   0.553   5.800  2.8002  1.7899 -1.0046
  186MOL    C2848498   2.013   0.595   5.592 -0.3305 -0.3070 -0.0818
  186MOL    C2948499   2.113   0.493   5.535 -0.5810  1.1329 -1.0594
  186MOL    C3048500   2.249   0.497   5.537 -0.1630  0.3633 -0.0352
  186MOL    C3148501   2.326   0.385   5.459  0.1915 -0.2544  0.4669
  186MOL    C3248502   2.333   0.614   5.587  0.2986 -0.8680  0.4728
  186MOL    H3348503   2.066   0.685   5.621 -0.2469  0.2086 -1.7542
  186MOL    H3448504   1.961   0.622   5.499 -4.0114 -0.5548  1.7982
  186MOL    H3548505   2.063   0.410   5.488  0.1898  0.1973 -0.2391
  186MOL    H3648506   2.276   0.289   5.449 -3.0965  1.2991  1.1837
  186MOL    H3748507   2.424   0.375   5.506 -0.1719 -2.8024  0.7191
  186MOL    H3848508   2.352   0.431   5.364 -1.9821  1.6040  0.7255
  186MOL    H3948509   2.426   0.588   5.636  2.0902  3.0946 -0.5705
  186MOL    H4048510   2.283   0.659   5.673  0.8074  0.1349  0.2484
  186MOL    C4148511   2.354   0.723   5.480  0.5779  0.3962 -0.5361
  186MOL    C4248512   2.437   0.844   5.527  0.1043  0.0553  0.0038
  186MOL    C4348513   2.557   0.869   5.479 -0.7881  0.1540 -0.0886
  186MOL    C4448514   2.631   0.993   5.522 -0.5158 -0.4694 -0.1459
  186MOL    C4548515   2.616   0.791   5.366 -0.3858  0.4295 -0.0071
  186MOL    H4648516   2.255   0.760   5.455  1.0023  1.7848 -0.1917
  186MOL    H4748517   2.395   0.669   5.394 -0.0536 -1.3782  0.2646
  186MOL    H4848518   2.395   0.917   5.594  1.1625  0.7658 -0.1026
  186MOL    H4948519   2.640   1.072   5.447  1.8049  0.2197  0.8064
  186MOL    H5048520   2.726   0.962   5.564  0.9984  0.5709 -2.6913
  186MOL    H5148521   2.583   1.047   5.605 -0.8981 -0.6638 -0.2404
  186MOL    H5248522   2.583   0.688   5.351  1.9230 -0.2326 -0.7931
  186MOL    H5348523   2.722   0.777   5.391 -0.5417 -0.3905  0.2137
  186MOL    C5448524   2.594   0.872   5.235  0.2968 -0.4275  0.7594
  186MOL    C5548525   2.628   0.781   5.115  0.1802 -0.1841  0.0510
  186MOL    C5648526   2.709   0.814   5.007  0.0527  0.3833  0.5539
  186MOL    C5748527   2.744   0.709   4.903  0.1576 -0.0057  0.8113
  186MOL    C5848528   2.766   0.954   4.973  0.1620  0.0466  0.2541
  186MOL    H5948529   2.645   0.969   5.235  1.4373 -0.9860  2.9145
  186MOL    H6048530   2.488   0.896   5.235  0.2205 -0.7667 -0.3011
  186MOL    H6148531   2.601   0.677   5.124  0.5067 -0.6671 -3.8027
  186MOL    H6248532   2.751   0.610   4.947  0.0632  0.5195  2.0425
  186MOL    H6348533   2.840   0.737   4.859 -1.4834  0.3281 -2.6753
  186MOL    H6448534   2.668   0.698   4.826 -2.7976 -1.2474  3.8032
  186MOL    H6548535   2.694   1.031   5.002  0.8688 -0.0347  2.3217
  186MOL    H6648536   2.756   0.948   4.865 -0.9853 -1.4079  0.4321
  186MOL    C6748537   2.912   0.978   5.011  0.5402  0.0827 -0.1493
  186MOL    C6848538   2.934   0.946   5.158  0.1643  0.2577  0.3128
  186MOL    C6948539   2.958   1.038   5.247 -0.1947 -0.3575  0.0931
  186MOL    C7048540   2.964   1.000   5.394  0.4943  0.1314 -0.1345
  186MOL    C7148541   2.986   1.189   5.230  0.9910 -0.3125 -0.0515
  186MOL    H7248542   2.951   1.075   4.982  0.6366 -0.4964 -2.0365
  186MOL    H7348543   2.969   0.909   4.949  1.6839  0.8665  0.0082
  186MOL    H7448544   2.908   0.845   5.186  0.7519  0.3416  1.1647
  186MOL    H7548545   3.068   1.005   5.423  0.3498 -1.2586  0.6540
  186MOL    H7648546   2.926   0.902   5.424 -0.5964  0.2741 -0.9962
  186MOL    H7748547   2.913   1.076   5.454 -0.7706 -1.1210  0.4171
  186MOL    H7848548   2.919   1.247   5.293  0.2081  0.8960 -1.9356
  186MOL    H7948549   2.968   1.219   5.127 -3.1410 -0.3084  0.5750
  186MOL    C8048550   3.133   1.224   5.243 -0.0574 -0.1466  0.5950
  186MOL    C8148551   3.164   1.359   5.194 -0.1813 -0.3903  0.7514
  186MOL    C8248552   3.250   1.394   5.095 -0.5479 -0.2245  0.3612
  186MOL    C8348553   3.354   1.298   5.033  0.5956  0.7708 -0.1701
  186MOL    C8448554   3.269   1.538   5.052 -0.3103  0.0565 -0.1911
  186MOL    H8548555   3.189   1.150   5.186  0.1156  1.4066 -1.3176
  186MOL    H8648556   3.170   1.209   5.344  2.2930 -0.1062 -0.2233
  186MOL    H8748557   3.103   1.438   5.236  1.3335  1.8844 -1.1704
  186MOL    H8848558   3.357   1.321   4.927  0.8710 -1.8762 -0.7723
  186MOL    H8948559   3.329   1.192   5.037  0.9206  0.7377  1.4121
  186MOL    H9048560   3.456   1.317   5.068  0.5252 -0.8976  1.0286
  186MOL    H9148561   3.180   1.595   5.082 -0.6135 -0.5243  0.0247
  186MOL    H9248562   3.265   1.535   4.943  0.5220 -0.6346 -0.2073
  186MOL    C9348563   3.387   1.607   5.111 -0.1764 -0.9337  0.6174
  186MOL    C9448564   3.409   1.746   5.046  0.6747 -0.0046 -0.0081
  186MOL    C9548565   3.526   1.810   5.024  0.4675  0.8047 -0.3612
  186MOL    C9648566   3.538   1.946   4.964  0.0192 -0.3368  0.6589
  186MOL    C9748567   3.657   1.747   5.073 -0.4106  0.1165 -0.4094
  186MOL    H9848568   3.471   1.542   5.084 -0.1008 -0.6034  0.0593
  186MOL    H9948569   3.381   1.610   5.220  2.2630 -2.2541  0.8276
  186MOL   H10048570   3.318   1.797   5.020  0.0942 -0.2029  1.5869
  186MOL   H10148571   3.562   2.020   5.040  0.6068  1.4171 -1.1989
  186MOL   H10248572   3.616   1.955   4.888 -0.5217 -0.6880  0.0516
  186MOL   H10348573   3.441   1.967   4.918 -0.8885  0.1021  2.7409
  186MOL   H10448574   3.639   1.684   5.160  2.6848  0.2699  0.3956
  186MOL   H10548575   3.710   1.833   5.113 -0.8228  1.2495 -2.2342
  186MOL   C10648576   3.730   1.673   4.963 -0.1785  0.9218  0.8572
  186MOL   C10748577   3.858   1.607   5.010 -0.5250  0.3754  0.2945
  186MOL   C10848578   3.866   1.486   5.074  0.0127  0.1950 -0.3208
  186MOL   C10948579   3.739   1.400   5.111 -0.1874 -0.1700  0.0597
  186MOL   C11048580   3.999   1.413   5.095  0.3058  0.2107  0.0498
  186MOL   H11148581   3.759   1.749   4.890 -2.4928  0.0710 -1.0271
  186MOL   H11248582   3.669   1.606   4.902  0.5934  0.4073  0.6375
  186MOL   H11348583   3.952   1.647   4.976 -0.8351 -1.1804 -2.6215
  186MOL   H11448584   3.750   1.354   5.209  0.0115  0.4207  0.3191
  186MOL   H11548585   3.652   1.464   5.125  0.6203  0.7519  1.0137
  186MOL   H11648586   3.713   1.328   5.034 -1.7005 -0.0203  0.4207
  186MOL   H11748587   3.998   1.369   5.195 -0.3252  1.4841  0.6098
  186MOL   H11848588   4.078   1.487   5.101  0.3327  0.4492 -2.5436
  186MOL   C11948589   4.035   1.302   4.994 -0.2161 -0.4856 -0.1058
  186MOL   C12048590   4.151   1.212   5.032 -0.2396  0.0599  0.1301
  186MOL   C12148591   4.240   1.149   4.957 -0.0115  0.6577 -0.0893
  186MOL   C12248592   4.346   1.057   5.017 -0.5230  0.1288  0.2570
  186MOL   C12348593   4.269   1.178   4.808  0.2674 -0.2762 -0.1694
  186MOL   H12448594   4.063   1.355   4.903  1.9281  2.1786  2.0357
  186MOL   H12548595   3.949   1.238   4.975 -0.0224 -1.2106  1.3936
  186MOL   H12648596   4.153   1.191   5.138  2.5209  0.4681  0.2093
  186MOL   H12748597   4.439   1.100   4.979 -0.8113 -0.8834 -1.6735
  186MOL   H12848598   4.351   0.955   4.979  1.4058  0.5955 -0.8317
  186MOL   H12948599   4.331   1.056   5.125  0.4197  0.8083  0.4010
  186MOL   H13048600   4.177   1.216   4.763  0.1164 -0.9612 -0.4406
  186MOL   H13148601   4.299   1.084   4.762 -1.5472 -1.0066  0.1126
  186MOL   C13248602   4.372   1.291   4.794 -0.0332  0.6952 -0.0033
  186MOL   C13348603   4.379   1.359   4.660 -0.1018  0.2005  0.3814
  186MOL   C13448604   4.317   1.471   4.624 -0.6796  0.0867  0.5183
  186MOL   C13548605   4.335   1.533   4.484 -0.1212  0.0100  0.0568
  186MOL   C13648606   4.237   1.559   4.725 -0.0557 -0.8425 -0.4466
  186MOL   H13748607   4.470   1.246   4.810 -0.1644  0.3667 -0.1195
  186MOL   H13848608   4.356   1.371   4.867 -1.1942  0.6206 -0.1712
  186MOL   H13948609   4.443   1.305   4.593  0.8132  0.2059  1.2440
  186MOL   H14048610   4.416   1.483   4.431 -1.1799 -1.8834  0.1748
  186MOL   H14148611   4.350   1.641   4.487 -0.9558  0.2416 -2.6324
  186MOL   H14248612   4.248   1.524   4.420 -0.1721 -1.8328  0.3626
  186MOL   H14348613   4.185   1.501   4.801 -2.1789 -0.0906 -1.2843
  186MOL   H14448614   4.160   1.609   4.666  0.9844  2.0383  0.5435
  186MOL   C14548615   4.326   1.666   4.799  0.0616  0.7547  0.9219
  186MOL   C14648616   4.248   1.720   4.916 -0.7023  0.2843 -0.2231
  186MOL   C14748617   4.289   1.732   5.044 -0.1951  0.6705  0.2874
  186MOL   C14848618   4.198   1.793   5.146 -0.3002  0.6959  0.5544
  186MOL   C14948619   4.419   1.683   5.104 -0.1464 -0.1900  0.6234
  186MOL   H15048620   4.358   1.744   4.730  1.0688  0.4720  1.0490
  186MOL   H15148621   4.419   1.613   4.822 -0.3072  0.7140  2.3922
  186MOL   H15248622   4.154   1.759   4.881 -1.7981 -1.3672  0.8108
  186MOL   H15348623   4.246   1.881   5.187 -1.5680  0.7508  1.9905
  186MOL   H15448624   4.170   1.720   5.222  0.3786 -0.6759 -0.4867
  186MOL   H15548625   4.109   1.820   5.088 -0.8179 -1.5587  0.2271
  186MOL   H15648626   4.462   1.759   5.170 -1.3934  0.9596  0.1346
  186MOL   H15748627   4.481   1.676   5.015 -0.8072 -1.2604  0.2393
  186MOL   C15848628   4.407   1.555   5.181 -0.4359 -0.6034 -0.3315
  186MOL   C15948629   4.527   1.530   5.267 -0.1484  0.6328 -0.2698
  186MOL   C16048630   4.618   1.439   5.241 -0.2650 -0.0102  0.2047
  186MOL   C16148631   4.623   1.350   5.116  0.6182 -0.6858 -0.8227
  186MOL   C16248632   4.735   1.419   5.330 -0.1818 -0.4238  0.2256
  186MOL   H16348633   4.375   1.481   5.107 -0.7484  0.3245 -1.1426
  186MOL   H16448634   4.326   1.552   5.254  0.5788  0.4910  0.8434
  186MOL   H16548635   4.545   1.598   5.349  2.5698  0.2441 -0.5172
  186MOL   H16648636   4.562   1.260   5.121 -0.2338 -0.0705  0.1765
  186MOL   H16748637   4.721   1.307   5.095  1.8666  1.3717  0.5615
  186MOL   H16848638   4.589   1.400   5.026 -0.0499 -2.0931 -1.3661
  186MOL   H16948639   4.728   1.500   5.402  0.3143 -0.9661  0.8893
  186MOL   H17048640   4.827   1.438   5.274 -0.1564 -1.4180 -0.0798
  186MOL   C17148641   4.735   1.283   5.410  0.3076 -0.8750 -0.8487
  186MOL   C17248642   4.844   1.266   5.512 -0.7111 -0.1078 -1.0693
  186MOL   C17348643   4.887   1.156   5.574  0.4583  0.8017 -0.6644
  186MOL   C17448644   4.836   1.022   5.537  0.2525  0.2728 -0.4470
  186MOL   C17548645   5.001   1.154   5.672 -0.0950 -0.5414 -0.9345
  186MOL   H17648646   4.721   1.196   5.346  2.4462 -0.9450 -1.2334
  186MOL   H17748647   4.651   1.268   5.479  2.6696 -2.1947  1.8663
  186MOL   H17848648   4.882   1.361   5.545  1.3371 -1.9928  2.2739
  186MOL   H17948649   4.787   1.015   5.440  0.3909 -0.4436 -0.4650
  186MOL   H18048650   4.765   0.981   5.609  0.2346 -0.9944 -1.1691
  186MOL   H18148651   4.907   0.939   5.538  0.5044  0.4601 -1.5945
  186MOL   H18248652   5.085   1.101   5.627  1.8360  1.9087 -0.3829
  186MOL   H18348653   4.967   1.116   5.768  0.4620  2.7620  0.6407
  186MOL   C18448654   5.060   1.291   5.705 -0.3769  0.0446  0.3412
  186MOL   C18548655   5.164   1.272   5.809  0.2749 -0.1102 -0.2651
  186MOL   C18648656   5.298   1.259   5.790 -0.0561  0.3723 -0.2102
  186MOL   C18748657   5.386   1.211   5.907  0.7783 -0.5929  0.4372
  186MOL   C18848658   5.377   1.288   5.661 -0.2196  0.6054 -0.1339
  186MOL   H18948659   4.977   1.344   5.752  0.5879  2.1954 -0.2980
  186MOL   H19048660   5.096   1.337   5.613 -1.5311 -1.0127 -0.6468
  186MOL   H19148661   5.127   1.241   5.906  1.0054 -0.6101 -0.1429
  186MOL   H19248662   5.329   1.197   5.999 -0.1708  0.4047  0.0094
  186MOL   H19348663   5.468   1.282   5.918  0.3327 -0.1763  1.1364
  186MOL   H19448664   5.432   1.114   5.890  0.7651 -0.5887  0.3781
  186MOL   H19548665   5.469   1.336   5.693 -0.3408 -0.4814  1.9503
  186MOL   H19648666   5.329   1.369   5.605  0.1347  0.0985 -1.1900
  186MOL   C19748667   5.394   1.151   5.585 -0.5532 -0.0651  0.6520
  186MOL   C19848668   5.491   1.167   5.471 -0.0440 -0.0077 -0.5284
  186MOL   C19948669   5.479   1.117   5.344 -0.7150 -0.0970 -0.6576
  186MOL   C20048670   5.595   1.139   5.250 -0.4359 -0.1441  0.1690
  186MOL   C20148671   5.361   1.043   5.292 -0.3569 -0.7271  0.2078
  186MOL   H20248672   5.302   1.102   5.552 -0.3981 -1.5711  2.3521
  186MOL   H20348673   5.423   1.075   5.657  2.0556 -1.9410 -2.2464
  186MOL   H20448674   5.586   1.209   5.499 -0.0863 -1.0220  1.1697
  186MOL   H20548675   5.543   1.162   5.158  1.1419  1.6101 -0.3264
  186MOL   H20648676   5.663   1.054   5.243  1.5147  1.3948  0.0207
  186MOL   H20748677   5.654   1.228   5.274 -1.1763  0.3494  0.1593
  186MOL   H20848678   5.333   1.097   5.201  1.5595 -0.1855 -0.0660
  186MOL   H20948679   5.266   1.046   5.346 -2.0313  1.3443 -2.6351
  186MOL   C21048680   5.407   0.907   5.250 -0.0491 -0.1835  0.7616
  186MOL   C21148681   5.474   0.828   5.367  0.7469  0.4728 -0.4401
  186MOL   C21248682   5.567   0.735   5.358  0.4171  0.1250 -0.6265
  186MOL   C21348683   5.629   0.668   5.479  0.0139  0.9152  0.0401
  186MOL   C21448684   5.617   0.681   5.224  0.1035 -0.9095 -0.4829
  186MOL   H21548685   5.482   0.924   5.173 -0.6272 -0.0559  0.2217
  186MOL   H21648686   5.325   0.845   5.214 -0.6256 -0.5121  2.6006
  186MOL   H21748687   5.446   0.864   5.465  1.4266  1.4603 -0.6061
  186MOL   H21848688   5.737   0.673   5.470  0.0105  2.1230  0.5595
  186MOL   H21948689   5.597   0.564   5.475 -0.7602  1.1176  0.7388
  186MOL   H22048690   5.613   0.716   5.575  0.8634 -0.1985  0.7436
  186MOL   H22148691   5.715   0.725   5.204 -1.1020  1.3288 -1.6224
  186MOL   H22248692   5.552   0.703   5.139  0.7852  0.9294 -0.5557
  186MOL   C22348693   5.635   0.529   5.232 -0.0015 -0.0152  0.8229
  186MOL   C22448694   5.649   0.463   5.095 -0.2635 -0.5248 -0.0600
  186MOL   C22548695   5.560   0.374   5.047 -0.3426 -0.1840  0.4076
  186MOL   C22648696   5.559   0.332   4.902 -0.8473  0.2428  0.0698
  186MOL   C22748697   5.452   0.313   5.131 -0.6002 -0.0086  0.2003
  186MOL   H22848698   5.539   0.494   5.268  0.0549 -3.2531 -1.9889
  186MOL   H22948699   5.720   0.498   5.293  0.8856  0.0723 -0.3528
  186MOL   H23048700   5.713   0.514   5.025 -2.5254  2.2920 -0.2115
  186MOL   H23148701   5.625   0.245   4.902 -0.6596  0.3493  2.5095
  186MOL   H23248702   5.593   0.414   4.838  0.1945  1.4159  2.0828
  186MOL   H23348703   5.463   0.298   4.865 -0.6483 -0.1304 -0.1118
  186MOL   H23448704   5.506   0.293   5.223  1.0579  0.5888 -0.6177
  186MOL   H23548705   5.428   0.216   5.089 -1.0148 -1.0766  2.8160
  186MOL   C23648706   5.329   0.405   5.150 -0.7221  0.2712  0.6410
  186MOL   C23748707   5.241   0.344   5.256 -0.4887  0.7808 -0.5523
  186MOL   C23848708   5.129   0.266   5.247  0.6173  0.1644  0.2056
  186MOL   C23948709   5.053   0.236   5.371 -0.3971 -0.1452  0.4561
  186MOL   C24048710   5.071   0.216   5.117 -0.1833 -0.2537 -0.6148
  186MOL   H24148711   5.273   0.410   5.057  0.9362  0.1269 -0.3648
  186MOL   H24248712   5.363   0.504   5.182  0.9342 -0.2623  0.5690
  186MOL   H24348713   5.270   0.366   5.358  3.3912 -0.5581 -1.3139
  186MOL   H24448714   5.053   0.130   5.396 -0.0273  0.6696  4.3456
  186MOL   H24548715   4.954   0.283   5.375  0.1203  0.8408  2.2283
  186MOL   H24648716   5.104   0.291   5.450 -2.0994 -0.0286  1.5215
  186MOL   H24748717   5.075   0.108   5.132 -1.0735 -0.1035  0.9062
  186MOL   H24848718   5.142   0.243   5.039  0.1203  1.0525  0.0857
  186MOL   C24948719   4.930   0.272   5.091  0.2521 -0.8074 -0.1514
  186MOL   C25048720   4.850   0.197   4.988 -0.3252  0.3254  0.5381
  186MOL   C25148721   4.724   0.227   4.934 -0.2363  0.0309 -0.7837
  186MOL   C25248722   4.655   0.134   4.840  0.1017 -0.0685 -0.1969
  186MOL   C25348723   4.640   0.354   4.959  0.5825 -0.0276  0.1508
  186MOL   H25448724   4.931   0.376   5.058 -0.2202  0.0155  2.2967
  186MOL   H25548725   4.860   0.271   5.174 -2.2567  2.7296 -2.0707
  186MOL   H25648726   4.888   0.096   4.977 -0.8470  0.2407 -0.5293
  186MOL   H25748727   4.683   0.029   4.852  0.4016  0.1985  1.6141
  186MOL   H25848728   4.687   0.164   4.740  1.1222 -1.4282 -0.2992
  186MOL   H25948729   4.547   0.148   4.842  0.1673  0.3449  2.2975
  186MOL   H26048730   4.692   0.435   5.011  1.9231 -0.4657 -0.4841
  186MOL   H26148731   4.540   0.321   4.988  1.1878 -2.9699 -0.9492
  186MOL   H26248732   4.624   0.406   4.864  1.9351 -0.9361 -0.5976
  187MOL     C148733   4.852   4.342   3.518 -0.0901 -0.7367 -0.2944
  187MOL     C248734   4.892   4.310   3.666 -0.1731  0.5703 -0.0863
  187MOL     C348735   4.896   4.408   3.766 -0.0434  0.6303 -0.1707
  187MOL     C448736   4.936   4.365   3.908 -0.0826  0.0973  0.0085
  187MOL     C548737   4.863   4.552   3.747  0.1006  0.3892 -0.4101
  187MOL     H648738   4.769   4.413   3.517 -0.0303 -0.6480  0.5577
  187MOL     H748739   4.928   4.384   3.452  0.4744 -2.3500 -0.6866
  187MOL     H848740   4.925   4.208   3.682  0.0384  0.1236 -3.0710
  187MOL     H948741   4.899   4.263   3.917  0.6639 -0.2497 -0.7385
  187MOL    H1048742   4.897   4.433   3.983  1.3043  1.2158 -0.2556
  187MOL    H1148743   5.045   4.362   3.910 -0.0175  0.3709 -1.7470
  187MOL    H1248744   4.854   4.582   3.642 -2.0678  0.2677 -0.2822
  187MOL    H1348745   4.933   4.626   3.785 -1.7559  1.0707  1.8401
  187MOL    H1448746   4.815   4.253   3.467  0.3801 -2.0393  1.5950
  187MOL    C1548747   4.727   4.590   3.813  0.2487 -0.0520 -0.5069
  187MOL    C1648748   4.683   4.740   3.802  1.0232 -0.0045  0.3202
  187MOL    C1748749   4.595   4.798   3.712 -0.1334  1.3136 -0.4994
  187MOL    C1848750   4.593   4.942   3.705 -0.0037 -0.5304  0.7063
  187MOL    C1948751   4.502   4.721   3.627  1.0258  0.2094 -0.5165
  187MOL    H2048752   4.735   4.576   3.921  1.1505  0.3447 -0.5148
  187MOL    H2148753   4.652   4.525   3.768  1.6404 -0.1361 -2.7754
  187MOL    H2248754   4.745   4.797   3.869  0.9720  0.6671 -0.1945
  187MOL    H2348755   4.510   4.980   3.766  1.5260  0.4481  2.2377
  187MOL    H2448756   4.572   4.962   3.600 -2.0326 -0.9039  1.0254
  187MOL    H2548757   4.685   4.988   3.742 -0.8019 -0.0755  2.1504
  187MOL    H2648758   4.520   4.613   3.629  1.2650  0.2515  1.7069
  187MOL    H2748759   4.526   4.757   3.527 -0.5653  1.0103 -0.6243
  187MOL    C2848760   4.357   4.749   3.664  0.4951  0.1942 -0.4566
  187MOL    C2948761   4.255   4.666   3.591  0.2436  0.0063  0.3631
  187MOL    C3048762   4.151   4.711   3.510  0.4810  0.4113  0.1398
  187MOL    C3148763   4.058   4.608   3.443 -0.9750 -0.0014 -0.1284
  187MOL    C3248764   4.100   4.852   3.498  0.1682  0.0872  0.3973
  187MOL    H3348765   4.335   4.854   3.643 -0.4546 -0.1720 -1.2853
  187MOL    H3448766   4.353   4.735   3.772  1.5974 -1.4825 -0.6258
  187MOL    H3548767   4.271   4.560   3.595 -2.4796 -0.5085 -1.3592
  187MOL    H3648768   4.027   4.645   3.345 -1.0979 -0.8507 -0.4166
  187MOL    H3748769   3.970   4.595   3.507 -0.5434 -2.1976  0.0772
  187MOL    H3848770   4.114   4.515   3.434  0.1259  0.7837 -1.4346
  187MOL    H3948771   4.108   4.894   3.598  0.4485  3.6427 -1.0326
  187MOL    H4048772   3.994   4.860   3.474  0.6331  2.4124 -1.0393
  187MOL    C4148773   4.176   4.937   3.391 -0.4504  0.9394 -0.2474
  187MOL    C4248774   4.112   5.080   3.384 -0.2707 -0.0049  0.0532
  187MOL    C4348775   4.184   5.193   3.412  0.3553 -0.2981 -0.1646
  187MOL    C4448776   4.106   5.321   3.392  0.4490 -0.1599  0.4159
  187MOL    C4548777   4.321   5.197   3.474 -0.4885 -0.6801  0.1872
  187MOL    H4648778   4.178   4.901   3.288 -1.9959 -0.3032  0.1290
  187MOL    H4748779   4.282   4.945   3.415  0.0584 -0.9267 -1.7948
  187MOL    H4848780   4.010   5.090   3.350 -1.3041 -0.5365  2.8348
  187MOL    H4948781   4.110   5.375   3.487 -1.3461  0.5901  0.0900
  187MOL    H5048782   4.005   5.305   3.355  0.7636 -2.0998  0.3695
  187MOL    H5148783   4.147   5.385   3.314  1.5514 -0.5496  0.6588
  187MOL    H5248784   4.333   5.108   3.536  0.5575 -0.3647  0.4450
  187MOL    H5348785   4.330   5.285   3.538  1.4782  0.7674 -2.0184
  187MOL    C5448786   4.430   5.206   3.363  0.4273 -0.8189 -0.5753
  187MOL    C5548787   4.563   5.195   3.429  0.1996 -0.3624 -0.6023
  187MOL    C5648788   4.672   5.130   3.384  0.0650 -0.6451  0.3144
  187MOL    C5748789   4.793   5.133   3.469 -0.2285  0.1786 -0.9232
  187MOL    C5848790   4.684   5.063   3.246 -0.4798  0.2697  0.0359
  187MOL    H5948791   4.425   5.304   3.316  1.7185  0.0994  1.1373
  187MOL    H6048792   4.426   5.125   3.290 -0.2346 -0.6810 -0.6948
  187MOL    H6148793   4.568   5.223   3.533 -3.1783  0.4952 -0.6128
  187MOL    H6248794   4.826   5.033   3.497  2.5031  1.3426  0.1102
  187MOL    H6348795   4.781   5.190   3.561 -3.1401  0.7772 -1.6025
  187MOL    H6448796   4.878   5.166   3.409  0.4812  1.7407  0.9044
  187MOL    H6548797   4.787   5.087   3.221 -0.1706  0.7795  1.7427
  187MOL    H6648798   4.631   5.123   3.172 -0.1989  2.3389  1.4809
  187MOL    C6748799   4.674   4.916   3.263  0.0610  0.0403 -0.0951
  187MOL    C6848800   4.688   4.851   3.126 -0.7865 -0.2262 -0.1494
  187MOL    C6948801   4.747   4.734   3.092 -0.2144 -0.7492  0.8728
  187MOL    C7048802   4.757   4.698   2.949 -0.5728  0.0503  0.0274
  187MOL    C7148803   4.805   4.632   3.198 -0.2524  0.5659  0.3789
  187MOL    H7248804   4.579   4.886   3.306  0.0120 -0.2579 -0.4090
  187MOL    H7348805   4.746   4.866   3.328 -0.0615 -1.5656 -1.1651
  187MOL    H7448806   4.639   4.914   3.054 -1.3273  0.8788  1.1734
  187MOL    H7548807   4.764   4.787   2.886 -1.5392  1.2270  1.5358
  187MOL    H7648808   4.670   4.642   2.915 -0.4369  0.8111 -1.6552
  187MOL    H7748809   4.853   4.652   2.927 -1.1195 -0.7953 -0.6040
  187MOL    H7848810   4.752   4.539   3.179  0.1033  0.8821 -2.3989
  187MOL    H7948811   4.789   4.656   3.303  0.3342  0.8556  0.4076
  187MOL    C8048812   4.957   4.611   3.179  0.4673 -0.4268  0.5467
  187MOL    C8148813   5.029   4.744   3.210  0.0317  0.0206  0.1610
  187MOL    C8248814   5.108   4.777   3.310 -0.2829 -0.0379 -0.4544
  187MOL    C8348815   5.131   4.677   3.426 -0.1042  0.2541  0.3166
  187MOL    C8448816   5.192   4.903   3.325 -0.0492 -0.0635 -0.1165
  187MOL    H8548817   4.975   4.586   3.075  1.1367 -0.8372  0.7557
  187MOL    H8648818   4.994   4.522   3.229  1.0450 -0.0236  0.8531
  187MOL    H8748819   5.007   4.818   3.133 -0.2339 -0.8859 -0.6441
  187MOL    H8848820   5.077   4.708   3.515 -1.8326 -0.4166 -0.4680
  187MOL    H8948821   5.235   4.664   3.453  0.2221  0.3683 -0.8561
  187MOL    H9048822   5.097   4.578   3.396  0.6093  0.2322 -0.4268
  187MOL    H9148823   5.176   4.963   3.235  2.1356  0.8262  0.0395
  187MOL    H9248824   5.293   4.863   3.322  0.5310  1.2397  1.2167
  187MOL    C9348825   5.184   4.985   3.462  0.3051 -1.0149  0.0332
  187MOL    C9448826   5.310   5.064   3.485 -0.2363 -0.3856 -0.4768
  187MOL    C9548827   5.318   5.165   3.577  0.4166 -0.1289  0.2544
  187MOL    C9648828   5.450   5.225   3.609 -0.2154 -0.2963  0.3779
  187MOL    C9748829   5.199   5.209   3.676  0.9062  0.0849  0.0606
  187MOL    H9848830   5.193   4.924   3.552  0.2016 -0.3711  0.4812
  187MOL    H9948831   5.090   5.038   3.474  0.2838 -0.9448 -0.4351
  187MOL   H10048832   5.397   5.030   3.432  0.1762  1.1672 -0.8121
  187MOL   H10148833   5.438   5.324   3.653 -2.3108 -1.2059  1.9159
  187MOL   H10248834   5.486   5.166   3.693 -0.7790 -0.9409  0.1710
  187MOL   H10348835   5.525   5.222   3.530 -0.0572 -1.9878  0.5750
  187MOL   H10448836   5.224   5.193   3.781  0.8967  1.9136  0.3527
  187MOL   H10548837   5.125   5.131   3.658  0.1590  1.1808 -1.7485
  187MOL   C10648838   5.141   5.349   3.645  0.5903 -0.2577  0.4991
  187MOL   C10748839   5.019   5.388   3.723 -0.5846  0.5775  0.7656
  187MOL   C10848840   5.018   5.454   3.839  0.6417 -0.9348  0.0816
  187MOL   C10948841   5.148   5.471   3.912 -0.1501 -0.3881  0.2434
  187MOL   C11048842   4.897   5.504   3.917  0.1610 -0.3618 -0.1168
  187MOL   H11148843   5.114   5.366   3.541  1.9367  0.0991  0.1945
  187MOL   H11248844   5.224   5.418   3.662 -1.3635  2.3571 -0.1701
  187MOL   H11348845   4.919   5.364   3.689  0.1690  0.4154 -1.4430
  187MOL   H11448846   5.233   5.417   3.869  0.1214  1.5915 -1.8129
  187MOL   H11548847   5.172   5.577   3.918  0.3158 -0.4053 -1.2689
  187MOL   H11648848   5.143   5.441   4.017 -0.2600  0.4651  0.4848
  187MOL   H11748849   4.874   5.445   4.006 -0.3950  2.0540  1.3934
  187MOL   H11848850   4.808   5.487   3.855 -1.1245 -0.2344  1.6465
  187MOL   C11948851   4.893   5.652   3.952  0.4112 -0.2483 -0.0991
  187MOL   C12048852   4.882   5.755   3.837 -0.2431 -0.2622 -0.4804
  187MOL   C12148853   4.796   5.855   3.830 -0.2922  0.0763  0.4744
  187MOL   C12248854   4.783   5.949   3.711 -0.2243 -0.6167  0.2394
  187MOL   C12348855   4.689   5.865   3.930 -0.0797  0.0090 -0.4278
  187MOL   H12448856   4.982   5.677   4.010 -1.1433  1.6525  1.5223
  187MOL   H12548857   4.806   5.658   4.018  1.3287 -0.1924  1.1194
  187MOL   H12648858   4.962   5.754   3.764 -0.3813 -0.0004 -0.6339
  187MOL   H12748859   4.816   6.052   3.723 -3.6878  0.5272  0.2676
  187MOL   H12848860   4.687   5.969   3.665  0.0631  0.9829  0.3038
  187MOL   H12948861   4.854   5.901   3.643 -2.5951 -1.7738 -1.4661
  187MOL   H13048862   4.681   5.967   3.967  0.6053 -0.3950  0.8804
  187MOL   H13148863   4.710   5.819   4.027  1.3377 -0.1334 -0.7907
  187MOL   C13248864   4.550   5.817   3.872  0.4256  0.0356 -0.1621
  187MOL   C13348865   4.443   5.845   3.974  0.3996 -0.3114  0.3102
  187MOL   C13448866   4.382   5.962   3.999 -0.6608 -0.0506  0.7359
  187MOL   C13548867   4.284   5.974   4.116 -0.4132  0.3381 -0.5450
  187MOL   C13648868   4.419   6.093   3.930 -0.6510  0.0358 -0.2851
  187MOL   H13748869   4.560   5.711   3.849  0.3976 -0.0146  0.0594
  187MOL   H13848870   4.523   5.868   3.779 -1.8763  0.2501  0.5788
  187MOL   H13948871   4.413   5.760   4.034  3.0048 -0.9593  0.7461
  187MOL   H14048872   4.213   6.056   4.103 -1.2829 -0.4041 -0.4800
  187MOL   H14148873   4.329   5.976   4.215 -2.6889 -0.3896  0.5432
  187MOL   H14248874   4.214   5.891   4.115 -0.0036 -0.0073 -0.7034
  187MOL   H14348875   4.336   6.118   3.864  0.7278 -2.0270 -2.9130
  187MOL   H14448876   4.507   6.088   3.866  0.8057 -1.6329  1.7820
  187MOL   C14548877   4.444   6.208   4.032 -0.1986  0.2940  0.3517
  187MOL   C14648878   4.538   6.305   3.972  0.1107  0.5204  0.3214
  187MOL   C14748879   4.503   6.428   3.930  0.1733 -0.1017  0.6437
  187MOL   C14848880   4.613   6.512   3.869  0.5231 -0.0976  0.0622
  187MOL   C14948881   4.361   6.491   3.922 -0.6201  0.2666 -0.1911
  187MOL   H15048882   4.487   6.165   4.123  0.4523  0.4177  0.1047
  187MOL   H15148883   4.346   6.247   4.060 -0.4960 -0.3622  0.2222
  187MOL   H15248884   4.643   6.279   3.964 -0.2353 -1.4646  2.0298
  187MOL   H15348885   4.627   6.605   3.924  1.3225  0.3685 -0.9151
  187MOL   H15448886   4.594   6.547   3.768 -1.7581 -2.9629 -0.5652
  187MOL   H15548887   4.710   6.466   3.852 -1.0519 -2.9372 -1.6587
  187MOL   H15648888   4.281   6.419   3.940 -1.1241  0.7564 -0.4456
  187MOL   H15748889   4.344   6.519   3.818 -2.0355 -1.1098 -0.3461
  187MOL   C15848890   4.331   6.609   4.022  0.1987  0.3092 -0.5456
  187MOL   C15948891   4.210   6.686   3.972  0.3196 -0.8295 -0.0819
  187MOL   C16048892   4.086   6.700   4.019  1.0466  0.3127 -0.0047
  187MOL   C16148893   4.036   6.631   4.144  0.0968  0.0835  0.8410
  187MOL   C16248894   3.993   6.811   3.965  0.1113 -0.3238  0.1659
  187MOL   H16348895   4.413   6.680   4.011 -1.1849  2.0930  0.4451
  187MOL   H16448896   4.324   6.587   4.128 -2.0865  1.6918 -0.3781
  187MOL   H16548897   4.237   6.752   3.891  0.0055  0.7319  1.0764
  187MOL   H16648898   4.088   6.539   4.168 -0.1663 -0.4676 -0.6483
  187MOL   H16748899   3.932   6.607   4.126 -0.0827  1.6620 -0.4780
  187MOL   H16848900   4.063   6.698   4.226  2.0032  0.3966  0.0022
  187MOL   H16948901   3.890   6.796   3.997 -0.7432  1.5177 -1.6085
  187MOL   H17048902   3.978   6.785   3.860 -1.2563 -0.3876  0.3640
  187MOL   C17148903   4.046   6.955   3.985 -0.3797  0.1605 -0.5325
  187MOL   C17248904   4.071   6.980   4.135 -0.0886 -0.4975  0.1421
  187MOL   C17348905   4.185   7.034   4.186 -0.0959  0.3437 -0.0337
  187MOL   C17448906   4.305   7.077   4.100 -0.1261 -0.4884 -0.5432
  187MOL   C17548907   4.219   7.041   4.333  0.2400  0.4846  0.1131
  187MOL   H17648908   3.971   7.029   3.960 -0.9218 -0.2094  0.0035
  187MOL   H17748909   4.128   6.976   3.916 -1.0959  0.8307 -1.1934
  187MOL   H17848910   3.989   6.959   4.202 -0.8653 -3.6227 -1.6923
  187MOL   H17948911   4.367   7.151   4.149 -0.4713 -0.6018  0.0734
  187MOL   H18048912   4.264   7.125   4.011 -1.0864 -2.7674 -1.3778
  187MOL   H18148913   4.370   6.992   4.079 -0.1295 -0.9236  1.1353
  187MOL   H18248914   4.126   7.024   4.388  0.2556 -1.0546 -0.3162
  187MOL   H18348915   4.243   7.147   4.344  1.5385  0.4745 -2.3290
  187MOL   C18448916   4.332   6.959   4.387 -0.3486 -0.1778 -0.0201
  187MOL   C18548917   4.299   6.810   4.394 -0.6566 -0.7138  0.2241
  187MOL   C18648918   4.391   6.709   4.401 -0.3865  0.0984 -0.3335
  187MOL   C18748919   4.341   6.563   4.416 -1.0617 -0.0613 -0.0435
  187MOL   C18848920   4.538   6.730   4.404  1.3138  0.2623  0.2837
  187MOL   H18948921   4.342   7.000   4.487  0.9721  0.3654 -0.3694
  187MOL   H19048922   4.427   6.979   4.338 -0.0037  0.7618  1.0208
  187MOL   H19148923   4.195   6.782   4.395 -0.5353 -1.1366  1.4812
  187MOL   H19248924   4.396   6.489   4.358  0.4004 -1.2513  2.7590
  187MOL   H19348925   4.235   6.555   4.393 -1.0123 -0.0731 -0.2715
  187MOL   H19448926   4.346   6.530   4.520 -2.0126 -3.9207 -1.1386
  187MOL   H19548927   4.576   6.675   4.490  1.1721 -0.2265  0.0409
  187MOL   H19648928   4.561   6.835   4.419  0.9262  0.6782 -1.8053
  187MOL   C19748929   4.604   6.698   4.273  0.4217  0.6188 -0.2715
  187MOL   C19848930   4.752   6.737   4.267  0.0080  0.0433  0.0218
  187MOL   C19948931   4.812   6.833   4.195  0.5406 -0.1140 -0.0934
  187MOL   C20048932   4.962   6.838   4.192 -0.3642  0.1907 -0.3040
  187MOL   C20148933   4.740   6.937   4.124 -0.3708  0.4828  0.0799
  187MOL   H20248934   4.559   6.755   4.191 -0.1047  0.8950  0.2119
  187MOL   H20348935   4.601   6.594   4.238  0.4146  0.0360  1.4318
  187MOL   H20448936   4.814   6.671   4.326  0.7683  0.2535 -0.5462
  187MOL   H20548937   4.995   6.745   4.237  0.0279  0.8256  0.7329
  187MOL   H20648938   5.000   6.922   4.251 -0.7878 -0.8716  1.5187
  187MOL   H20748939   4.983   6.835   4.085  1.9951 -0.7800  0.1586
  187MOL   H20848940   4.784   7.035   4.145 -2.4623  1.9210 -2.0722
  187MOL   H20948941   4.637   6.939   4.158 -0.3205 -1.2434  0.4222
  187MOL   C21048942   4.749   6.905   3.966 -0.0064  0.0948 -0.1366
  187MOL   C21148943   4.676   7.011   3.886  0.4212  0.3961 -0.2137
  187MOL   C21248944   4.645   7.005   3.756 -0.3864 -0.4357  0.4626
  187MOL   C21348945   4.575   7.121   3.689  0.2780  1.4972  0.2530
  187MOL   C21448946   4.681   6.894   3.663  0.5568 -0.3145  0.1848
  187MOL   H21548947   4.703   6.806   3.965  0.2201 -0.0113 -0.0481
  187MOL   H21648948   4.851   6.908   3.927 -0.3174 -0.4947 -1.0267
  187MOL   H21748949   4.638   7.099   3.937 -1.3303 -0.1952 -0.4835
  187MOL   H21848950   4.479   7.088   3.650 -0.9178  1.6794  2.8948
  187MOL   H21948951   4.631   7.162   3.606 -1.0044 -0.8733 -1.8554
  187MOL   H22048952   4.559   7.210   3.750  1.6489  1.3041  0.9080
  187MOL   H22148953   4.590   6.885   3.605  1.9696  0.0924 -2.1432
  187MOL   H22248954   4.691   6.798   3.714  3.0896 -1.6358 -2.6304
  187MOL   C22348955   4.796   6.920   3.569 -0.2725 -0.9612  0.3870
  187MOL   C22448956   4.839   6.796   3.497 -0.3474  0.1852  0.6607
  187MOL   C22548957   4.813   6.764   3.371 -0.6113  0.2008 -0.1907
  187MOL   C22648958   4.871   6.635   3.311  0.4645  0.3156  0.3928
  187MOL   C22748959   4.744   6.852   3.274 -0.1087  0.2540 -0.6439
  187MOL   H22848960   4.884   6.942   3.630 -1.4853  1.2259  1.4149
  187MOL   H22948961   4.783   7.014   3.516 -1.4372 -0.6198  1.2672
  187MOL   H23048962   4.873   6.715   3.561 -0.9866 -0.5280  0.1106
  187MOL   H23148963   4.882   6.561   3.391  2.5976  0.5551  0.3401
  187MOL   H23248964   4.962   6.655   3.255  1.0650  1.0855  1.6192
  187MOL   H23348965   4.800   6.598   3.237  0.0032 -1.0132  1.4715
  187MOL   H23448966   4.782   6.821   3.177  1.3365  0.7561 -0.2568
  187MOL   H23548967   4.763   6.959   3.282  0.0331  0.2350 -0.7302
  187MOL   C23648968   4.591   6.840   3.280  0.0693  0.8176 -0.1671
  187MOL   C23748969   4.541   6.693   3.303 -0.5010 -0.2992  0.1363
  187MOL   C23848970   4.438   6.651   3.379  0.0801 -0.2946  0.1581
  187MOL   C23948971   4.388   6.513   3.365 -0.3288  0.7933 -0.1359
  187MOL   C24048972   4.355   6.745   3.464  0.9170  0.2921 -0.0155
  187MOL   H24148973   4.550   6.869   3.183  0.4858 -0.2130 -0.6572
  187MOL   H24248974   4.559   6.909   3.358  0.5865 -0.3209  1.0756
  187MOL   H24348975   4.586   6.614   3.245 -1.3139 -0.6271 -0.0559
  187MOL   H24448976   4.384   6.469   3.464  0.1137 -1.2462 -0.9945
  187MOL   H24548977   4.462   6.445   3.321 -1.4072 -0.6078  0.1728
  187MOL   H24648978   4.295   6.514   3.308  0.0153 -0.1328 -0.7267
  187MOL   H24748979   4.342   6.843   3.418 -1.6776 -0.4609 -1.0482
  187MOL   H24848980   4.407   6.757   3.559 -0.7343 -1.8430  1.2100
  187MOL   C24948981   4.209   6.706   3.502 -0.1935  0.7047 -0.6449
  187MOL   C25048982   4.139   6.818   3.584 -0.3275 -0.0487  0.4233
  187MOL   C25148983   4.030   6.884   3.538 -0.5551 -0.3122  0.7551
  187MOL   C25248984   3.967   6.990   3.623  0.2219  0.2862 -0.0102
  187MOL   C25348985   3.956   6.853   3.404 -0.4427  0.0639 -0.0700
  187MOL   H25448986   4.195   6.612   3.555 -1.9418 -0.0197 -2.3372
  187MOL   H25548987   4.161   6.675   3.410 -3.1595 -1.7429  1.6106
  187MOL   H25648988   4.187   6.848   3.677 -2.4200 -1.3947  1.9726
  187MOL   H25748989   3.884   6.938   3.669  2.4444 -2.2544  1.2607
  187MOL   H25848990   3.927   7.073   3.565 -1.3002  0.0056  0.6293
  187MOL   H25948991   4.029   7.018   3.708  1.4251 -1.2152 -0.3687
  187MOL   H26048992   4.015   6.810   3.323 -2.2872 -0.6733 -1.0686
  187MOL   H26148993   3.902   6.943   3.374  0.0780  0.6513  0.7358
  187MOL   H26248994   3.878   6.784   3.435 -1.8465  1.6855  0.0761
  188MOL     C148995   3.263   7.538   4.371  0.6497 -0.2213 -0.0584
  188MOL     C248996   3.349   7.465   4.472 -0.1512  0.2125 -0.1372
  188MOL     C348997   3.431   7.360   4.446  0.3231  0.2887  0.1691
  188MOL     C448998   3.499   7.287   4.568  0.1435 -0.4186  0.3823
  188MOL     C548999   3.466   7.309   4.307 -0.0457  0.2199  0.5798
  188MOL     H649000   3.231   7.635   4.407  1.3900  0.0697 -0.1766
  188MOL     H749001   3.321   7.573   4.285 -0.8454  0.9017 -0.6238
  188MOL     H849002   3.326   7.477   4.576 -0.6832 -0.4983 -0.1680
  188MOL     H949003   3.472   7.327   4.665  1.8393 -3.0964  2.0253
  188MOL    H1049004   3.607   7.302   4.567  0.1400 -0.4192 -0.2005
  188MOL    H1149005   3.491   7.178   4.567  0.3668 -0.4358 -1.3474
  188MOL    H1249006   3.575   7.307   4.306 -0.0331 -0.3412 -2.6163
  188MOL    H1349007   3.424   7.375   4.231  0.8738  0.7464  0.5190
  188MOL    H1449008   3.187   7.466   4.338  1.8663 -1.9341  0.7852
  188MOL    C1549009   3.406   7.173   4.277  0.3293 -0.4816 -0.8346
  188MOL    C1649010   3.436   7.127   4.136  0.0231 -0.2628  0.3127
  188MOL    C1749011   3.488   7.008   4.103 -0.2759 -0.6869 -0.4759
  188MOL    C1849012   3.523   6.976   3.957  0.3774 -0.3411 -0.2421
  188MOL    C1949013   3.502   6.884   4.193  0.7028 -0.5527 -0.7376
  188MOL    H2049014   3.297   7.173   4.270  0.3276  0.0931 -0.7974
  188MOL    H2149015   3.433   7.097   4.350  0.0477  0.4471  0.2396
  188MOL    H2249016   3.429   7.198   4.054 -1.2180  0.2244  0.8319
  188MOL    H2349017   3.449   6.920   3.899 -0.0797 -0.9318  0.9036
  188MOL    H2449018   3.622   6.931   3.952  0.3785 -0.8876  3.4669
  188MOL    H2549019   3.517   7.069   3.900  0.5612 -0.5078 -0.5354
  188MOL    H2649020   3.452   6.798   4.147  0.0222 -1.2179  1.2131
  188MOL    H2749021   3.452   6.904   4.287  1.2341 -0.3145 -0.5039
  188MOL    C2849022   3.651   6.851   4.226 -0.2495  0.0963  0.0918
  188MOL    C2949023   3.714   6.968   4.291 -1.0295  0.0816  0.2130
  188MOL    C3049024   3.744   6.974   4.422 -0.3726 -0.1598 -0.6246
  188MOL    C3149025   3.813   7.094   4.479 -0.5024 -0.5890  0.4673
  188MOL    C3249026   3.709   6.866   4.528 -0.1208 -0.0497  0.7063
  188MOL    H3349027   3.715   6.832   4.140  1.8392 -1.4276  1.9438
  188MOL    H3449028   3.659   6.764   4.292 -1.4233 -0.1948 -0.1266
  188MOL    H3549029   3.744   7.046   4.222  0.9981 -0.0950  0.8780
  188MOL    H3649030   3.908   7.081   4.530  0.2060 -1.6073 -1.0945
  188MOL    H3749031   3.749   7.130   4.560 -1.1321 -0.4626 -0.0830
  188MOL    H3849032   3.824   7.171   4.403 -3.0903 -0.4521  0.1738
  188MOL    H3949033   3.655   6.780   4.490  3.2199 -1.9923  0.1324
  188MOL    H4049034   3.646   6.916   4.601  0.2336  1.0800  0.2625
  188MOL    C4149035   3.828   6.803   4.608  0.3527  0.3271 -0.9443
  188MOL    C4249036   3.788   6.709   4.722 -0.9489 -0.3172  0.4250
  188MOL    C4349037   3.846   6.592   4.756  0.4723 -0.1956  0.1380
  188MOL    C4449038   3.779   6.510   4.865  0.6676  0.1164 -0.2289
  188MOL    C4549039   3.968   6.526   4.684  0.1870 -0.4561  0.9027
  188MOL    H4649040   3.884   6.887   4.648 -1.6278  1.3978 -0.4039
  188MOL    H4749041   3.892   6.738   4.548 -0.5097 -1.5195  0.1010
  188MOL    H4849042   3.702   6.748   4.776 -0.1980 -0.1176  1.4932
  188MOL    H4949043   3.862   6.465   4.919  0.2024  0.5192  0.8362
  188MOL    H5049044   3.709   6.436   4.826 -1.3219  0.3975  2.5945
  188MOL    H5149045   3.723   6.575   4.933 -0.5210  0.5850 -1.6192
  188MOL    H5249046   4.039   6.499   4.763  2.0145 -0.0270 -0.5450
  188MOL    H5349047   4.025   6.602   4.629 -0.6941  0.1924  0.8818
  188MOL    C5449048   3.922   6.415   4.600  0.8053 -0.1747 -0.2893
  188MOL    C5549049   4.022   6.378   4.490  0.2818  0.3736 -0.6688
  188MOL    C5649050   4.094   6.268   4.475 -0.1216 -0.0766 -0.8429
  188MOL    C5749051   4.186   6.238   4.353 -0.3055  0.1008  0.0941
  188MOL    C5849052   4.098   6.154   4.575  0.6461 -0.1107  0.1662
  188MOL    H5949053   3.828   6.438   4.551  0.2919 -1.3829  0.1134
  188MOL    H6049054   3.899   6.331   4.665 -0.4859  0.2163 -0.2258
  188MOL    H6149055   4.031   6.455   4.415 -0.7200  0.2355 -0.9473
  188MOL    H6249056   4.182   6.330   4.296  0.8391 -0.2253 -0.5392
  188MOL    H6349057   4.153   6.145   4.305 -0.0855 -0.5647  1.2103
  188MOL    H6449058   4.290   6.224   4.383 -0.4041 -1.6585 -0.3036
  188MOL    H6549059   4.095   6.062   4.516 -0.0412  1.5298 -2.4461
  188MOL    H6649060   4.011   6.145   4.640  0.0584 -2.2515 -0.8746
  188MOL    C6749061   4.219   6.163   4.678  0.5436 -0.1977 -1.0012
  188MOL    C6849062   4.217   6.062   4.789 -0.7786 -0.3162 -0.8781
  188MOL    C6949063   4.243   6.082   4.924 -0.1336 -0.8707  0.3325
  188MOL    C7049064   4.218   5.973   5.025 -0.2473  0.0636  0.5571
  188MOL    C7149065   4.298   6.217   4.981  0.0673  0.1547  0.3088
  188MOL    H7249066   4.245   6.267   4.695  2.0728 -0.7955  0.5036
  188MOL    H7349067   4.303   6.133   4.615  0.5775  1.1836 -1.6306
  188MOL    H7449068   4.190   5.961   4.760 -1.3649 -1.0288  1.9508
  188MOL    H7549069   4.210   5.870   4.988  0.5902  1.3230 -3.3929
  188MOL    H7649070   4.126   5.988   5.080 -0.1693  1.1871  0.3856
  188MOL    H7749071   4.296   5.979   5.101  1.3833  0.2686 -1.0765
  188MOL    H7849072   4.310   6.275   4.889  1.7234 -1.7027 -0.6965
  188MOL    H7949073   4.402   6.215   5.013  1.0082  0.3127 -2.5151
  188MOL    C8049074   4.210   6.289   5.086  0.1999 -1.0672  0.4034
  188MOL    C8149075   4.232   6.236   5.228 -0.0301  0.0547  0.3731
  188MOL    C8249076   4.135   6.228   5.323  0.2748  0.3374  0.6406
  188MOL    C8349077   3.986   6.256   5.295  0.1441 -0.4932  0.3758
  188MOL    C8449078   4.164   6.166   5.458  0.0584  0.3347  0.7768
  188MOL    H8549079   4.107   6.270   5.058  0.3831 -2.6555  0.7690
  188MOL    H8649080   4.236   6.393   5.110 -4.0161  0.2097 -0.2470
  188MOL    H8749081   4.334   6.214   5.255  0.4957  1.0410 -0.7679
  188MOL    H8849082   3.979   6.350   5.241  0.8911  0.2243  1.5294
  188MOL    H8949083   3.922   6.254   5.383  0.9964 -0.9058  1.0010
  188MOL    H9049084   3.959   6.174   5.227  1.3750  1.1896 -2.2040
  188MOL    H9149085   4.121   6.218   5.543 -0.2275  0.6316  0.4536
  188MOL    H9249086   4.272   6.169   5.472  0.2465 -0.7889 -0.3072
  188MOL    C9349087   4.100   6.026   5.453 -0.0697  0.5290  0.6877
  188MOL    C9449088   4.129   5.953   5.588 -0.0882 -0.2026  0.6035
  188MOL    C9549089   4.036   5.896   5.665  0.1286  0.8748  0.7768
  188MOL    C9649090   4.078   5.815   5.789  0.0841  0.0207 -0.5569
  188MOL    C9749091   3.891   5.894   5.622 -0.0028  0.8353 -0.0913
  188MOL    H9849092   4.137   5.973   5.365 -1.0840 -0.1351  0.6544
  188MOL    H9949093   3.996   6.028   5.421 -0.0426 -0.5136  0.5053
  188MOL   H10049094   4.232   5.932   5.614  0.6133  0.8105 -1.2386
  188MOL   H10149095   4.056   5.709   5.781 -1.7397  0.2345  1.0632
  188MOL   H10249096   4.185   5.815   5.812 -0.4448 -2.2698  2.1324
  188MOL   H10349097   4.022   5.853   5.875  1.4155 -1.1373  0.8546
  188MOL   H10449098   3.857   5.800   5.665  0.9976  0.2869 -0.4766
  188MOL   H10549099   3.878   5.881   5.514  2.5459 -0.3733 -0.3005
  188MOL   C10649100   3.802   6.018   5.654 -0.1672  0.3011 -0.4958
  188MOL   C10749101   3.801   6.068   5.805  0.2949  0.2944 -0.3256
  188MOL   C10849102   3.690   6.104   5.870 -0.5581  0.4302 -0.0374
  188MOL   C10949103   3.561   6.119   5.798 -0.1820  0.1498  0.2889
  188MOL   C11049104   3.682   6.114   6.021 -0.0600  0.0982  0.3532
  188MOL   H11149105   3.700   6.003   5.620  0.9821 -1.0005 -3.5098
  188MOL   H11249106   3.836   6.092   5.582 -0.2373  0.1890 -0.6421
  188MOL   H11349107   3.890   6.053   5.866  0.1536  1.6174  0.2260
  188MOL   H11449108   3.561   6.160   5.697 -0.6609 -0.4485  0.0387
  188MOL   H11549109   3.505   6.025   5.795 -0.2007  0.1488  0.7312
  188MOL   H11649110   3.488   6.185   5.844  1.2190  1.8395  0.1352
  188MOL   H11749111   3.752   6.037   6.052 -1.0788 -1.5262 -1.2532
  188MOL   H11849112   3.585   6.069   6.044 -0.6327  0.4871 -1.2093
  188MOL   C11949113   3.706   6.252   6.082 -0.6970 -0.4068  0.2393
  188MOL   C12049114   3.715   6.249   6.233 -0.5459 -0.2153 -1.1604
  188MOL   C12149115   3.690   6.345   6.324 -0.6966 -0.2968 -0.1522
  188MOL   C12249116   3.698   6.316   6.475 -0.1065 -0.1948  0.5062
  188MOL   C12349117   3.657   6.484   6.290 -1.1763 -0.7793  0.1215
  188MOL   H12449118   3.631   6.318   6.038  0.3095  0.0166 -0.8806
  188MOL   H12549119   3.797   6.297   6.043 -1.7879  0.1290 -1.7624
  188MOL   H12649120   3.723   6.148   6.269 -0.3525  0.2553  0.1405
  188MOL   H12749121   3.707   6.212   6.506  0.2296 -0.5188 -0.6731
  188MOL   H12849122   3.608   6.343   6.532  0.8544  0.8106  1.5896
  188MOL   H12949123   3.766   6.383   6.529  2.8632 -1.1719 -1.9251
  188MOL   H13049124   3.684   6.502   6.186  0.8401 -0.5807  0.6645
  188MOL   H13149125   3.724   6.554   6.340 -2.8302  1.6998 -1.0375
  188MOL   C13249126   3.512   6.531   6.325 -0.6100  0.7216 -0.4162
  188MOL   C13349127   3.484   6.654   6.235  0.3052  0.5339  0.0600
  188MOL   C13449128   3.441   6.772   6.277 -0.3599  0.3701 -0.2773
  188MOL   C13549129   3.427   6.895   6.187  0.1852 -0.0902  0.1790
  188MOL   C13649130   3.396   6.809   6.417  0.2358  0.6884  0.5169
  188MOL   H13749131   3.499   6.547   6.432 -0.7804 -2.3294  0.0726
  188MOL   H13849132   3.438   6.456   6.295  0.0829 -0.0666 -0.1651
  188MOL   H13949133   3.523   6.655   6.134 -0.1113  2.1639 -0.0896
  188MOL   H14049134   3.334   6.950   6.196  0.1019 -0.4554  1.5995
  188MOL   H14149135   3.417   6.850   6.088  1.4568 -1.3422  0.5872
  188MOL   H14249136   3.505   6.971   6.191 -1.6587  1.7651  1.7453
  188MOL   H14349137   3.375   6.724   6.481  0.3846  1.2365  1.3000
  188MOL   H14449138   3.299   6.859   6.408  0.3317  0.7530 -0.1994
  188MOL   C14549139   3.495   6.907   6.489 -0.1035  0.3176 -0.2122
  188MOL   C14649140   3.633   6.846   6.524  0.8104 -0.2001 -0.5825
  188MOL   C14749141   3.746   6.909   6.523 -0.5973  0.1596  0.2373
  188MOL   C14849142   3.881   6.833   6.543  0.1377 -0.8645  0.0390
  188MOL   C14949143   3.761   7.062   6.497  0.2458 -0.5142  0.2225
  188MOL   H15049144   3.449   6.954   6.576  0.6985 -0.8197  0.8370
  188MOL   H15149145   3.503   6.999   6.430 -1.4033  0.5616 -0.0239
  188MOL   H15249146   3.633   6.739   6.540  1.7947 -0.4416 -2.0531
  188MOL   H15349147   3.945   6.823   6.455  0.2110  1.2763 -0.1630
  188MOL   H15449148   3.863   6.727   6.563 -1.3632 -0.5310  0.5012
  188MOL   H15549149   3.943   6.873   6.623  0.4317  1.9318 -1.5270
  188MOL   H15649150   3.826   7.092   6.579 -3.4606  1.7661  2.4336
  188MOL   H15749151   3.667   7.116   6.509 -0.0734 -1.3432  1.5853
  188MOL   C15849152   3.808   7.100   6.352 -0.3047 -0.2991  0.1569
  188MOL   C15949153   3.782   7.251   6.330  0.2603 -0.0123  0.1529
  188MOL   C16049154   3.877   7.351   6.323  0.0545 -0.3921  0.4829
  188MOL   C16149155   4.033   7.337   6.312  0.0940  0.2299 -0.0280
  188MOL   C16249156   3.838   7.493   6.310 -0.1767 -0.9198 -0.3027
  188MOL   H16349157   3.748   7.042   6.282 -1.6640  0.9074  0.2938
  188MOL   H16449158   3.913   7.078   6.335  0.1970  0.2812  2.2826
  188MOL   H16549159   3.680   7.285   6.338 -1.0179 -3.3495 -1.1921
  188MOL   H16649160   4.062   7.400   6.228  1.2980  0.8350  0.8299
  188MOL   H16749161   4.062   7.234   6.288 -2.1639  0.2365 -3.0196
  188MOL   H16849162   4.086   7.375   6.400  1.5243 -0.0171 -0.7745
  188MOL   H16949163   3.928   7.549   6.337 -1.5024  0.0807  2.1672
  188MOL   H17049164   3.768   7.521   6.389 -1.9636 -0.7589 -1.9029
  188MOL   C17149165   3.787   7.532   6.166 -0.5177  0.6187 -0.3611
  188MOL   C17249166   3.763   7.684   6.159  0.2243  0.0400 -0.6935
  188MOL   C17349167   3.776   7.776   6.059  0.0005  0.5904  0.4446
  188MOL   C17449168   3.838   7.749   5.925  0.2928  0.4154 -0.2106
  188MOL   C17549169   3.737   0.042   6.079 -0.4556 -0.6121 -0.0376
  188MOL   H17649170   3.696   7.477   6.142  0.5586 -0.9797 -0.8487
  188MOL   H17749171   3.865   7.513   6.093 -1.1317  2.3718 -1.5171
  188MOL   H17849172   3.716   7.714   6.252  3.5049  1.0291  0.7082
  188MOL   H17949173   3.934   7.699   5.941  0.9261  1.5201 -0.4874
  188MOL   H18049174   3.852   7.838   5.864  1.0384 -0.1174 -0.8366
  188MOL   H18149175   3.797   7.662   5.872  0.2025 -0.0256  0.5839
  188MOL   H18249176   3.651   0.044   6.147  0.6658 -0.6332  1.3927
  188MOL   H18349177   3.679   0.071   5.991  1.7560  1.1968 -0.9205
  188MOL   C18449178   3.849   0.137   6.121  0.2350  0.0173 -0.2269
  188MOL   C18549179   3.815   0.243   6.221  0.2047 -0.2925 -0.1115
  188MOL   C18649180   3.878   0.361   6.243 -0.2071  0.1161 -0.2326
  188MOL   C18749181   3.842   0.451   6.363  0.5147  0.4014  0.3523
  188MOL   C18849182   3.990   0.413   6.158  0.3401  0.5675  0.0637
  188MOL   H18949183   3.905   0.175   6.036 -0.0069  1.5629  0.2938
  188MOL   H19049184   3.925   0.079   6.173 -1.3135 -0.8225  1.1579
  188MOL   H19149185   3.731   0.214   6.283  0.5214 -0.6669  0.1435
  188MOL   H19249186   3.762   0.395   6.413  0.8156 -0.6615 -0.3491
  188MOL   H19349187   3.808   0.551   6.336  0.3139 -0.4594 -2.6496
  188MOL   H19449188   3.923   0.462   6.435  3.0366  1.2965 -2.5540
  188MOL   H19549189   4.012   0.334   6.086  0.4358 -1.1164  1.9213
  188MOL   H19649190   4.068   0.440   6.229  0.5607 -0.7250  0.3206
  188MOL   C19749191   3.951   0.542   6.081 -0.4606 -0.2980  0.5561
  188MOL   C19849192   4.068   0.576   5.986  0.1376  0.3227  0.2251
  188MOL   C19949193   4.124   0.699   5.962  0.5405 -0.4215  0.3745
  188MOL   C20049194   4.249   0.695   5.873  0.0415  0.2018  0.2489
  188MOL   C20149195   4.080   0.832   6.010 -0.0491  0.3042  0.4992
  188MOL   H20249196   3.898   0.618   6.139 -1.5009  0.7004 -1.6415
  188MOL   H20349197   3.874   0.513   6.010  0.8374 -2.2580 -0.0911
  188MOL   H20449198   4.115   0.492   5.937 -1.1687  1.0654 -2.3679
  188MOL   H20549199   4.337   0.727   5.930 -2.0503  5.4863  0.7373
  188MOL   H20649200   4.246   0.760   5.786 -0.7708  1.9331  1.5491
  188MOL   H20749201   4.275   0.599   5.829 -1.9729 -0.4365  0.4227
  188MOL   H20849202   3.985   0.811   6.060  1.0050 -0.9943  2.0036
  188MOL   H20949203   4.045   0.899   5.931 -2.0528 -1.2554 -0.0022
  188MOL   C21049204   4.181   0.885   6.113  0.3225  0.2532 -0.3761
  188MOL   C21149205   4.118   0.985   6.210  0.0356 -0.1739  0.0169
  188MOL   C21249206   4.167   1.099   6.263  0.1394  0.2987  0.2487
  188MOL   C21349207   4.087   1.172   6.371  0.2169 -0.2017  0.3398
  188MOL   C21449208   4.301   1.148   6.234 -0.0873 -0.2051 -0.5467
  188MOL   H21549209   4.255   0.941   6.055 -0.8869 -0.8311 -3.0432
  188MOL   H21649210   4.237   0.812   6.171  0.4618  0.8255  0.2165
  188MOL   H21749211   4.026   0.950   6.255  0.4162 -3.0040 -1.2531
  188MOL   H21849212   3.995   1.120   6.398  0.5994 -1.7878 -1.2859
  188MOL   H21949213   4.064   1.272   6.336 -2.1333 -0.8250  0.0695
  188MOL   H22049214   4.143   1.189   6.463  0.9190 -0.1118 -0.0992
  188MOL   H22149215   4.367   1.079   6.181 -0.1425  0.1558 -1.0896
  188MOL   H22249216   4.357   1.162   6.327 -0.8245 -0.3402 -0.0794
  188MOL   C22349217   4.302   1.279   6.158  0.1441 -0.4045 -0.4248
  188MOL   C22449218   4.447   1.339   6.141  0.9760 -0.0638  0.5510
  188MOL   C22549219   4.528   1.334   6.032 -0.3171  0.9911 -0.3861
  188MOL   C22649220   4.646   1.431   6.014 -0.6713  0.4426 -0.3799
  188MOL   C22749221   4.492   1.270   5.899 -0.3664 -0.2834 -0.7694
  188MOL   H22849222   4.246   1.353   6.215 -1.2299  0.3528 -2.6853
  188MOL   H22949223   4.256   1.280   6.059  0.3882  0.4511 -0.5341
  188MOL   H23049224   4.472   1.401   6.225 -3.7909  3.5424 -0.5232
  188MOL   H23149225   4.684   1.461   6.111  3.3632 -0.1092 -1.7008
  188MOL   H23249226   4.613   1.517   5.956 -3.8343  1.6281  2.9821
  188MOL   H23349227   4.721   1.375   5.957 -0.1727  0.9812 -0.2550
  188MOL   H23449228   4.511   1.335   5.813  0.2856 -0.7108 -0.9540
  188MOL   H23549229   4.384   1.257   5.889 -0.7145  1.9026  0.0215
  188MOL   C23649230   4.568   1.139   5.858 -0.2647 -0.2150  0.0486
  188MOL   C23749231   4.535   1.034   5.965  1.2199  0.2776 -0.4172
  188MOL   C23849232   4.624   0.966   6.044  0.4436  0.5903  0.3022
  188MOL   C23949233   4.586   0.845   6.130 -0.3025  0.0593  0.7277
  188MOL   C24049234   4.780   0.990   6.051  0.4557  0.2433  0.8579
  188MOL   H24149235   4.676   1.150   5.864 -0.4218  0.5079  2.1909
  188MOL   H24249236   4.541   1.107   5.758  0.5475  2.3435 -1.0314
  188MOL   H24349237   4.429   1.012   5.967  1.4680 -1.0381 -1.0017
  188MOL   H24449238   4.477   0.839   6.137 -0.2321 -0.0326  1.8765
  188MOL   H24549239   4.650   0.846   6.218  2.2394 -0.6809 -1.0641
  188MOL   H24649240   4.617   0.747   6.095 -0.1633 -0.6914  2.9077
  188MOL   H24749241   4.811   1.000   5.947  3.2168  2.1785  1.8096
  188MOL   H24849242   4.826   0.903   6.099  1.4811  0.8905  1.0586
  188MOL   C24949243   4.817   1.108   6.132 -0.2643  0.7039 -0.8150
  188MOL   C25049244   4.754   1.112   6.274 -0.2769 -0.7971  0.5000
  188MOL   C25149245   4.790   1.036   6.377  0.9538  0.4342  0.0561
  188MOL   C25249246   4.718   1.051   6.506 -0.2516  0.6663  0.0594
  188MOL   C25349247   4.895   0.927   6.373  0.1484  0.2968 -0.6235
  188MOL   H25449248   4.786   1.197   6.076 -2.1835  0.0756 -0.7802
  188MOL   H25549249   4.925   1.118   6.146 -0.1771 -1.0390 -0.2348
  188MOL   H25649250   4.672   1.178   6.300  2.5005  2.0240  2.4632
  188MOL   H25749251   4.687   0.949   6.528  0.8552  0.4226  0.4912
  188MOL   H25849252   4.628   1.112   6.503 -0.4553  0.6535  3.3042
  188MOL   H25949253   4.783   1.098   6.580 -2.2617 -1.0525  3.0350
  188MOL   H26049254   4.850   0.828   6.366 -0.2781  0.4401  0.0900
  188MOL   H26149255   4.958   0.921   6.461  0.2437 -1.7243 -0.7983
  188MOL   H26249256   4.969   0.940   6.293 -1.6965 -0.6618 -2.5391
  189MOL     C149257   7.423   2.593   7.438  0.4659  0.2668 -0.0652
  189MOL     C249258   7.356   2.609   7.304 -0.4466  0.1347  0.5749
  189MOL     C349259   7.273   2.711   7.264 -0.4441  0.0458  0.1090
  189MOL     C449260   7.212   2.707   7.123 -0.1310 -0.5181 -0.7370
  189MOL     C549261   7.253   2.833   7.345 -0.1673 -0.5238 -0.6235
  189MOL     H649262   7.374   2.517   7.499  3.2461 -1.9771 -0.5331
  189MOL     H749263   7.525   2.559   7.419  0.2591  0.7779 -2.3054
  189MOL     H849264   7.370   2.523   7.240 -1.1187 -0.1499  0.8065
  189MOL     H949265   7.244   2.615   7.074  3.1380  0.0462  0.2005
  189MOL    H1049266   7.254   2.784   7.058 -0.0942 -1.2511 -1.5962
  189MOL    H1149267   7.105   2.724   7.133 -0.3124  0.1909 -3.4135
  189MOL    H1249268   7.298   2.824   7.444  0.2515  1.8379 -0.5735
  189MOL    H1349269   7.152   2.821   7.385  0.7462  0.0315  1.9075
  189MOL    H1449270   7.429   2.681   7.501 -0.6601 -0.1831  0.6834
  189MOL    C1549271   7.277   2.974   7.273 -0.2183 -0.0955 -0.6274
  189MOL    C1649272   7.198   3.078   7.351  0.0883 -0.3751 -0.5327
  189MOL    C1749273   7.241   3.202   7.388  0.0279  0.3957  0.1207
  189MOL    C1849274   7.149   3.303   7.466 -0.1520  0.1252  0.1481
  189MOL    C1949275   7.375   3.262   7.347 -0.3293  0.1733 -0.3040
  189MOL    H2049276   7.229   2.984   7.176  0.0895 -0.0195 -0.7723
  189MOL    H2149277   7.381   3.005   7.264  0.0822 -0.8841  0.0104
  189MOL    H2249278   7.106   3.046   7.398 -0.8419  1.9287 -0.7071
  189MOL    H2349279   7.146   3.399   7.415 -2.0578 -0.4101 -0.7915
  189MOL    H2449280   7.177   3.324   7.569 -0.5621  1.1647  0.0562
  189MOL    H2549281   7.045   3.269   7.472 -0.4120  1.3161  3.4108
  189MOL    H2649282   7.371   3.371   7.346  0.8897  0.3443  4.2004
  189MOL    H2749283   7.405   3.231   7.246 -2.1431  0.1308 -0.8466
  189MOL    C2849284   7.487   3.213   7.449  0.2047  0.5001 -0.2642
  189MOL    C2949285   7.629   3.242   7.416 -0.9137  0.9188 -0.1474
  189MOL    C3049286   7.713   3.316   7.490 -0.8225 -0.5917  0.3807
  189MOL    C3149287   7.853   3.356   7.430  0.1216 -0.5017 -0.4578
  189MOL    C3249288   7.676   3.370   7.632 -0.0659 -0.3820  0.3066
  189MOL    H3349289   7.473   3.106   7.459 -0.5116  0.6642  0.5518
  189MOL    H3449290   7.469   3.255   7.548  2.5433  1.5087 -0.2346
  189MOL    H3549291   7.654   3.198   7.321  0.2980 -1.9544  1.4299
  189MOL    H3649292   7.860   3.323   7.327  0.5750 -0.6748 -0.3747
  189MOL    H3749293   0.057   3.303   7.477 -0.4421  0.4315  1.6514
  189MOL    H3849294   7.865   3.464   7.438  2.2470 -0.7528 -0.1481
  189MOL    H3949295   7.758   3.336   7.695  0.8741 -0.2752 -0.8434
  189MOL    H4049296   7.594   3.325   7.689 -0.4730 -1.2661 -0.9573
  189MOL    C4149297   7.671   3.523   7.635  0.0502  0.2188 -0.3389
  189MOL    C4249298   7.650   3.578   7.776 -1.3687 -0.2478 -0.2178
  189MOL    C4349299   7.624   3.706   7.807  0.3128 -0.5084  0.1479
  189MOL    C4449300   7.634   3.757   0.072 -0.4518  0.5786 -0.2333
  189MOL    C4549301   7.605   3.811   7.698  0.0424  0.5749 -0.1908
  189MOL    H4649302   7.582   3.546   7.578 -0.2562 -1.8366 -0.7221
  189MOL    H4749303   7.758   3.568   7.587  0.3317 -0.3794 -0.3990
  189MOL    H4849304   7.664   3.507   7.856 -1.2799  0.0785  0.0550
  189MOL    H4949305   7.542   3.781   0.127 -0.0820 -0.6567  0.9516
  189MOL    H5049306   7.707   3.836   0.087 -0.3115  0.1083  1.6445
  189MOL    H5149307   7.677   3.677   0.133  3.6627  1.5672 -1.7331
  189MOL    H5249308   7.558   3.895   7.749  1.2210  2.2318 -1.7603
  189MOL    H5349309   7.535   3.783   7.619  1.9400 -0.2843 -1.6132
  189MOL    C5449310   7.742   3.856   7.656  0.1112  0.1712  0.0035
  189MOL    C5549311   7.732   3.967   7.558  0.1295 -0.2531 -0.2075
  189MOL    C5649312   7.703   3.949   7.422 -0.5975  0.3528 -0.2284
  189MOL    C5749313   7.700   4.071   7.322 -0.8465  0.0271 -0.2290
  189MOL    C5849314   7.689   3.811   7.362 -0.0473 -0.0608  0.3915
  189MOL    H5949315   7.800   3.770   7.622 -0.8977 -0.3745 -0.3567
  189MOL    H6049316   7.794   3.900   7.742  0.8403  0.3603 -0.5207
  189MOL    H6149317   7.751   4.066   7.597 -0.6529  0.4346 -1.5061
  189MOL    H6249318   7.623   4.145   7.343 -1.2478 -0.5123  0.2149
  189MOL    H6349319   7.677   4.048   7.218 -0.9384 -0.3787 -0.1189
  189MOL    H6449320   7.800   4.116   7.322 -0.5452 -0.6214 -1.8626
  189MOL    H6549321   7.595   3.811   7.306 -0.9799 -0.3033  1.9452
  189MOL    H6649322   7.692   3.732   7.436 -3.5144 -0.7415 -0.0856
  189MOL    C6749323   7.795   3.774   7.256 -0.0930  0.0928  0.0856
  189MOL    C6849324   7.772   3.623   7.211  0.1992  0.3486 -0.4639
  189MOL    C6949325   7.809   3.565   7.104 -0.2821 -0.3225  0.5347
  189MOL    C7049326   7.790   3.422   7.070 -0.1035 -0.3317 -0.5705
  189MOL    C7149327   0.005   3.646   6.989 -0.4962 -0.0372  0.5199
  189MOL    H7249328   0.016   3.773   7.300  0.2145 -0.0830 -0.6074
  189MOL    H7349329   7.801   3.849   7.178  0.7619 -2.0528 -1.9922
  189MOL    H7449330   7.728   3.555   7.283 -1.8055  1.5071 -0.5425
  189MOL    H7549331   7.739   3.415   6.974 -1.3218  1.9312 -0.1232
  189MOL    H7649332   7.715   3.381   7.138 -1.0849  1.0446 -0.8160
  189MOL    H7749333   0.005   3.367   7.080  1.0375  1.8518  1.2030
  189MOL    H7849334   0.079   3.587   6.934  0.3834  0.1002  1.5308
  189MOL    H7949335   0.054   3.732   7.034 -1.2357  0.6909 -0.0662
  189MOL    C8049336   7.783   3.696   6.887  0.8210  0.7633 -0.2176
  189MOL    C8149337   7.852   3.766   6.771 -0.0389  0.0482  0.5175
  189MOL    C8249338   7.824   3.887   6.728 -0.3482 -0.6934 -0.6621
  189MOL    C8349339   7.721   3.979   6.791  0.6324 -0.0582 -0.1465
  189MOL    C8449340   0.028   3.953   6.615  0.5115 -0.1363  0.5563
  189MOL    H8549341   7.707   3.752   6.941 -0.6977 -0.6061 -0.8828
  189MOL    H8649342   7.737   3.606   6.846 -1.2104  1.5432  0.2929
  189MOL    H8749343   0.055   3.715   6.722  0.4868  1.3414  0.0403
  189MOL    H8849344   7.774   4.014   6.880  1.6032 -0.9783 -0.3603
  189MOL    H8949345   7.637   3.914   6.815  1.0068  0.0242  1.4958
  189MOL    H9049346   7.687   4.064   6.733 -1.0105  0.2538  1.2171
  189MOL    H9149347   0.102   4.022   6.657  1.1308 -0.0038 -0.7264
  189MOL    H9249348   7.844   4.010   6.547  0.2148  0.8208  1.6076
  189MOL    C9349349   0.113   3.853   6.527 -0.3970  0.3594 -0.1989
  189MOL    C9449350   0.181   3.926   6.422 -0.2800  0.2852 -0.1602
  189MOL    C9549351   0.201   3.890   6.294  0.0071 -0.2745 -0.4094
  189MOL    C9649352   0.271   3.988   6.211 -0.1890  0.2014  0.3880
  189MOL    C9749353   0.155   3.764   6.221  0.2757  0.0290 -0.3425
  189MOL    H9849354   0.039   3.784   6.487  1.6614 -2.1717  0.1968
  189MOL    H9949355   0.186   3.797   6.586  0.0221 -0.2243 -1.2701
  189MOL   H10049356   0.232   4.017   6.449  0.2614  0.1304 -0.6620
  189MOL   H10149357   0.308   4.077   6.262 -1.9668  0.7078  0.7981
  189MOL   H10249358   0.363   3.938   6.178 -0.4579 -0.0574  0.0277
  189MOL   H10349359   0.223   4.012   6.116  1.0931 -0.4969 -0.4671
  189MOL   H10449360   0.102   3.796   6.130 -0.9324  0.9157  0.6444
  189MOL   H10549361   0.084   3.722   6.292 -1.0386  1.6512 -0.6603
  189MOL   C10649362   0.277   3.666   6.209  0.7117  0.0756  0.2569
  189MOL   C10749363   0.237   3.524   6.166  0.1656  0.3907 -0.6863
  189MOL   C10849364   0.314   3.429   6.103 -0.7728 -0.1674 -0.4545
  189MOL   C10949365   0.443   3.466   6.036  0.1693  0.2848 -0.5504
  189MOL   C11049366   0.267   3.285   6.100  0.1279 -0.3466  0.7487
  189MOL   H11149367   0.327   3.660   6.306  0.0209  0.2657  0.6270
  189MOL   H11249368   0.352   3.699   6.136 -1.3767  1.7109 -1.2251
  189MOL   H11349369   0.141   3.491   6.204 -0.2977 -1.0623 -3.0357
  189MOL   H11449370   0.504   3.551   6.069  1.4556 -1.4065  1.5451
  189MOL   H11549371   0.512   3.383   6.049  0.8105  1.1674  1.7989
  189MOL   H11649372   0.426   3.471   5.928  1.3246 -1.9534 -0.8632
  189MOL   H11749373   0.184   3.252   6.163 -1.5766 -1.4580 -1.9680
  189MOL   H11849374   0.353   3.223   6.126 -0.5274 -1.5307  0.1148
  189MOL   C11949375   0.219   3.252   5.956  0.5042  0.0133 -0.2826
  189MOL   C12049376   0.181   3.108   5.931  0.3322 -0.4729  0.4791
  189MOL   C12149377   0.261   3.010   5.877  0.4984  0.5564  0.2016
  189MOL   C12249378   0.217   2.865   5.851 -0.3277  0.3935 -0.5677
  189MOL   C12349379   0.402   3.033   5.837  0.4938  0.7259 -0.4242
  189MOL   H12449380   0.299   3.272   5.886 -0.4210  2.4659 -0.7172
  189MOL   H12549381   0.138   3.318   5.923  0.0287 -0.0598  0.7164
  189MOL   H12649382   0.086   3.079   5.973  0.2230 -1.6049 -0.5189
  189MOL   H12749383   0.278   2.798   5.912  0.6159  2.0000  0.3030
  189MOL   H12849384   0.228   2.839   5.746  1.8229 -2.8482  0.3736
  189MOL   H12949385   0.114   2.832   5.861  0.1088 -0.6833  0.5273
  189MOL   H13049386   0.464   2.943   5.841  0.0391  0.4306  0.0160
  189MOL   H13149387   0.449   3.103   5.906  0.8173  2.1982 -2.1140
  189MOL   C13249388   0.410   3.087   5.688 -0.0012  0.6488 -0.8857
  189MOL   C13349389   0.536   3.165   5.653  0.2468  1.1068 -0.4131
  189MOL   C13449390   0.628   3.148   5.554  0.2959  0.4657  1.1956
  189MOL   C13549391   0.746   3.238   5.523 -0.5621 -0.5737 -0.1685
  189MOL   C13649392   0.616   3.032   5.457 -0.1705 -0.1856  0.1854
  189MOL   H13749393   0.324   3.153   5.681  0.0038  0.9151  1.1119
  189MOL   H13849394   0.398   3.002   5.621  3.2747 -2.2014  1.8979
  189MOL   H13949395   0.556   3.242   5.726 -2.3769  2.4139 -1.0048
  189MOL   H14049396   0.754   3.315   5.600 -0.2597  1.1334 -1.8473
  189MOL   H14149397   0.736   3.288   5.426  1.9323 -2.2842 -1.3543
  189MOL   H14249398   0.842   3.188   5.520 -0.9005 -1.1859 -0.9703
  189MOL   H14349399   0.575   2.947   5.513  0.7253 -1.0541 -0.4524
  189MOL   H14449400   0.719   3.004   5.432 -0.1287  0.5063 -0.3954
  189MOL   C14549401   0.539   3.072   5.332 -0.1630  0.3449 -0.0757
  189MOL   C14649402   0.498   2.960   5.238  0.2537  0.4398  0.4757
  189MOL   C14749403   0.377   2.890   5.233  0.0997 -0.3549  1.1212
  189MOL   C14849404   0.359   2.789   5.122 -0.0857 -0.6704 -0.3188
  189MOL   C14949405   0.257   2.920   5.323 -0.2621  0.1770 -0.4066
  189MOL   H15049406   0.592   3.143   5.269  0.0540 -0.4527 -0.8007
  189MOL   H15149407   0.448   3.124   5.361 -1.0819  0.4069 -2.9390
  189MOL   H15249408   0.567   2.931   5.161 -0.8952  0.7659 -0.6904
  189MOL   H15349409   0.356   2.684   5.148 -0.8220 -0.3920  0.7633
  189MOL   H15449410   0.440   2.798   5.050  1.8809 -0.5184  1.8332
  189MOL   H15549411   0.270   2.812   5.062 -0.8857 -0.2535  1.0009
  189MOL   H15649412   0.169   2.965   5.275 -0.3927 -0.5972 -0.9002
  189MOL   H15749413   0.275   3.003   5.391 -0.3242  0.1583 -0.3673
  189MOL   C15849414   0.209   2.804   5.408  0.1985 -0.0301  0.8961
  189MOL   C15949415   0.076   2.826   5.481  0.0916 -0.4677  0.1610
  189MOL   C16049416   7.839   2.761   5.463  0.2295 -0.8927 -0.3985
  189MOL   C16149417   7.815   2.649   5.367  0.0857 -0.0405 -0.2595
  189MOL   C16249418   7.714   2.821   5.529  0.2258  0.0254 -0.0459
  189MOL   H16349419   0.277   2.803   5.493  2.7312  1.7268 -1.0470
  189MOL   H16449420   0.213   2.717   5.341  0.3109  1.4045 -0.9906
  189MOL   H16549421   0.073   2.905   5.554 -1.8014  1.1077 -1.5375
  189MOL   H16649422   7.720   2.667   5.316 -0.2475 -0.2616  0.2799
  189MOL   H16749423   7.789   2.562   5.428  0.4478 -0.3784 -0.5850
  189MOL   H16849424   0.020   2.632   5.300  0.9817 -0.4000  0.9365
  189MOL   H16949425   7.623   2.775   5.490  1.1791 -1.7898 -0.2191
  189MOL   H17049426   7.711   2.923   5.492 -0.1125  1.0834  2.8192
  189MOL   C17149427   7.720   2.806   5.688  0.6760  0.2883 -0.1454
  189MOL   C17249428   7.612   2.881   5.769  0.2268 -0.7455  0.3805
  189MOL   C17349429   7.608   3.010   5.812  0.2556 -0.2272  0.5364
  189MOL   C17449430   7.719   3.105   5.778  0.5650 -0.1929 -0.3777
  189MOL   C17549431   7.489   3.062   5.899 -0.1978 -0.6205  0.5475
  189MOL   H17649432   7.819   2.832   5.727  1.5163  1.0471 -2.6547
  189MOL   H17749433   7.705   2.699   5.698  0.3387  0.5589  2.5464
  189MOL   H17849434   7.532   2.818   5.805 -1.4527  0.3898 -1.2614
  189MOL   H17949435   7.776   3.136   5.866  0.9040 -2.4197  0.2082
  189MOL   H18049436   7.679   3.200   5.741  0.5635 -1.1868 -3.0670
  189MOL   H18149437   7.793   3.067   5.707  1.5770 -1.6465  1.4044
  189MOL   H18249438   7.422   2.981   5.927 -2.9703  1.0506 -1.0615
  189MOL   H18349439   7.416   3.114   5.838 -0.7764 -1.0121  0.9024
  189MOL   C18449440   7.535   3.127   6.029  0.8448  0.2624  0.3846
  189MOL   C18549441   7.426   3.125   6.132  0.6144 -0.4045  0.2067
  189MOL   C18649442   7.447   3.129   6.260 -0.2003 -0.2935  0.0079
  189MOL   C18749443   7.334   3.141   6.359  0.0145 -0.0345  0.0463
  189MOL   C18849444   7.586   3.135   6.320 -0.2664 -0.1103 -0.0826
  189MOL   H18949445   7.564   3.232   6.022  1.6240 -0.0325 -0.9580
  189MOL   H19049446   7.633   3.086   6.055  1.2044  1.2202  0.5498
  189MOL   H19149447   7.324   3.120   6.097  0.0311 -3.1490  2.2029
  189MOL   H19249448   7.287   3.046   6.385  2.0618 -1.7640 -2.3277
  189MOL   H19349449   7.259   3.209   6.317 -0.2501 -1.9245 -2.6520
  189MOL   H19449450   7.369   3.178   6.455  0.0886  0.0584 -0.0167
  189MOL   H19549451   7.665   3.091   6.259  1.3025  2.0477  0.3310
  189MOL   H19649452   7.594   3.086   6.417 -0.1936 -2.2660 -1.1435
  189MOL   C19749453   7.625   3.285   6.351  0.3233  0.7699  0.5664
  189MOL   C19849454   7.775   3.310   6.378 -0.9080  0.5748  0.6030
  189MOL   C19949455   7.833   3.323   6.496  0.1185 -0.3064 -0.4875
  189MOL   C20049456   0.104   3.346   6.505 -0.1177 -0.4154  0.0851
  189MOL   C20149457   7.763   3.327   6.630 -0.4157  0.1643 -1.4359
  189MOL   H20249458   7.567   3.328   6.433 -1.2952 -1.0010  0.3974
  189MOL   H20349459   7.590   3.334   6.260 -2.4275  0.3946  1.3771
  189MOL   H20449460   7.842   3.322   6.294 -0.0590  0.2529  1.2153
  189MOL   H20549461   0.169   3.326   6.420  1.3231 -0.4798  1.1758
  189MOL   H20649462   0.136   3.272   6.579  1.9702  1.2956  0.9499
  189MOL   H20749463   0.130   3.444   6.547  0.3498 -0.3984 -0.2382
  189MOL   H20849464   7.689   3.407   6.640  0.3909  0.7380  0.1017
  189MOL   H20949465   7.843   3.345   6.701 -1.7634  0.2708  0.0817
  189MOL   C21049466   7.698   3.192   6.663 -0.0206 -0.9744 -0.0313
  189MOL   C21149467   7.700   3.170   6.814 -0.5941 -0.6769 -0.3122
  189MOL   C21249468   7.589   3.151   6.889  0.8538 -0.2331  0.6110
  189MOL   C21349469   7.602   3.121   7.036 -0.3520 -0.5049  0.5203
  189MOL   C21449470   7.444   3.135   6.839  0.5139 -0.7619  0.2265
  189MOL   H21549471   7.754   3.109   6.619  0.6559 -0.2241 -0.5772
  189MOL   H21649472   7.600   3.184   6.617 -0.4925 -1.1943  0.9901
  189MOL   H21749473   7.800   3.173   6.853 -0.1427  0.9657 -1.5054
  189MOL   H21849474   7.601   3.013   7.053 -2.0370 -0.1339  3.0366
  189MOL   H21949475   7.535   3.176   7.103  1.8542 -0.2562  2.5636
  189MOL   H22049476   7.700   3.158   7.065 -0.3734  1.9600 -2.3018
  189MOL   H22149477   7.438   3.158   6.732 -1.3902 -3.9730 -0.4260
  189MOL   H22249478   7.392   3.215   6.890 -1.5982 -0.4026 -2.3604
  189MOL   C22349479   7.382   3.003   6.882 -0.0683  0.2365 -0.2535
  189MOL   C22449480   7.281   2.952   6.774  0.6691  0.2835 -0.0248
  189MOL   C22549481   7.303   2.859   6.680  0.7900  0.5258  0.2047
  189MOL   C22649482   7.188   2.819   6.583 -0.0390  0.2988  0.0031
  189MOL   C22749483   7.428   2.776   6.674  0.3681  0.0073 -0.3461
  189MOL   H22849484   7.341   3.008   6.983  0.9822 -0.4112  0.2172
  189MOL   H22949485   7.448   2.916   6.892 -2.9208 -1.9579  0.3583
  189MOL   H23049486   7.187   3.007   6.776  0.7017  0.3473 -0.1985
  189MOL   H23149487   7.221   2.855   6.485  1.6223 -2.3450 -0.4524
  189MOL   H23249488   7.093   2.871   6.593  0.0460  0.3906  0.3334
  189MOL   H23349489   7.166   2.713   6.578 -1.2958  0.5722 -0.3920
  189MOL   H23449490   7.505   2.817   6.739 -1.4421  2.1758  0.5295
  189MOL   H23549491   7.454   2.768   6.568  0.9658  4.2039 -0.5982
  189MOL   C23649492   7.389   2.635   6.736  0.0130 -0.3766 -0.2840
  189MOL   C23749493   7.515   2.546   6.746  0.8888  0.0462 -0.8333
  189MOL   C23849494   7.613   2.533   6.842 -0.7690 -0.9418 -0.0551
  189MOL   C23949495   7.728   2.435   6.818 -0.2673 -0.1769  0.5080
  189MOL   C24049496   7.613   2.599   6.970 -0.3893  0.2921  0.2471
  189MOL   H24149497   7.304   2.587   6.687 -0.2671 -2.3969  2.0695
  189MOL   H24249498   7.353   2.654   6.836 -1.5326  0.8667 -1.0582
  189MOL   H24349499   7.534   2.494   6.653  0.1556  2.2673 -2.2526
  189MOL   H24449500   7.733   2.433   6.709 -0.1918  0.1031  0.5082
  189MOL   H24549501   7.712   2.332   6.851 -3.0068 -1.2015 -3.6766
  189MOL   H24649502   7.827   2.461   6.855 -0.1303 -1.4261  1.0750
  189MOL   H24749503   7.636   2.520   7.042  1.3744 -0.5631 -1.1996
  189MOL   H24849504   7.517   2.634   7.007  0.0517  0.0061  1.7043
  189MOL   C24949505   7.719   2.712   6.986 -0.1633  0.7819 -0.5387
  189MOL   C25049506   7.735   2.756   7.129 -0.4534 -0.3125 -0.2315
  189MOL   C25149507   7.830   2.847   7.169  0.4014 -0.1814  0.2727
  189MOL   C25249508   7.830   2.884   7.315  0.2993  0.5671  0.2536
  189MOL   C25349509   0.042   2.928   7.070 -0.8279 -0.1434  0.1649
  189MOL   H25449510   7.690   2.799   6.927  2.4188  2.2303  0.1953
  189MOL   H25549511   7.815   2.684   6.943 -0.6841 -0.5986 -0.8014
  189MOL   H25649512   7.670   2.716   7.206  0.2964  1.1314  1.1988
  189MOL   H25749513   0.051   2.884   7.358  0.0200 -1.9010  1.0013
  189MOL   H25849514   7.779   2.808   7.374  0.4749  0.3956  0.1840
  189MOL   H25949515   7.792   2.986   7.321  1.4739  1.1311 -1.5919
  189MOL   H26049516   7.877   3.028   7.059 -1.0064 -0.2054  0.3245
  189MOL   H26149517   0.040   2.886   6.969  3.8410  0.4163 -0.2803
  189MOL   H26249518   0.143   2.940   7.110 -1.3257  2.3188  0.7635
  190MOL     C149519   5.920   6.497   6.010 -0.2835 -0.1071  0.1729
  190MOL     C249520   5.877   6.599   5.906 -0.5512 -0.3512 -0.3471
  190MOL     C349521   5.895   6.727   5.924  0.0912  0.1870  0.6041
  190MOL     C449522   5.830   6.831   5.839 -0.1455 -0.3204  0.0304
  190MOL     C549523   5.983   6.787   6.033  0.2248 -1.1247 -1.0371
  190MOL     H649524   5.986   6.548   6.080  1.3015 -0.8941 -0.7345
  190MOL     H749525   5.831   6.470   6.068 -0.0487 -1.3893 -0.0448
  190MOL     H849526   5.828   6.557   5.819 -0.5473 -4.1417  1.3682
  190MOL     H949527   5.772   6.896   5.905 -0.5212  1.1333 -1.7079
  190MOL    H1049528   5.750   6.793   5.776  0.5781  0.2036 -1.2169
  190MOL    H1149529   5.897   6.889   5.776  0.1898 -1.2310 -0.4676
  190MOL    H1249530   6.027   6.878   5.991 -1.0042 -0.4069 -0.8029
  190MOL    H1349531   6.069   6.724   6.054  0.7007  0.3898  1.9003
  190MOL    H1449532   5.974   6.413   5.968 -0.7112  1.8302 -4.5937
  190MOL    C1549533   5.900   6.811   6.166  0.1813 -0.1455 -0.2377
  190MOL    C1649534   5.973   6.900   6.262  0.7153 -0.3217 -0.0523
  190MOL    C1749535   5.938   7.024   6.310 -0.1374 -0.0583 -0.2234
  190MOL    C1849536   6.024   7.097   6.407 -0.1358  0.5579 -0.6387
  190MOL    C1949537   5.813   7.104   6.284  0.1187  0.0048 -0.2835
  190MOL    H2049538   5.876   6.719   6.219 -0.8453  1.1648  1.6037
  190MOL    H2149539   5.808   6.855   6.126 -0.3984 -0.5862  0.6209
  190MOL    H2249540   6.074   6.871   6.290  0.8122 -1.1466 -1.2656
  190MOL    H2349541   6.124   7.063   6.429 -1.6629 -2.1475  2.4437
  190MOL    H2449542   5.974   7.100   6.504 -2.0703  0.8407 -1.6108
  190MOL    H2549543   6.032   7.201   6.375  0.1668  0.3671 -1.1969
  190MOL    H2649544   5.789   7.163   6.372 -0.8212 -0.4239 -0.2490
  190MOL    H2749545   5.722   7.049   6.257  1.2915 -1.1056 -2.1183
  190MOL    C2849546   5.837   7.199   6.162 -0.0836 -0.2725  0.0307
  190MOL    C2949547   5.728   7.306   6.154 -0.0273 -0.7611 -0.5456
  190MOL    C3049548   5.599   7.289   6.112  0.3141  0.6391 -0.4173
  190MOL    C3149549   5.493   7.392   6.128 -0.3749  0.1970 -0.1070
  190MOL    C3249550   5.555   7.160   6.039 -0.7995  0.6944 -0.2944
  190MOL    H3349551   5.831   7.148   6.066  1.3141 -1.8132  0.7468
  190MOL    H3449552   5.937   7.241   6.165 -0.0259 -0.3307 -1.1222
  190MOL    H3549553   5.761   7.397   6.202 -0.4630 -0.9502  0.1174
  190MOL    H3649554   5.460   7.414   6.026 -1.8524  0.8928  0.5117
  190MOL    H3749555   5.531   7.486   6.169  0.2517  0.5499 -1.4550
  190MOL    H3849556   5.409   7.355   6.186 -0.6615  0.4345 -0.3677
  190MOL    H3949557   5.635   7.090   6.016 -0.0199  1.4555  0.0620
  190MOL    H4049558   5.539   7.181   5.933 -0.1440 -0.7117 -0.6879
  190MOL    C4149559   5.436   7.074   6.103 -0.8187 -0.5639 -0.2035
  190MOL    C4249560   5.455   7.021   6.242 -0.9755 -0.1877 -0.2884
  190MOL    C4349561   5.491   6.896   6.269  0.7469  0.2589 -0.4119
  190MOL    C4449562   5.538   6.864   6.407 -0.4951 -0.1203 -0.1605
  190MOL    C4549563   5.514   6.789   6.168  0.1469  0.2824 -0.1048
  190MOL    H4649564   5.400   6.994   6.037 -0.5055 -0.2961 -0.7037
  190MOL    H4749565   5.355   7.146   6.118 -0.2686  0.0699 -0.2837
  190MOL    H4849566   5.455   7.083   6.330  0.7741 -1.4272  0.6347
  190MOL    H4949567   5.642   6.831   6.410 -0.0341  1.3426  0.8360
  190MOL    H5049568   5.475   6.781   6.438 -0.6018 -0.5577 -1.5433
  190MOL    H5149569   5.519   6.942   6.481 -0.0472  0.5146 -0.7107
  190MOL    H5249570   5.582   6.722   6.221 -0.1284 -0.0769 -0.2088
  190MOL    H5349571   5.559   6.824   6.076 -3.8250  0.3088 -2.1299
  190MOL    C5449572   5.379   6.713   6.139  0.1742  0.3579 -0.4465
  190MOL    C5549573   5.397   6.595   6.042 -0.0020 -0.3272  0.0797
  190MOL    C5649574   5.332   6.566   5.926  0.5644  0.6378 -0.2225
  190MOL    C5749575   5.362   6.437   5.846 -0.6257 -0.0696 -0.1880
  190MOL    C5849576   5.231   6.648   5.863 -0.0544  0.6812  0.2145
  190MOL    H5949577   5.303   6.780   6.099 -1.6880 -1.8905 -0.8460
  190MOL    H6049578   5.334   6.675   6.231  0.5454  2.9087  0.8414
  190MOL    H6149579   5.469   6.520   6.073 -1.9286 -1.4953  1.8325
  190MOL    H6249580   5.449   6.381   5.881 -0.7723  0.6977  1.4488
  190MOL    H6349581   5.389   6.452   5.742  1.3735 -0.3453  0.2541
  190MOL    H6449582   5.272   6.376   5.855 -0.4311 -0.0912  2.0776
  190MOL    H6549583   5.193   6.725   5.930  0.0289  1.3551 -0.4957
  190MOL    H6649584   5.138   6.591   5.850 -0.6844  1.4712  1.2274
  190MOL    C6749585   5.270   6.710   5.725  0.0961  0.8436 -0.2683
  190MOL    C6849586   5.394   6.796   5.720 -0.5604  0.5436 -0.3513
  190MOL    C6949587   5.407   6.924   5.674 -0.0798  0.1851 -0.0954
  190MOL    C7049588   5.545   6.987   5.666 -0.0035 -0.0298  0.1027
  190MOL    C7149589   5.284   7.013   5.636  0.2910 -0.3736  1.1081
  190MOL    H7249590   5.181   6.759   5.687 -1.5826 -1.0168  1.1180
  190MOL    H7349591   5.284   6.625   5.658 -1.9016 -0.2813  0.6740
  190MOL    H7449592   5.480   6.736   5.743 -0.3306  1.1545  0.3717
  190MOL    H7549593   5.552   7.073   5.733 -0.4780  0.1281 -0.0464
  190MOL    H7649594   5.549   7.034   5.568  1.2773  0.5058  0.4061
  190MOL    H7749595   5.627   6.916   5.676 -0.6289 -1.1888 -2.4543
  190MOL    H7849596   5.314   7.118   5.641  1.1444 -0.5525  0.0025
  190MOL    H7949597   5.211   7.004   5.716  0.4158 -2.0916  1.0592
  190MOL    C8049598   5.217   6.974   5.501  0.4051  0.2528  0.1683
  190MOL    C8149599   5.307   6.996   5.376  0.1304  0.0621  0.0407
  190MOL    C8249600   5.387   6.904   5.318  0.2731 -0.1179 -0.6917
  190MOL    C8349601   5.410   6.767   5.378  0.0741 -0.1392  0.2567
  190MOL    C8449602   5.448   6.922   5.179 -0.4095  0.5091 -0.3519
  190MOL    H8549603   5.126   7.031   5.481  0.0195  0.9414  3.6892
  190MOL    H8649604   5.174   6.874   5.498  1.6663 -0.2893 -0.8481
  190MOL    H8749605   5.289   7.089   5.324 -0.7606 -0.5850 -0.8452
  190MOL    H8849606   5.387   6.679   5.319 -0.4200 -0.5198  1.0142
  190MOL    H8949607   5.354   6.755   5.471  0.3212 -2.3505  0.1480
  190MOL    H9049608   5.514   6.758   5.409 -0.1947  1.0339  1.5932
  190MOL    H9149609   5.414   7.019   5.143  0.4911  1.5002  1.4234
  190MOL    H9249610   5.403   6.848   5.112  0.0512 -0.4897  0.4317
  190MOL    C9349611   5.601   6.905   5.177  0.5327  0.7599 -0.4251
  190MOL    C9449612   5.669   6.912   5.039  0.0652  0.5176 -0.3136
  190MOL    C9549613   5.700   6.804   4.958 -0.4114  0.2064  0.8450
  190MOL    C9649614   5.750   6.828   4.818 -0.1312 -0.5425  0.0425
  190MOL    C9749615   5.686   6.657   5.001 -0.4534 -0.2041  0.1001
  190MOL    H9849616   5.628   6.808   5.218  3.5777  1.2025 -1.2573
  190MOL    H9949617   5.639   6.973   5.254 -0.0380  0.7156 -0.0956
  190MOL   H10049618   5.682   7.013   5.005  1.4114  0.1224 -1.0036
  190MOL   H10149619   5.844   6.778   4.793  0.4501  0.0570  1.0056
  190MOL   H10249620   5.664   6.797   4.759 -2.1926  0.5158  2.3867
  190MOL   H10349621   5.766   6.929   4.782 -0.2116 -0.9049 -1.0264
  190MOL   H10449622   5.675   6.641   5.109  0.2441 -2.1830 -0.0992
  190MOL   H10549623   5.777   6.603   4.976  0.1000  1.4576 -1.6162
  190MOL   C10649624   5.567   6.580   4.928 -0.5329  0.2329  0.2126
  190MOL   C10749625   5.561   6.434   4.973 -1.1066  0.5007  0.3899
  190MOL   C10849626   5.508   6.336   4.901 -0.3455 -0.0961 -0.1125
  190MOL   C10949627   5.429   6.353   4.775  0.1783  0.4314  0.5154
  190MOL   C11049628   5.493   6.200   4.964  0.0096  0.3447 -0.5087
  190MOL   H11149629   5.566   6.595   4.821  0.2489 -1.2975 -0.0276
  190MOL   H11249630   5.477   6.630   4.964 -0.9349 -0.5077  0.2645
  190MOL   H11349631   5.591   6.417   5.075  3.4602  0.4800 -0.8232
  190MOL   H11449632   5.328   6.389   4.794  0.9788  1.0234  3.9470
  190MOL   H11549633   5.479   6.430   4.716 -1.2046  1.5701  0.7941
  190MOL   H11649634   5.427   6.262   4.715 -0.2935  1.3486 -0.8922
  190MOL   H11749635   5.385   6.190   4.977  0.5355 -1.0825  3.7920
  190MOL   H11849636   5.547   6.199   5.059 -1.0666  0.0580  0.1160
  190MOL   C11949637   5.550   6.080   4.879  0.4882  0.1839 -0.2383
  190MOL   C12049638   5.507   5.953   4.952 -0.3710  0.2852  0.2764
  190MOL   C12149639   5.474   5.834   4.896  0.0376 -1.0493 -0.0287
  190MOL   C12249640   5.465   5.713   4.982 -0.2751 -0.0384  0.7158
  190MOL   C12349641   5.483   5.798   4.745 -0.1546  0.2728  0.8646
  190MOL   H12449642   5.658   6.069   4.869  0.3184 -0.3327 -1.6516
  190MOL   H12549643   5.509   6.071   4.778  2.6358 -0.5932 -1.0755
  190MOL   H12649644   5.518   5.950   5.059  0.9489  0.7553  0.1605
  190MOL   H12749645   5.373   5.654   4.977 -0.6954  0.6497  0.1695
  190MOL   H12849646   5.477   5.739   5.087  0.8594 -1.8999  1.0700
  190MOL   H12949647   5.550   5.651   4.954  1.0234  2.9510 -2.3969
  190MOL   H13049648   5.550   5.713   4.735 -2.6345 -1.6531  0.1215
  190MOL   H13149649   5.525   5.878   4.684  0.4266 -0.0334  0.8662
  190MOL   C13249650   5.344   5.769   4.688 -0.4969  0.1899  0.2981
  190MOL   C13349651   5.351   5.772   4.538  0.3622  0.1057  0.1023
  190MOL   C13449652   5.313   5.682   4.452 -0.8678  0.0109  0.0955
  190MOL   C13549653   5.329   5.707   4.302  0.5675  0.0350 -0.0163
  190MOL   C13649654   5.259   5.548   4.497 -0.5006  0.3236 -0.3925
  190MOL   H13749655   5.278   5.847   4.723 -0.0749  1.3888 -1.5294
  190MOL   H13849656   5.312   5.675   4.734 -0.0905  0.7520  1.7608
  190MOL   H13949657   5.398   5.861   4.498  0.0934 -0.5207 -1.6442
  190MOL   H14049658   5.366   5.807   4.282  0.0999 -0.1457 -1.9100
  190MOL   H14149659   5.231   5.694   4.255  0.0858  0.8734  0.7553
  190MOL   H14249660   5.394   5.631   4.257 -0.3255 -0.2198 -0.9006
  190MOL   H14349661   5.193   5.508   4.419  1.9038 -0.8257 -1.9150
  190MOL   H14449662   5.197   5.563   4.585 -0.3845 -0.3054 -0.1970
  190MOL   C14549663   5.371   5.456   4.526  0.3336 -0.7057  0.2731
  190MOL   C14649664   5.316   5.337   4.608 -0.3768  0.1780  0.2832
  190MOL   C14749665   5.252   5.232   4.555  0.0496  0.2262 -0.5878
  190MOL   C14849666   5.192   5.126   4.645 -0.3641 -0.6508 -0.7751
  190MOL   C14949667   5.217   5.212   4.412 -0.4156 -0.0295  0.1315
  190MOL   H15049668   5.455   5.509   4.571  0.2342  0.9315 -1.3800
  190MOL   H15149669   5.424   5.422   4.437 -0.1802 -0.2943 -0.1915
  190MOL   H15249670   5.325   5.337   4.716  1.6427  1.8312  0.1360
  190MOL   H15349671   5.242   5.118   4.741  0.5819  0.8605 -1.1225
  190MOL   H15449672   5.213   5.031   4.596 -1.5401  0.3092 -3.2367
  190MOL   H15549673   5.085   5.144   4.655 -0.2100  1.6379 -2.7110
  190MOL   H15649674   5.233   5.105   4.395 -0.1644 -0.3924  2.5397
  190MOL   H15749675   5.299   5.256   4.354  0.3078 -0.9454  0.4338
  190MOL   C15849676   5.081   5.250   4.360  0.3469  0.0189 -0.6727
  190MOL   C15949677   5.055   5.211   4.215 -0.3417 -0.0567  0.4761
  190MOL   C16049678   4.948   5.156   4.158 -0.5134  0.2022 -0.4486
  190MOL   C16149679   4.826   5.117   4.233 -0.2970  0.2575  0.2802
  190MOL   C16249680   4.964   5.125   4.010 -0.2100 -0.0204 -0.2486
  190MOL   H16349681   5.070   5.358   4.363  0.6881  0.0158  0.9759
  190MOL   H16449682   5.012   5.207   4.433  1.1219  0.9063  0.6000
  190MOL   H16549683   5.145   5.220   4.156  1.1850  1.0651  2.9077
  190MOL   H16649684   4.798   5.168   4.325 -1.3637 -0.2281  0.2354
  190MOL   H16749685   4.842   5.015   4.270  2.0128  1.2937  2.2300
  190MOL   H16849686   4.737   5.120   4.170 -0.9829 -0.2289  1.2170
  190MOL   H16949687   5.058   5.152   3.962  0.2260  0.5104  0.8731
  190MOL   H17049688   4.891   5.189   3.960 -0.3654 -1.3017 -1.6876
  190MOL   C17149689   4.930   4.981   3.986 -0.6648 -0.8257 -0.4883
  190MOL   C17249690   5.015   4.885   4.075  0.7413 -0.8707  0.3326
  190MOL   C17349691   4.974   4.780   4.155  0.1142  0.5428  0.3744
  190MOL   C17449692   4.833   4.724   4.165  0.0100 -0.0934  0.0722
  190MOL   C17549693   5.073   4.690   4.228 -0.2022  0.3976 -0.3730
  190MOL   H17649694   4.943   4.948   3.884  0.5820  1.1049 -0.9862
  190MOL   H17749695   4.824   4.966   4.008 -0.7665  0.2920 -0.1600
  190MOL   H17849696   5.120   4.907   4.080  1.0494 -1.6368 -1.9621
  190MOL   H17949697   4.815   4.620   4.136  1.1467 -0.1663 -0.4029
  190MOL   H18049698   4.762   4.788   4.113 -0.6539  1.4851  2.8699
  190MOL   H18149699   4.782   4.730   4.261 -1.1562  1.6319 -0.6251
  190MOL   H18249700   5.172   4.728   4.208 -0.4211  0.1392 -2.0293
  190MOL   H18349701   5.068   4.593   4.177  0.5831 -0.4736  1.1822
  190MOL   C18449702   5.040   4.689   4.386 -0.2066  0.0747  0.5743
  190MOL   C18549703   5.144   4.605   4.457  0.2201 -0.2463  0.4283
  190MOL   C18649704   5.191   4.629   4.586  0.1582  0.0161 -0.0408
  190MOL   C18749705   5.275   4.532   4.660 -0.3125  0.5397 -0.0284
  190MOL   C18849706   5.143   4.751   4.675  0.6342 -0.5634 -0.0208
  190MOL   H18949707   4.942   4.650   4.412 -0.7036 -0.7887 -2.4235
  190MOL   H19049708   5.048   4.790   4.427  3.4453  0.5615 -1.1605
  190MOL   H19149709   5.167   4.519   4.395  0.8986 -0.9580  1.6422
  190MOL   H19249710   5.363   4.573   4.710  2.0390 -1.5656 -2.2638
  190MOL   H19349711   5.302   4.453   4.589 -0.6951 -1.7278  2.2589
  190MOL   H19449712   5.214   4.483   4.736 -0.0096 -0.1555 -0.2278
  190MOL   H19549713   5.086   4.829   4.625 -0.2753 -0.2599  1.4731
  190MOL   H19649714   5.232   4.805   4.708 -0.7390  1.6183  0.2534
  190MOL   C19749715   5.046   4.707   4.777 -0.6840 -0.2989 -0.3878
  190MOL   C19849716   4.989   4.823   4.852 -0.8160  0.1834  0.4966
  190MOL   C19949717   5.002   4.856   4.983  0.1205  0.2315  0.0650
  190MOL   C20049718   4.924   4.975   5.042  0.1863 -0.2277  0.0285
  190MOL   C20149719   5.079   4.773   5.085 -0.0209  0.1157 -0.3631
  190MOL   H20249720   5.085   4.630   4.843 -1.4222 -0.0706  0.3285
  190MOL   H20349721   4.963   4.661   4.724 -0.1463 -1.2888 -0.3863
  190MOL   H20449722   4.931   4.890   4.791 -2.1006 -0.2916  1.1655
  190MOL   H20549723   4.835   4.951   5.099 -1.2274  2.6256 -0.8654
  190MOL   H20649724   4.895   5.032   4.953 -3.4886 -1.4684  0.3273
  190MOL   H20749725   4.981   5.036   5.111  0.8260 -0.9477  0.1499
  190MOL   H20849726   5.150   4.824   5.149 -1.6201  1.2710  0.4991
  190MOL   H20949727   5.130   4.694   5.029 -1.7618 -2.6040  1.7697
  190MOL   C21049728   4.983   4.694   5.173 -0.1717 -0.0918  0.0473
  190MOL   C21149729   5.056   4.625   5.287  0.4025  0.4190 -0.6458
  190MOL   C21249730   5.039   4.496   5.328 -0.0948 -0.2650  0.0455
  190MOL   C21349731   5.115   4.437   5.445  0.2711 -0.2179  0.0110
  190MOL   C21449732   4.957   4.394   5.252 -0.3754 -0.7439  0.3594
  190MOL   H21549733   4.922   4.627   5.113 -1.1358  0.9401 -0.1366
  190MOL   H21649734   4.906   4.760   5.213 -2.8986 -3.6829  0.9686
  190MOL   H21749735   5.118   4.694   5.342 -1.2339  2.1232 -0.8858
  190MOL   H21849736   5.057   4.378   5.515  0.0955  0.5604  0.5178
  190MOL   H21949737   5.161   4.515   5.505  0.4469 -0.4495  0.1736
  190MOL   H22049738   5.182   4.361   5.404 -0.1318 -1.5939  1.8846
  190MOL   H22149739   5.009   4.302   5.280  1.6879  0.1426 -0.4137
  190MOL   H22249740   4.967   4.404   5.144  1.5460  3.1011  0.8119
  190MOL   C22349741   4.805   4.407   5.292  0.5568 -0.4387  0.3926
  190MOL   C22449742   4.713   4.298   5.237  0.7782  0.2533 -0.5671
  190MOL   C22549743   4.588   4.319   5.192  0.3141  0.1459  0.1493
  190MOL   C22649744   4.509   4.196   5.141 -0.3804 -0.1914  0.5162
  190MOL   C22749745   4.513   4.451   5.195 -0.8367 -0.3188 -0.6275
  190MOL   H22849746   4.776   4.501   5.244 -0.4072 -0.8128  0.2429
  190MOL   H22949747   4.801   4.398   5.401 -1.9325  0.9237  0.4610
  190MOL   H23049748   4.761   4.203   5.256  0.6925  0.5056  1.0178
  190MOL   H23149749   4.411   4.194   5.188  0.2491  1.0338  1.9326
  190MOL   H23249750   4.564   4.103   5.155 -0.4641 -0.1033  1.4356
  190MOL   H23349751   4.495   4.212   5.034  1.5603 -2.2973 -0.0949
  190MOL   H23449752   4.545   4.512   5.279  0.8255  0.0975 -1.5251
  190MOL   H23549753   4.410   4.430   5.222 -0.5217 -2.0646 -0.7123
  190MOL   C23649754   4.522   4.518   5.059 -0.2609  0.3872 -0.4778
  190MOL   C23749755   4.447   4.650   5.053 -0.5160 -0.0312  0.8933
  190MOL   C23849756   4.340   4.679   4.983  0.3351 -0.5196 -0.2391
  190MOL   C23949757   4.262   4.811   4.983 -0.4913  0.3531 -0.0680
  190MOL   C24049758   4.253   4.577   4.908 -0.9826  0.3087  0.7840
  190MOL   H24149759   4.487   4.452   4.980  0.0301  1.4039 -1.4850
  190MOL   H24249760   4.627   4.538   5.037 -0.2122  1.5714  0.7278
  190MOL   H24349761   4.499   4.734   5.098  1.6822 -1.2362  0.6955
  190MOL   H24449762   4.301   4.872   5.064  2.6415  0.1988 -1.3846
  190MOL   H24549763   4.155   4.796   4.991 -0.4470 -0.1195 -0.3778
  190MOL   H24649764   4.275   4.868   4.890  2.6910 -1.1312 -0.6133
  190MOL   H24749765   4.314   4.496   4.866 -0.3784  0.8126  0.6831
  190MOL   H24849766   4.201   4.619   4.822  0.2879 -0.4897 -0.4110
  190MOL   C24949767   4.149   4.519   5.011 -0.3689  0.2393  0.2022
  190MOL   C25049768   4.026   4.453   4.955  0.2425 -0.3313  0.0154
  190MOL   C25149769   3.895   4.488   4.967  0.5074  0.3309 -0.2049
  190MOL   C25249770   3.788   4.420   4.885  0.3732 -0.3498  0.4998
  190MOL   C25349771   3.848   4.599   5.062  0.3506 -0.1171  0.0143
  190MOL   H25449772   4.120   4.603   5.073  0.8957  0.1867  0.8726
  190MOL   H25549773   4.185   4.440   5.077 -0.5184  0.8966  1.0762
  190MOL   H25649774   4.055   4.370   4.893 -0.6735 -0.4683 -0.2407
  190MOL   H25749775   3.700   4.483   4.885  1.2853  0.9497  0.2994
  190MOL   H25849776   3.760   4.322   4.924 -0.6069 -0.0619  0.5242
  190MOL   H25949777   3.823   4.410   4.782 -1.9483  1.6647 -0.5187
  190MOL   H26049778   3.930   4.661   5.097 -0.7161  0.3902  1.6717
  190MOL   H26149779   3.793   4.560   5.147 -2.2410  1.0348 -1.0843
  190MOL   H26249780   3.775   4.663   5.013  1.4446  2.2574  1.3766
   7.87899   7.87899   7.87899
